Control file title. For DL_FIELD 4.10
49786
    1MOL     N1    1   4.491   6.295   6.873 -0.3173  0.2177  0.4563
    1MOL     C2    2   4.413   6.213   6.963  0.3806  0.0638 -0.1442
    1MOL     C3    3   4.382   6.290   7.091 -0.7449  0.0577 -0.4548
    1MOL     C4    4   4.260   6.224   7.162 -0.2338 -0.1878  0.0780
    1MOL     C5    5   4.166   6.313   7.244 -0.5273 -0.1847  0.2875
    1MOL     C6    6   4.052   6.236   7.313  0.4068 -0.2140 -0.6936
    1MOL     C7    7   3.964   6.155   7.218  0.8093 -0.1156  0.1257
    1MOL     C8    8   3.829   6.112   7.285 -0.5971 -0.0623  0.1603
    1MOL     C9    9   3.731   6.040   7.186 -0.6971  0.1116 -0.0917
    1MOL    C10   10   3.598   5.985   7.252 -0.2660  0.0399  0.0273
    1MOL    C11   11   3.510   5.922   7.144 -0.9256  0.2689  0.7269
    1MOL    C12   12   3.367   5.881   7.190 -0.3844 -0.0189  0.0247
    1MOL    O13   13   3.310   5.942   7.284 -0.3285 -0.0990  0.2716
    1MOL    H14   14   4.485   6.390   6.907  1.7669  1.0810 -1.4763
    1MOL    H15   15   4.478   6.127   6.978 -1.3411 -1.3475 -0.5403
    1MOL    H16   16   4.318   6.177   6.923 -0.6744  1.5481  0.9875
    1MOL    H17   17   4.355   6.394   7.072  0.4905  0.3326 -0.7014
    1MOL    H18   18   4.472   6.282   7.152 -1.4137 -1.1603  0.3959
    1MOL    H19   19   4.186   6.192   7.087 -1.2599 -1.3130  1.5469
    1MOL    H20   20   4.299   6.142   7.222 -0.4208  0.2134  0.7487
    1MOL    H21   21   4.115   6.385   7.180 -0.7701 -0.5418  0.0760
    1MOL    H22   22   4.220   6.380   7.312  0.2264  1.6072 -2.0033
    1MOL    H23   23   3.999   6.314   7.367 -1.6914 -0.6567 -2.0826
    1MOL    H24   24   4.095   6.174   7.392 -0.2346 -1.4336 -1.2941
    1MOL    H25   25   3.946   6.208   7.124 -2.8771  0.7605  1.2569
    1MOL    H26   26   4.020   6.069   7.181  3.3142  1.1831  0.8019
    1MOL    H27   27   3.776   6.200   7.321 -0.7382  0.2385 -0.7460
    1MOL    H28   28   3.850   6.052   7.373 -0.9377  0.4447  0.5880
    1MOL    H29   29   3.708   6.115   7.110  0.9071  0.4786 -0.2357
    1MOL    H30   30   3.785   5.960   7.135  0.2122  1.0045 -0.5551
    1MOL    H31   31   3.548   6.068   7.301  2.0935  0.9030  1.0664
    1MOL    H32   32   3.631   5.921   7.334 -2.6540 -0.9255  0.2603
    1MOL    H33   33   3.559   5.826   7.126  2.4704  1.7351  1.8054
    1MOL    H34   34   3.507   5.975   7.049 -0.7436 -2.5068 -0.8661
    1MOL    H35   35   4.449   6.313   6.784  0.3313 -0.2733  0.0481
    1MOL    N36   36   3.323   5.772   7.128  0.5512  0.4921  0.2325
    1MOL    C37   37   3.193   5.717   7.150 -0.3353 -0.5881 -0.3281
    1MOL    C38   38   3.193   5.602   7.254 -0.3447  0.0688 -0.0559
    1MOL    C39   39   3.055   5.533   7.257 -0.0555 -0.2853 -0.3204
    1MOL    C40   40   3.054   5.401   7.340  0.2980 -0.0365  0.3484
    1MOL    C41   41   3.063   5.275   7.250  0.3161 -0.3862 -0.2390
    1MOL    C42   42   3.116   5.151   7.318  0.2921  0.0697  0.3705
    1MOL    C43   43   3.088   5.023   7.234  0.1242 -0.0998 -0.4455
    1MOL    C44   44   3.150   5.009   7.100 -0.5175  0.1582  0.2987
    1MOL    C45   45   3.096   4.880   7.026  0.2258 -0.8559 -0.3175
    1MOL    C46   46   3.169   4.846   6.899 -0.8841 -0.1512  0.6879
    1MOL    C47   47   3.141   4.947   6.788  0.5736  0.3092  0.8644
    1MOL    O48   48   3.046   5.018   6.785 -0.0273 -0.6664 -0.3891
    1MOL    H49   49   3.386   5.715   7.073 -1.7405 -1.2414 -0.6895
    1MOL    H50   50   3.128   5.801   7.174 -0.2084 -0.8022  0.7950
    1MOL    H51   51   3.153   5.685   7.054 -2.7232 -0.4939  0.6058
    1MOL    H52   52   3.228   5.635   7.352  0.6384 -0.8557 -0.0823
    1MOL    H53   53   3.268   5.525   7.237 -0.4225 -0.4696  1.9091
    1MOL    H54   54   2.987   5.600   7.309 -1.0971 -0.5071 -1.3505
    1MOL    H55   55   3.014   5.519   7.156  1.7305  1.6497 -1.3571
    1MOL    H56   56   2.962   5.395   7.398 -1.5571  1.6869 -2.2627
    1MOL    H57   57   3.128   5.413   7.419 -2.1670 -0.3245  2.7708
    1MOL    H58   58   3.131   5.293   7.167  1.1764 -1.3567  0.2481
    1MOL    H59   59   2.969   5.250   7.201 -0.0489  0.5500 -0.0327
    1MOL    H60   60   3.219   5.184   7.333 -0.3167  1.9933  0.3485
    1MOL    H61   61   3.069   5.148   7.416  1.6522 -1.6935  1.0014
    1MOL    H62   62   2.980   5.007   7.227  0.3195 -0.9721 -1.5821
    1MOL    H63   63   3.114   4.931   7.287 -2.3589  0.2959  1.5736
    1MOL    H64   64   3.128   5.098   7.040  0.4936 -0.7911 -1.4895
    1MOL    H65   65   3.256   5.024   7.121 -0.4234  2.2933 -1.4527
    1MOL    H66   66   2.994   4.905   6.997  1.0130  3.4555  0.2989
    1MOL    H67   67   3.089   4.803   7.102 -1.9019 -0.6673 -0.2901
    1MOL    H68   68   3.127   4.751   6.868 -1.0138 -0.1040  0.7212
    1MOL    H69   69   3.277   4.832   6.907 -1.2246 -2.5048  1.8180
    1MOL    N70   70   3.216   4.942   6.683 -0.3369 -0.3799 -0.4937
    1MOL    C71   71   3.198   5.026   6.563  0.4958  0.3290 -1.0135
    1MOL    C72   72   3.318   5.006   6.467  0.4318  0.3217 -0.1843
    1MOL    C73   73   3.278   5.061   6.324 -0.9491 -0.5990 -0.0358
    1MOL    C74   74   3.182   4.973   6.234  0.1096  0.2907  0.0028
    1MOL    C75   75   3.122   5.033   6.104  0.2117  0.4056  0.2422
    1MOL    C76   76   3.023   5.147   6.133 -0.2566 -0.0334  0.2409
    1MOL    C77   77   2.879   5.102   6.178  0.6208  0.0988 -0.1792
    1MOL    C78   78   2.851   5.084   6.331  1.2205  0.1545  0.8223
    1MOL    C79   79   2.904   5.207   6.412  0.0057  0.7119 -0.3833
    1MOL    C80   80   2.844   5.213   6.550  0.1544  0.1175 -0.6788
    1MOL    C81   81   2.907   5.318   6.633  0.3678 -0.0974 -0.2318
    1MOL    O82   82   2.898   5.434   6.595  0.2043 -0.6692  0.2300
    1MOL    H83   83   3.283   4.868   6.696 -0.8079 -0.9075 -1.0283
    1MOL    H84   84   3.104   4.991   6.520  1.0261 -1.0230 -1.0925
    1MOL    H85   85   3.199   5.132   6.591 -0.3224 -0.4135  1.9110
    1MOL    H86   86   3.337   4.899   6.457  0.2720  0.1339  1.4274
    1MOL    H87   87   3.408   5.045   6.514  0.6161  1.4733 -1.4588
    1MOL    H88   88   3.229   5.158   6.336 -1.1051 -0.4423 -1.8160
    1MOL    H89   89   3.370   5.077   6.267 -1.4518  0.5753 -0.5504
    1MOL    H90   90   3.097   4.945   6.296  0.4660  0.5642  0.6191
    1MOL    H91   91   3.238   4.882   6.212 -1.5624 -1.0130  1.0488
    1MOL    H92   92   3.084   4.957   6.036  0.2725 -0.0084  0.6626
    1MOL    H93   93   3.209   5.067   6.048 -0.1039  0.0461 -0.4754
    1MOL    H94   94   3.067   5.216   6.204  1.0746  1.2065 -1.7419
    1MOL    H95   95   3.010   5.211   6.045 -0.6880  0.3266  0.5583
    1MOL    H96   96   2.847   5.005   6.140  0.1753  0.7233 -1.4044
    1MOL    H97   97   2.807   5.172   6.136  0.2267 -0.6582 -0.7930
    1MOL    H98   98   2.744   5.069   6.341  1.0390  0.5977 -0.3711
    1MOL    H99   99   2.907   5.000   6.374  0.5818 -0.3255  0.7225
    1MOL   H100  100   2.889   5.298   6.354 -0.1089 -0.5246 -2.3375
    1MOL   H101  101   3.013   5.197   6.418  0.1374 -0.5179 -3.7807
    1MOL   H102  102   2.850   5.116   6.598  1.1348 -1.4618 -3.8464
    1MOL   H103  103   2.737   5.232   6.544  0.0902  0.2979  0.9118
    1MOL   N104  104   2.989   5.284   6.737  0.2295 -0.2634 -0.5517
    1MOL   C105  105   3.039   5.379   6.832  0.0372 -0.2036  0.1959
    1MOL   C106  106   3.196   5.390   6.822 -0.2214  0.2164 -0.6328
    1MOL   C107  107   3.244   5.458   6.693  0.1812  0.2073 -0.0122
    1MOL   C108  108   3.369   5.392   6.632 -0.7329  0.3176  0.0779
    1MOL   C109  109   3.426   5.454   6.506 -0.5595  0.0089  0.1441
    1MOL   C110  110   3.532   5.361   6.439 -0.0422  0.5391 -0.2413
    1MOL   C111  111   3.614   5.435   6.331  0.4249  0.2494  0.1062
    1MOL   C112  112   3.707   5.343   6.259 -0.4834 -0.1908 -0.4720
    1MOL   C113  113   3.785   5.421   6.153  0.3263 -1.2342  0.3471
    1MOL   C114  114   3.858   5.333   6.057 -0.2014 -0.0629 -0.5297
    1MOL   C115  115   3.997   5.288   6.105  0.2703  0.1826 -0.6236
    1MOL   O116  116   4.008   5.251   6.224  0.4015  0.1356 -0.4637
    1MOL   H117  117   2.997   5.184   6.750  2.6057  0.0912  0.8945
    1MOL   H118  118   2.988   5.474   6.817 -0.3003 -0.0962  1.9757
    1MOL   H119  119   3.017   5.347   6.933  2.3374 -0.2983  0.7081
    1MOL   H120  120   3.225   5.285   6.829 -0.7142  0.0868 -0.5136
    1MOL   H121  121   3.230   5.453   6.904  1.1213 -0.9415 -0.2850
    1MOL   H122  122   3.165   5.463   6.618 -1.6567 -0.3477  1.8687
    1MOL   H123  123   3.271   5.561   6.717  2.3749 -0.5983  1.1856
    1MOL   H124  124   3.342   5.293   6.595  1.4657 -0.9638  1.7776
    1MOL   H125  125   3.454   5.380   6.700 -0.2647 -1.0099 -0.7098
    1MOL   H126  126   3.484   5.543   6.532  0.2081  0.0359 -1.5513
    1MOL   H127  127   3.351   5.481   6.432 -1.1566  0.9150  1.0761
    1MOL   H128  128   3.598   5.305   6.505  0.6005  0.6131 -0.8093
    1MOL   H129  129   3.471   5.292   6.381  2.1654 -0.0975 -1.9064
    1MOL   H130  130   3.673   5.518   6.369  1.8981  0.1187 -1.8250
    1MOL   H131  131   3.544   5.469   6.255 -2.5108  1.1686  3.0714
    1MOL   H132  132   3.779   5.298   6.328  1.9084  0.6795 -2.3164
    1MOL   H133  133   3.650   5.260   6.216  0.7396 -2.0279  1.3660
    1MOL   H134  134   3.852   5.481   6.213  0.4689 -0.8990 -0.1517
    1MOL   H135  135   3.719   5.498   6.113 -0.6796 -2.2518 -0.0061
    1MOL   H136  136   3.877   5.378   5.960  0.1131  1.3613  0.1836
    1MOL   H137  137   3.795   5.245   6.046 -0.4029 -0.3250  2.4293
    1MOL   N138  138   4.104   5.294   6.022 -0.5125  0.6172  0.4408
    1MOL   C139  139   4.235   5.238   6.056 -0.2781  0.1516  0.3357
    1MOL   C140  140   4.316   5.201   5.933 -0.7782 -0.1669 -0.1103
    1MOL   C141  141   4.447   5.133   5.973 -0.0500 -0.5081 -1.1233
    1MOL   C142  142   4.521   5.076   5.848 -0.0118  0.3325  0.4905
    1MOL   C143  143   4.588   5.186   5.758  0.6319 -0.2249 -0.3548
    1MOL   C144  144   4.655   5.130   5.634  0.2063 -0.0569 -0.0148
    1MOL   C145  145   4.781   5.045   5.645 -0.0534  0.9184  0.1865
    1MOL   C146  146   4.837   5.012   5.502 -0.2455  0.1892  0.7525
    1MOL   C147  147   4.968   4.932   5.504 -0.1516  0.1405  0.2762
    1MOL   C148  148   5.002   4.855   5.379  0.0902  1.0921  0.2349
    1MOL   C149  149   4.952   4.712   5.390  0.0272 -0.7605  0.4787
    1MOL   O150  150   5.018   4.633   5.450  0.5427  0.4639 -0.5493
    1MOL   H151  151   4.085   5.329   5.929  0.0497  0.0095  0.0938
    1MOL   H152  152   4.289   5.317   6.109 -0.2336  0.3068  0.0619
    1MOL   H153  153   4.234   5.154   6.125  0.5801  0.4517  0.7273
    1MOL   H154  154   4.332   5.290   5.873  0.0752  0.8453  1.5709
    1MOL   H155  155   4.245   5.141   5.876  0.8962 -1.9876 -0.3283
    1MOL   H156  156   4.510   5.204   6.027  0.3747 -0.2826 -1.9142
    1MOL   H157  157   4.421   5.043   6.029  1.4713 -0.0831  0.3050
    1MOL   H158  158   4.444   5.039   5.780  1.9316 -0.1203 -1.5378
    1MOL   H159  159   4.593   4.997   5.867 -1.3216 -0.8632  0.5847
    1MOL   H160  160   4.664   5.241   5.814  0.8374 -1.8818  1.0060
    1MOL   H161  161   4.514   5.260   5.726 -0.2909  0.0862  2.4335
    1MOL   H162  162   4.576   5.075   5.583  0.9148 -1.7455  0.6783
    1MOL   H163  163   4.667   5.214   5.566 -0.5489 -0.4425 -0.6397
    1MOL   H164  164   4.750   4.967   5.714 -0.5949  1.5136  0.6287
    1MOL   H165  165   4.855   5.109   5.694 -0.6138  1.6094  0.1454
    1MOL   H166  166   4.758   4.951   5.459  0.9120 -0.4039 -0.5723
    1MOL   H167  167   4.851   5.100   5.441 -2.2829 -0.2523 -0.4034
    1MOL   H168  168   4.981   4.867   5.591 -0.2202 -1.5859 -0.9630
    1MOL   H169  169   5.052   5.000   5.518  0.9401 -0.8679 -1.1912
    1MOL   H170  170   5.110   4.840   5.371 -0.2304 -1.4169  0.1664
    1MOL   H171  171   4.958   4.902   5.291  0.3505  1.1630  0.1429
    1MOL   N172  172   4.838   4.682   5.325 -0.5725  0.0769  0.1578
    1MOL   C173  173   4.777   4.550   5.323 -0.0774 -0.2214 -0.6656
    1MOL   C174  174   4.683   4.532   5.443 -0.3913 -0.1671 -0.4683
    1MOL   C175  175   4.621   4.392   5.456 -0.7155 -0.7899  1.0526
    1MOL   C176  176   4.557   4.378   5.594 -0.6090  0.4966  0.2171
    1MOL   C177  177   4.466   4.259   5.623  0.3032  0.0844 -0.1670
    1MOL   C178  178   4.528   4.122   5.584  0.5337 -0.2104  0.6356
    1MOL   C179  179   4.436   4.002   5.591 -0.4744 -0.0578 -0.2224
    1MOL   C180  180   4.502   3.857   5.599  1.0463 -0.3978  0.4360
    1MOL   C181  181   4.590   3.821   5.471  0.7936 -0.1062 -0.0075
    1MOL   C182  182   4.636   3.679   5.458  0.3560 -0.3062  0.2952
    1MOL   C183  183   4.766   3.647   5.529  0.2692  0.4735 -0.2698
    1MOL   O184  184   4.873   3.685   5.482  0.0635 -0.1772 -0.2451
    1MOL   H185  185   4.814   4.742   5.248  0.3066  1.3625  0.8594
    1MOL   H186  186   4.711   4.529   5.238  0.8612  1.0707 -1.7392
    1MOL   H187  187   4.850   4.469   5.331 -0.6365 -0.5509  1.3511
    1MOL   H188  188   4.610   4.612   5.444 -0.7951 -0.5246 -1.5756
    1MOL   H189  189   4.747   4.557   5.528 -0.4683 -0.2601 -0.3830
    1MOL   H190  190   4.547   4.377   5.377  0.8587 -0.8993 -0.4387
    1MOL   H191  191   4.702   4.322   5.436  0.9555  1.3638  0.0965
    1MOL   H192  192   4.507   4.473   5.618 -0.0736  1.2775 -1.6516
    1MOL   H193  193   4.633   4.355   5.668 -0.6670  2.5019  0.9406
    1MOL   H194  194   4.373   4.275   5.568 -0.1360 -0.1387  0.5098
    1MOL   H195  195   4.440   4.271   5.728  0.6880 -3.3645  0.3989
    1MOL   H196  196   4.561   4.132   5.481  0.6640  1.3257  0.8273
    1MOL   H197  197   4.612   4.113   5.653  2.0175 -0.3447 -1.1477
    1MOL   H198  198   4.376   4.009   5.500 -0.9456  1.6260  0.2060
    1MOL   H199  199   4.366   4.008   5.675  0.0054 -4.2059  0.6288
    1MOL   H200  200   4.553   3.846   5.694 -0.1947 -0.8573  1.0645
    1MOL   H201  201   4.420   3.785   5.595  0.2280  0.5813 -0.6816
    1MOL   H202  202   4.675   3.886   5.457  0.7726 -0.0079  0.3271
    1MOL   H203  203   4.523   3.843   5.388  0.0144 -1.0558  0.3589
    1MOL   H204  204   4.642   3.648   5.354 -0.9173 -0.7061  0.3333
    1MOL   H205  205   4.560   3.604   5.481  0.4585 -1.3052 -2.4787
    1MOL   N206  206   4.760   3.579   5.644 -0.0421 -0.9196 -0.4847
    1MOL   C207  207   4.875   3.540   5.720 -0.2484  0.4761  0.1060
    1MOL   C208  208   4.946   3.654   5.797  0.1405 -0.3482  0.9359
    1MOL   C209  209   4.845   3.741   5.863 -0.2177 -0.1973 -0.5128
    1MOL   C210  210   4.912   3.838   5.965  0.0625  0.5993  0.1600
    1MOL   C211  211   4.824   3.957   5.999  0.5756  0.4804 -0.1741
    1MOL   C212  212   4.891   4.043   6.109 -0.1660 -0.5053 -0.1978
    1MOL   C213  213   4.799   4.151   6.169  0.2478  0.5587  0.2567
    1MOL   C214  214   4.866   4.234   6.277  0.2329  0.3800 -0.3131
    1MOL   C215  215   4.765   4.316   6.345 -0.2537 -0.4577 -0.3375
    1MOL   C216  216   4.673   4.242   6.444 -0.3800 -0.0297  0.5065
    1MOL   C217  217   4.724   4.234   6.587  0.2834  0.4394  0.1085
    1MOL   O218  218   4.827   4.168   6.615 -0.7564 -0.1606 -0.3980
    1MOL   H219  219   4.671   3.542   5.675 -0.6413 -1.0260 -2.2976
    1MOL   H220  220   4.945   3.481   5.661 -0.2683 -0.1598  0.7144
    1MOL   H221  221   4.834   3.466   5.788 -0.7649 -0.0147 -0.7264
    1MOL   H222  222   5.002   3.709   5.721 -0.1668 -1.9586 -0.4722
    1MOL   H223  223   5.012   3.610   5.871 -1.4270 -1.7101  1.5549
    1MOL   H224  224   4.802   3.795   5.778 -0.6828 -0.9308 -0.7427
    1MOL   H225  225   4.772   3.674   5.908  0.7653 -0.6453  0.4122
    1MOL   H226  226   5.006   3.874   5.923  0.8448 -2.2281 -0.5938
    1MOL   H227  227   4.936   3.775   6.050 -0.0188 -1.2559 -1.1506
    1MOL   H228  228   4.736   3.912   6.043  1.6162 -0.4633  0.9832
    1MOL   H229  229   4.791   3.993   5.901  1.2355  2.1237  0.1948
    1MOL   H230  230   4.935   3.980   6.186  0.6660  1.2760  0.8091
    1MOL   H231  231   4.979   4.092   6.066 -0.3513 -2.3867 -2.8593
    1MOL   H232  232   4.715   4.097   6.214  0.5746  0.7094  1.0585
    1MOL   H233  233   4.763   4.208   6.083 -0.5739 -0.0892  0.1630
    1MOL   H234  234   4.912   4.172   6.354 -0.8998 -0.1508 -0.0668
    1MOL   H235  235   4.934   4.307   6.231 -1.5133  0.6543 -2.5184
    1MOL   H236  236   4.713   4.377   6.271  0.8814 -0.5933 -1.2575
    1MOL   H237  237   4.809   4.388   6.414 -1.0545 -0.5823  0.3196
    1MOL   H238  238   4.640   4.145   6.407  0.8648  0.4481 -1.9809
    1MOL   H239  239   4.580   4.297   6.451 -0.4147  0.1129 -0.9699
    1MOL   N240  240   4.658   4.302   6.684 -0.2817 -0.0812 -0.2275
    1MOL   C241  241   4.697   4.300   6.826  0.0226  0.1151  0.2321
    1MOL   C242  242   4.609   4.402   6.899 -0.1304 -0.1566  0.0811
    1MOL   C243  243   4.460   4.380   6.884  0.1352 -0.0815  0.2323
    1MOL   C244  244   4.368   4.481   6.950 -0.4101  0.7344 -0.2921
    1MOL   C245  245   4.217   4.480   6.919 -0.3725 -0.3074  0.0820
    1MOL   C246  246   4.132   4.569   7.014 -1.1458  0.5774 -0.0577
    1MOL   C247  247   3.988   4.589   6.967  0.4313 -0.7389  0.7933
    1MOL   C248  248   3.898   4.464   6.985  0.1883 -0.5903 -0.4268
    1MOL   C249  249   3.820   4.480   7.124  0.3680  0.4408  0.1782
    1MOL   C250  250   3.745   4.352   7.173 -0.2163 -0.3098  0.8676
    1MOL   C251  251   3.836   4.231   7.212  0.0598  0.2862 -0.2341
    1MOL   O252  252   3.870   4.222   7.328 -0.5226  0.0262 -0.0683
    1MOL   H253  253   4.588   4.372   6.664  0.1572  0.7295  0.9720
    1MOL   H254  254   4.805   4.315   6.834  0.5789 -3.0717 -0.8404
    1MOL   H255  255   4.672   4.201   6.863  2.5268 -0.3371  0.7917
    1MOL   H256  256   4.625   4.505   6.866 -1.1626 -0.2281 -0.6806
    1MOL   H257  257   4.631   4.394   7.005 -0.4981  0.3228  0.1950
    1MOL   H258  258   4.446   4.387   6.776  1.6418 -1.9302 -0.1164
    1MOL   H259  259   4.442   4.275   6.910  0.2531  0.1699  1.3283
    1MOL   H260  260   4.413   4.579   6.939  0.3693  0.3273 -0.7837
    1MOL   H261  261   4.380   4.455   7.055  0.9173 -0.7066 -0.7830
    1MOL   H262  262   4.188   4.376   6.911 -2.1646  0.1734  0.1243
    1MOL   H263  263   4.202   4.524   6.820  2.1074  0.7708  0.1403
    1MOL   H264  264   4.131   4.525   7.114 -0.0101 -1.4079 -0.8921
    1MOL   H265  265   4.183   4.665   7.017  0.8975 -0.4219 -1.6584
    1MOL   H266  266   3.983   4.646   6.874  0.0723 -0.5149  0.9489
    1MOL   H267  267   3.941   4.662   7.033  0.0894 -0.2854  0.0483
    1MOL   H268  268   3.832   4.450   6.900 -3.0074  0.8205  1.7336
    1MOL   H269  269   3.971   4.383   6.991  1.8914  0.9247 -0.5772
    1MOL   H270  270   3.746   4.559   7.112 -0.5808 -0.1761  1.9087
    1MOL   H271  271   3.890   4.523   7.196 -0.5133 -0.7512  1.7629
    1MOL   H272  272   3.674   4.325   7.094  1.5445 -2.1509 -0.1521
    1MOL   H273  273   3.694   4.382   7.264  0.2668  0.2471  0.9603
    1MOL   N274  274   3.877   4.152   7.112 -0.1426 -0.1291  0.5155
    1MOL   C275  275   3.952   4.031   7.134 -0.1987  0.1447  0.0662
    1MOL   C276  276   4.111   4.050   7.130  0.2512 -0.2632  0.3358
    1MOL   C277  277   4.168   4.159   7.228 -0.4491  0.2730  0.5504
    1MOL   C278  278   4.319   4.185   7.207  0.5070 -0.4856  0.3610
    1MOL   C279  279   4.403   4.068   7.265  0.3135  0.2603  0.2336
    1MOL   C280  280   4.544   4.077   7.203  0.4968 -0.6873 -0.0101
    1MOL   C281  281   4.650   3.981   7.272  0.0423  0.0197 -0.2007
    1MOL   C282  282   4.780   4.016   7.194  0.3237 -0.2991  0.0312
    1MOL   C283  283   4.799   3.937   7.060 -0.6350  0.6048  0.5866
    1MOL   C284  284   4.938   3.981   7.010  0.7274 -0.3698  0.3680
    1MOL   C285  285   4.998   3.894   6.901  0.4566 -0.0584 -0.5528
    1MOL   O286  286   4.998   3.771   6.902 -0.2541  0.6808 -0.5127
    1MOL   H287  287   3.850   4.172   7.017 -2.0187  2.2344  1.4898
    1MOL   H288  288   3.926   3.957   7.058 -0.8173 -1.7725  2.0951
    1MOL   H289  289   3.935   3.987   7.232 -0.6749  1.2915  0.5102
    1MOL   H290  290   4.132   4.073   7.026 -0.3526 -1.8334 -0.1542
    1MOL   H291  291   4.156   3.953   7.152 -0.1705 -0.7082 -0.7050
    1MOL   H292  292   4.118   4.249   7.190  1.0914  0.1293 -1.9707
    1MOL   H293  293   4.131   4.128   7.325 -1.2834 -1.8502 -0.4287
    1MOL   H294  294   4.351   4.280   7.250  0.8592 -0.9688  1.1886
    1MOL   H295  295   4.339   4.201   7.101 -1.3404  1.9888  0.3425
    1MOL   H296  296   4.355   3.974   7.241 -0.2654  0.4428  0.6724
    1MOL   H297  297   4.413   4.078   7.373 -0.2196  2.3899  0.1148
    1MOL   H298  298   4.549   4.068   7.095 -0.1411 -0.7071 -0.0409
    1MOL   H299  299   4.583   4.175   7.230  0.7842 -1.1877  1.4510
    1MOL   H300  300   4.621   3.877   7.261  1.8953 -0.5983  0.6367
    1MOL   H301  301   4.652   3.991   7.380 -1.2376  0.8658 -0.2481
    1MOL   H302  302   4.791   4.123   7.178  0.0297 -0.5263 -1.7623
    1MOL   H303  303   4.867   4.005   7.260  2.7978 -0.7895 -3.1926
    1MOL   H304  304   4.712   3.955   6.998  0.2246  0.3876 -0.6903
    1MOL   H305  305   4.799   3.830   7.080  1.3527  0.9423  2.6198
    1MOL   H306  306   5.007   3.976   7.094  0.5796 -0.5090  0.4789
    1MOL   H307  307   4.938   4.086   6.978 -0.6579 -0.5916 -0.3940
    1MOL   N308  308   5.045   3.973   6.802 -0.4391 -0.2164 -0.5963
    1MOL   C309  309   5.122   3.932   6.688 -0.1906 -0.1885  1.0295
    1MOL   C310  310   5.023   3.891   6.579 -0.0028 -0.5520  0.3705
    1MOL   C311  311   5.094   3.816   6.461  0.6199 -0.1738 -0.5171
    1MOL   C312  312   5.180   3.925   6.384 -0.4636  0.0103  0.2570
    1MOL   C313  313   5.199   3.888   6.236 -0.1441 -0.0901  0.2117
    1MOL   C314  314   5.250   4.015   6.162  0.3393 -0.1711 -0.5620
    1MOL   C315  315   5.393   4.044   6.184  0.2913  0.4264  0.3246
    1MOL   C316  316   5.432   4.158   6.087  0.0902  0.0152  0.4429
    1MOL   C317  317   5.449   4.117   5.940  0.9000  0.3123 -0.3999
    1MOL   C318  318   5.502   4.229   5.853  0.4428 -0.2418 -0.4059
    1MOL   C319  319   5.649   4.270   5.869  0.7439 -0.0560 -0.3325
    1MOL   O320  320   5.733   4.187   5.900 -0.1438 -0.2660  0.8719
    1MOL   H321  321   5.038   4.074   6.806 -2.1585 -0.3681  0.5385
    1MOL   H322  322   5.184   3.844   6.703 -1.7662 -1.4509  0.2175
    1MOL   H323  323   5.175   4.013   6.637 -2.0491  1.6925  1.9899
    1MOL   H324  324   4.977   3.980   6.538 -1.9090 -1.8171 -0.2896
    1MOL   H325  325   4.940   3.830   6.615 -0.0176 -0.2173  0.9194
    1MOL   H326  326   5.154   3.729   6.487  0.2263 -1.0090 -2.3557
    1MOL   H327  327   5.025   3.789   6.381 -0.3387 -1.4618  0.7292
    1MOL   H328  328   5.265   3.966   6.439 -0.7547  0.0542  0.6790
    1MOL   H329  329   5.112   4.010   6.378  0.6665  0.8410 -1.1628
    1MOL   H330  330   5.107   3.848   6.195  1.0306 -1.1416 -1.4881
    1MOL   H331  331   5.275   3.812   6.218  0.9611  1.1972 -0.7005
    1MOL   H332  332   5.218   4.002   6.059 -0.6746 -0.9349 -0.1613
    1MOL   H333  333   5.191   4.103   6.189  0.0209 -0.5584  0.0061
    1MOL   H334  334   5.442   3.952   6.152 -0.1593 -0.0810  1.1051
    1MOL   H335  335   5.417   4.056   6.290 -0.2731 -0.2273  0.5279
    1MOL   H336  336   5.354   4.234   6.087 -0.3834 -0.4179 -1.8462
    1MOL   H337  337   5.516   4.209   6.133 -0.4583  0.4799  0.9257
    1MOL   H338  338   5.355   4.085   5.896 -0.1814  0.3226  1.8576
    1MOL   H339  339   5.516   4.031   5.931 -0.2382 -0.5908 -0.3399
    1MOL   H340  340   5.436   4.316   5.850  2.7750  1.6002 -0.3773
    1MOL   H341  341   5.505   4.202   5.747  1.8463  1.1410 -0.7372
    1MOL   N342  342   5.687   4.400   5.848 -0.3937 -0.4853  0.5603
    1MOL   C343  343   5.605   4.512   5.800  0.1810  0.0646  0.1790
    1MOL   C344  344   5.567   4.599   5.923  0.0386  0.1402  0.4928
    1MOL   C345  345   5.491   4.525   6.026  0.2129  0.8393 -0.2301
    1MOL   C346  346   5.458   4.613   6.147 -0.1508  0.1930  0.6519
    1MOL   C347  347   5.382   4.537   6.251  0.6213  0.5419  0.0462
    1MOL   C348  348   5.235   4.511   6.225  0.3025  0.0584  0.2873
    1MOL   C349  349   5.169   4.483   6.366 -0.3294 -0.3603 -0.2084
    1MOL   C350  350   5.207   4.351   6.432  0.3657 -0.3453 -0.4294
    1MOL   C351  351   5.127   4.343   6.566  0.0338  0.0861 -0.5371
    1MOL   C352  352   5.164   4.436   6.692  0.0169  0.3062  0.1404
    1MOL   C353  353   5.086   4.390   6.819 -0.4770  0.0606 -0.1615
    1MOL   O354  354   5.065   4.267   6.834 -0.4430 -0.0542 -0.7379
    1MOL   H355  355   5.788   4.409   5.843 -0.4361  0.5007  1.3317
    1MOL   H356  356   5.673   4.569   5.738 -0.6697  1.3994  0.4503
    1MOL   H357  357   5.520   4.481   5.739  1.9529 -1.1428 -1.7596
    1MOL   H358  358   5.510   4.686   5.889 -1.3697 -1.1421 -0.4924
    1MOL   H359  359   5.648   4.648   5.976  1.2566 -0.1154 -1.0862
    1MOL   H360  360   5.401   4.482   5.982  1.3181 -0.5346 -1.1813
    1MOL   H361  361   5.560   4.449   6.061  0.1677  0.6868 -0.4748
    1MOL   H362  362   5.411   4.707   6.119  1.4343  0.2467 -2.0541
    1MOL   H363  363   5.556   4.648   6.179  1.1268 -1.2308 -1.5934
    1MOL   H364  364   5.378   4.600   6.340 -0.6916  0.8993 -0.2380
    1MOL   H365  365   5.436   4.447   6.276 -0.7934 -0.1082  0.8231
    1MOL   H366  366   5.196   4.601   6.178  0.5656 -0.6843 -1.3877
    1MOL   H367  367   5.226   4.430   6.153 -0.8427 -1.1032  1.7074
    1MOL   H368  368   5.063   4.492   6.344 -0.6733  0.5836  1.7997
    1MOL   H369  369   5.188   4.566   6.434 -0.7868  0.2213 -0.7755
    1MOL   H370  370   5.170   4.268   6.372 -0.9111 -0.2043  0.1594
    1MOL   H371  371   5.314   4.345   6.452  0.0036  0.2747  1.7993
    1MOL   H372  372   5.137   4.239   6.598  1.0891  0.6757  1.0889
    1MOL   H373  373   5.023   4.369   6.544  0.2439  2.0328  0.6207
    1MOL   H374  374   5.160   4.542   6.668 -0.6764  0.7999  2.2752
    1MOL   H375  375   5.269   4.412   6.714 -0.5251 -2.2868  0.1337
    1MOL   N376  376   5.037   4.476   6.905 -0.1451 -0.6291 -0.0764
    1MOL   C377  377   4.968   4.443   7.024 -0.3256  0.9568 -0.2026
    1MOL   C378  378   5.015   4.540   7.131 -0.0365 -0.3593 -0.0376
    1MOL   C379  379   4.947   4.537   7.270 -0.0453 -0.1218  0.3241
    1MOL   C380  380   5.030   4.568   7.395 -0.3605 -0.4012 -0.5856
    1MOL   C381  381   5.094   4.713   7.407 -0.2296 -0.1503  0.4823
    1MOL   C382  382   5.002   4.822   7.363  0.2718 -0.3466  0.6029
    1MOL   C383  383   5.057   4.968   7.367  1.1280 -0.4261  0.6954
    1MOL   C384  384   4.976   5.082   7.297  0.5748  0.4989 -0.2089
    1MOL   C385  385   4.838   5.102   7.368  0.7335 -0.2880  0.1581
    1MOL   C386  386   4.780   5.244   7.367 -0.0546 -0.0261 -0.6246
    1MOL   C387  387   4.698   5.282   7.243 -0.9167  0.1655  0.1433
    1MOL   O388  388   4.745   5.271   7.134  0.4529 -0.2478 -0.7083
    1MOL   H389  389   5.051   4.571   6.875 -0.2283 -1.0959 -1.6242
    1MOL   H390  390   4.859   4.450   7.019 -0.4189 -0.2267  0.0957
    1MOL   H391  391   4.996   4.346   7.063 -3.4320  0.1970  0.3184
    1MOL   H392  392   5.010   4.640   7.089 -0.8025 -1.1667 -1.9142
    1MOL   H393  393   5.118   4.507   7.144  0.2532  0.1572 -0.9847
    1MOL   H394  394   4.853   4.592   7.269 -0.1663 -0.2878  1.6379
    1MOL   H395  395   4.926   4.430   7.282  0.8448 -0.4278 -0.6679
    1MOL   H396  396   5.110   4.494   7.404 -0.2563 -0.2130  0.0690
    1MOL   H397  397   4.969   4.546   7.483  0.2605 -0.4989 -0.1773
    1MOL   H398  398   5.176   4.711   7.336 -0.4335  1.5146  0.1650
    1MOL   H399  399   5.136   4.726   7.507 -3.0964  1.4218  1.5553
    1MOL   H400  400   4.962   4.805   7.263  0.7033 -0.1199  0.3899
    1MOL   H401  401   4.910   4.823   7.421  0.6121  0.2948  1.1298
    1MOL   H402  402   5.157   4.967   7.324  1.2744 -0.1607  1.0279
    1MOL   H403  403   5.063   4.984   7.474 -1.3704 -0.3428  0.8510
    1MOL   H404  404   5.025   5.179   7.297  1.6424 -0.0340  1.3675
    1MOL   H405  405   4.968   5.048   7.194  1.2800  0.2720 -0.1887
    1MOL   H406  406   4.864   5.106   7.474 -3.4592  0.5833  1.2367
    1MOL   H407  407   4.766   5.021   7.357  0.7199 -0.0411 -1.7131
    1MOL   H408  408   4.863   5.316   7.363  0.4903 -0.6192 -0.1716
    1MOL   H409  409   4.719   5.268   7.454  0.4178  0.7478 -0.5015
    1MOL   N410  410   4.573   5.317   7.266  0.7414  0.4753  0.4003
    1MOL   C411  411   4.482   5.367   7.170 -1.1062  0.0116  0.4116
    1MOL   C412  412   4.341   5.400   7.231 -0.0329 -0.8838 -0.4936
    1MOL   C413  413   4.257   5.272   7.277 -0.0646  0.2657 -0.0322
    1MOL   C414  414   4.110   5.309   7.302  0.9125  0.3753  0.3697
    1MOL   C415  415   4.044   5.177   7.342 -0.0461 -0.3202 -0.3029
    1MOL   C416  416   3.897   5.187   7.387  0.0930  0.5888 -0.9760
    1MOL   C417  417   3.829   5.050   7.387  0.6226 -0.6300 -0.9190
    1MOL   C418  418   3.674   5.051   7.421  0.3063  0.5492  0.1282
    1MOL   C419  419   3.602   4.924   7.390 -0.7933  0.0959  0.1949
    1MOL   C420  420   3.638   4.807   7.486 -0.4060 -0.1201 -0.9750
    1MOL   C421  421   3.758   4.725   7.447 -0.3024  0.3623 -0.5268
    1MOL   O422  422   3.752   4.661   7.347 -0.4104 -0.3281 -0.4830
    1MOL   H423  423   4.536   5.314   7.360  1.0385  1.3800  0.5489
    1MOL   H424  424   4.524   5.461   7.135 -0.8441 -0.2204  0.0994
    1MOL   H425  425   4.471   5.306   7.081  0.6140  0.5769 -0.2160
    1MOL   H426  426   4.280   5.455   7.160  0.5820 -0.8728 -1.0177
    1MOL   H427  427   4.367   5.460   7.319  1.3625 -0.3871 -1.2249
    1MOL   H428  428   4.256   5.207   7.190 -0.6380  2.0909 -1.4226
    1MOL   H429  429   4.312   5.218   7.355  2.0800 -0.9110 -2.2838
    1MOL   H430  430   4.055   5.341   7.213 -0.1845 -0.9689  0.5657
    1MOL   H431  431   4.099   5.387   7.378  0.2478  0.8573 -0.2182
    1MOL   H432  432   4.087   5.124   7.426  0.4012 -1.5760 -1.3097
    1MOL   H433  433   4.047   5.105   7.261  1.4691 -0.3251 -0.2622
    1MOL   H434  434   3.896   5.223   7.490 -1.1957 -1.8260 -0.1170
    1MOL   H435  435   3.836   5.253   7.326 -0.2152  0.1673 -1.1247
    1MOL   H436  436   3.872   4.985   7.464 -1.3686 -1.9790 -0.8998
    1MOL   H437  437   3.845   5.002   7.291  1.6890  0.1202 -1.1214
    1MOL   H438  438   3.650   5.097   7.517  1.9811  0.3652  0.6426
    1MOL   H439  439   3.640   5.124   7.347 -1.8046  0.7680  1.2513
    1MOL   H440  440   3.606   4.905   7.282 -1.2352 -1.1831  0.4006
    1MOL   H441  441   3.494   4.939   7.394 -0.9740 -0.8238 -1.0370
    1MOL   H442  442   3.555   4.736   7.488 -1.3281  0.9762  1.3625
    1MOL   H443  443   3.649   4.842   7.589  0.3750 -1.6608 -0.5291
    1MOL   N444  444   3.864   4.716   7.536 -0.2064 -0.1444 -0.0914
    1MOL   C445  445   3.996   4.668   7.498 -0.1585 -0.2150 -0.1334
    1MOL   C446  446   4.089   4.786   7.461 -0.1586  0.5743  0.4780
    1MOL   C447  447   4.222   4.743   7.399 -0.4127  0.2924 -0.3404
    1MOL   C448  448   4.290   4.853   7.316 -0.2728 -0.4521 -0.0418
    1MOL   C449  449   4.422   4.803   7.263 -0.8323  0.2528 -0.3612
    1MOL   C450  450   4.491   4.903   7.169 -0.4924 -0.5651 -0.2305
    1MOL   C451  451   4.621   4.847   7.108  0.3430 -0.0893  0.5964
    1MOL   C452  452   4.679   4.943   7.015  0.4217  0.0108  1.0003
    1MOL   C453  453   4.794   4.869   6.944  0.9639  0.8101 -0.4879
    1MOL   C454  454   4.891   4.952   6.858  0.1967 -0.0413 -0.3800
    1MOL   C455  455   4.996   4.867   6.784 -0.1288 -0.1021  0.2251
    1MOL   O456  456   5.025   4.755   6.820  0.1259  0.2076 -0.4372
    1MOL   H457  457   3.858   4.782   7.612  1.1767  0.0669 -0.1620
    1MOL   H458  458   4.039   4.608   7.578 -0.7844 -0.3534  0.0990
    1MOL   H459  459   3.983   4.612   7.405  2.1820  2.9708 -2.4802
    1MOL   H460  460   4.111   4.842   7.552  0.1584  0.1896  0.6362
    1MOL   H461  461   4.033   4.842   7.386 -0.7810 -1.7397 -0.8197
    1MOL   H462  462   4.279   4.706   7.484 -0.3948 -0.7769 -0.8000
    1MOL   H463  463   4.201   4.660   7.330  0.2100 -1.1157  1.1262
    1MOL   H464  464   4.316   4.936   7.382 -0.2866  1.2041 -2.0772
    1MOL   H465  465   4.224   4.885   7.236  2.2284  0.7802 -1.6759
    1MOL   H466  466   4.419   4.711   7.204  0.2345  0.4910 -0.7944
    1MOL   H467  467   4.491   4.782   7.345 -0.7623  2.1043  0.0668
    1MOL   H468  468   4.416   4.926   7.093 -2.8810 -1.0319  1.9024
    1MOL   H469  469   4.508   5.001   7.214  1.6347 -0.4655 -1.1942
    1MOL   H470  470   4.606   4.751   7.058 -1.5466  0.3252  0.3252
    1MOL   H471  471   4.691   4.824   7.188 -0.5946  1.5417  1.9360
    1MOL   H472  472   4.612   4.981   6.938 -0.4745  0.2877  1.9020
    1MOL   H473  473   4.722   5.022   7.076 -1.0636 -0.8648  3.2173
    1MOL   H474  474   4.739   4.794   6.887  1.7196  1.1268 -1.6604
    1MOL   H475  475   4.852   4.815   7.019 -1.1248  0.4494  0.8851
    1MOL   H476  476   4.946   5.029   6.913  0.4547 -0.2336 -0.3674
    1MOL   H477  477   4.829   5.011   6.790 -3.4761 -1.6961  1.3862
    1MOL   N478  478   5.058   4.940   6.690 -0.0957  0.0024  0.3077
    1MOL   C479  479   5.142   4.884   6.581 -0.0910 -0.8208  0.2141
    1MOL   C480  480   5.107   4.953   6.448 -0.1713  0.0069  0.3782
    1MOL   C481  481   5.197   4.903   6.332 -0.4595  0.3175 -0.0601
    1MOL   C482  482   5.198   4.984   6.206  0.4559  0.8071 -0.3555
    1MOL   C483  483   5.074   4.968   6.120  0.0132  0.1656  0.1173
    1MOL   C484  484   5.079   5.056   5.994 -0.2841 -0.4850  0.1898
    1MOL   C485  485   5.193   5.028   5.896  0.1830 -0.1878 -0.6488
    1MOL   C486  486   5.192   4.890   5.832 -0.7406  0.3385 -0.0762
    1MOL   C487  487   5.294   4.864   5.718 -0.3278  0.3101  0.0952
    1MOL   C488  488   5.267   4.732   5.653 -0.1556  0.6904  0.4312
    1MOL   C489  489   5.358   4.698   5.537 -0.9878 -0.5343 -0.6085
    1MOL   O490  490   5.471   4.750   5.527 -0.3895 -0.4630 -0.2163
    1MOL   H491  491   5.034   5.038   6.685 -1.2135 -0.2564  0.5673
    1MOL   H492  492   5.249   4.895   6.600 -0.2296 -1.1873  1.2214
    1MOL   H493  493   5.103   4.782   6.581 -2.4113  0.0289 -0.9059
    1MOL   H494  494   5.121   5.060   6.462 -1.6502  0.2559 -0.0004
    1MOL   H495  495   5.004   4.943   6.414 -0.1754 -0.9326  0.6591
    1MOL   H496  496   5.300   4.914   6.367 -0.1955 -0.5988 -0.5171
    1MOL   H497  497   5.183   4.795   6.323  0.3555  0.1613  0.4445
    1MOL   H498  498   5.293   4.972   6.154  1.5803 -2.4769  2.2115
    1MOL   H499  499   5.201   5.092   6.212 -1.6002  0.7681  2.1950
    1MOL   H500  500   4.993   4.990   6.190  0.5700 -1.4622  1.3199
    1MOL   H501  501   5.050   4.867   6.088 -0.5963  0.4345 -0.2830
    1MOL   H502  502   4.989   5.044   5.934  0.7728  0.2544 -1.5886
    1MOL   H503  503   5.074   5.162   6.021  0.0056 -0.2684 -0.5970
    1MOL   H504  504   5.290   5.049   5.940  0.3778  0.1828 -1.2532
    1MOL   H505  505   5.176   5.103   5.819 -1.5636 -0.1476 -0.2507
    1MOL   H506  506   5.210   4.811   5.905  0.9154  0.4256 -0.3653
    1MOL   H507  507   5.095   4.866   5.788 -0.3935  1.1038 -1.2760
    1MOL   H508  508   5.399   4.851   5.744 -0.4920  0.8752  1.0205
    1MOL   H509  509   5.293   4.933   5.634 -0.6981  0.7766  0.4860
    1MOL   H510  510   5.162   4.726   5.622 -0.0259  1.0130 -0.0680
    1MOL   H511  511   5.290   4.650   5.721  0.6441  0.7803  0.2735
    1MOL   N512  512   5.308   4.611   5.444  0.2957  0.5254  0.4181
    1MOL   C513  513   5.376   4.550   5.334  0.5173  0.5025 -0.2831
    1MOL   C514  514   5.276   4.464   5.248  0.4149  0.4149 -0.4311
    1MOL   C515  515   5.192   4.367   5.333  0.6346  0.1972  0.0553
    1MOL   C516  516   5.112   4.270   5.253  0.1958  0.1372  0.0398
    1MOL   C517  517   4.997   4.209   5.324  0.0593 -0.1053  0.2478
    1MOL   C518  518   4.928   4.101   5.236 -0.4978 -0.4645 -0.4257
    1MOL   C519  519   4.838   4.146   5.113  0.6668 -0.4545 -0.1746
    1MOL   C520  520   4.774   4.013   5.059 -0.5462 -0.3670  0.0152
    1MOL   C521  521   4.851   3.943   4.953 -0.0086 -0.4630  0.6236
    1MOL   C522  522   4.789   3.803   4.925 -0.5170 -0.1575  0.1552
    1MOL   C523  523   4.880   3.725   4.828  0.5113  0.3557 -0.7499
    1MOL   O524  524   4.995   3.761   4.795  0.5308  0.5004 -0.1631
    1MOL   H525  525   5.208   4.599   5.453  0.4061  0.8574  2.3137
    1MOL   H526  526   5.423   4.631   5.278  1.9871  0.1995  0.4785
    1MOL   H527  527   5.459   4.487   5.365  1.4080  0.5718 -2.4398
    1MOL   H528  528   5.335   4.421   5.167 -0.3269 -2.5807  0.5496
    1MOL   H529  529   5.209   4.532   5.196 -1.4070 -0.7982  0.3028
    1MOL   H530  530   5.261   4.319   5.403 -0.8403  0.6596  1.8545
    1MOL   H531  531   5.118   4.423   5.391  1.3723  0.2935  0.9205
    1MOL   H532  532   5.186   4.194   5.229 -0.8265 -0.4179 -1.4644
    1MOL   H533  533   5.079   4.320   5.162 -0.9342  2.2767  1.5661
    1MOL   H534  534   4.921   4.279   5.360  0.5196  0.9536 -0.8346
    1MOL   H535  535   5.038   4.163   5.414 -0.8191  0.3010  0.8636
    1MOL   H536  536   5.003   4.032   5.200  1.3873  1.1326  0.3512
    1MOL   H537  537   4.861   4.045   5.302  1.3954 -1.3872  0.7394
    1MOL   H538  538   4.892   4.197   5.033 -0.7089 -0.9487 -1.4614
    1MOL   H539  539   4.762   4.208   5.160  1.3798 -0.2429  0.7014
    1MOL   H540  540   4.747   3.944   5.139 -3.5641 -0.7350 -1.2318
    1MOL   H541  541   4.672   4.034   5.025 -0.7869  0.5994  1.2735
    1MOL   H542  542   4.958   3.945   4.973  1.1130  1.1616 -4.6532
    1MOL   H543  543   4.854   4.004   4.863 -1.7614 -0.8351  0.3009
    1MOL   H544  544   4.695   3.818   4.872 -1.4865 -0.9303  1.6164
    1MOL   H545  545   4.776   3.747   5.017  0.4365  1.6608  1.4266
    1MOL   N546  546   4.819   3.624   4.763 -0.2985 -0.0277  0.1607
    1MOL   C547  547   4.865   3.559   4.644  0.5618  0.2104 -0.0793
    1MOL   C548  548   4.742   3.532   4.550  0.2408 -0.2666  0.8458
    1MOL   C549  549   4.659   3.408   4.574 -0.7473  0.4476 -0.0195
    1MOL   C550  550   4.530   3.407   4.494  0.0477  0.8802  0.5321
    1MOL   C551  551   4.414   3.495   4.555  0.0186  0.3183 -0.3558
    1MOL   C552  552   4.332   3.419   4.662  0.0429 -0.1785  1.1419
    1MOL   C553  553   4.231   3.506   4.729  0.2949 -0.0308 -0.0002
    1MOL   C554  554   4.134   3.439   4.826 -0.3878  0.6382 -0.0854
    1MOL   C555  555   4.021   3.538   4.871  0.5019 -0.2646 -0.4161
    1MOL   C556  556   3.881   3.495   4.815 -0.1186  0.6170  0.5621
    1MOL   C557  557   3.828   3.363   4.873 -0.1495  0.2503 -0.0732
    1MOL   O558  558   3.799   3.356   4.992 -0.6015 -0.0149  0.0079
    1MOL   H559  559   4.726   3.601   4.796 -0.3978  0.9435  0.5923
    1MOL   H560  560   4.949   3.615   4.603 -0.2635  1.6492  0.1770
    1MOL   H561  561   4.896   3.461   4.681 -0.0133 -0.1336 -0.5009
    1MOL   H562  562   4.781   3.530   4.449  0.6955 -1.2670  1.0343
    1MOL   H563  563   4.673   3.616   4.547  0.1881 -0.3605 -1.4229
    1MOL   H564  564   4.716   3.320   4.545 -0.5473  0.1044  1.3672
    1MOL   H565  565   4.636   3.400   4.680 -2.6680 -1.3952 -0.5310
    1MOL   H566  566   4.485   3.309   4.475  1.1472 -0.0224  2.4651
    1MOL   H567  567   4.551   3.447   4.395 -0.0193 -1.9446 -0.6838
    1MOL   H568  568   4.349   3.511   4.468  0.2401  1.2659 -0.3441
    1MOL   H569  569   4.459   3.585   4.596 -1.1249  0.7164  0.0437
    1MOL   H570  570   4.285   3.329   4.623 -0.2826  1.6630 -2.9508
    1MOL   H571  571   4.402   3.395   4.742  1.9350  1.5455  0.0463
    1MOL   H572  572   4.169   3.564   4.660  1.6113  1.1358 -0.2285
    1MOL   H573  573   4.284   3.586   4.781  0.3314 -0.2749  0.3321
    1MOL   H574  574   4.089   3.349   4.783  0.9036  1.0560 -2.3990
    1MOL   H575  575   4.189   3.409   4.915  0.7157  0.4464 -0.8297
    1MOL   H576  576   4.038   3.643   4.845 -0.1220  0.2579  1.2718
    1MOL   H577  577   4.018   3.540   4.979  3.5413  2.0772 -0.2910
    1MOL   H578  578   3.879   3.496   4.706 -0.3949 -2.0348  0.5067
    1MOL   H579  579   3.798   3.561   4.843 -0.9680  0.3587 -1.2957
    1MOL   N580  580   3.805   3.264   4.793 -0.0586  0.2531  0.0384
    1MOL   C581  581   3.770   3.130   4.840 -0.2580  0.5271 -0.7662
    1MOL   C582  582   3.890   3.051   4.888 -0.2158  0.6533 -0.4532
    1MOL   C583  583   3.838   2.910   4.913  0.1345  0.3274 -0.6490
    1MOL   C584  584   3.943   2.808   4.934  0.4715  0.4757  0.3785
    1MOL   C585  585   4.027   2.809   5.068 -0.7527 -0.1118 -0.5861
    1MOL   C586  586   4.149   2.717   5.067  0.2390  0.1328 -0.3122
    1MOL   C587  587   4.109   2.578   5.104  0.4030 -0.8602  0.0895
    1MOL   C588  588   4.225   2.483   5.131 -0.6604  0.7360 -0.1722
    1MOL   C589  589   4.300   2.443   5.000  0.7450 -0.4890 -0.7130
    1MOL   C590  590   4.438   2.388   5.028  0.5715 -0.0075  0.3145
    1MOL   C591  591   4.558   2.478   5.019  0.3016  0.1907  0.2954
    1MOL   O592  592   4.575   2.549   4.922 -0.1035  0.3152 -0.0408
    1MOL   H593  593   3.819   3.275   4.693 -2.3525 -2.1353 -0.5841
    1MOL   H594  594   3.689   3.149   4.910 -1.3404 -0.6270 -1.6946
    1MOL   H595  595   3.726   3.081   4.753  0.9743 -0.5643 -0.7846
    1MOL   H596  596   3.926   3.106   4.975 -0.7303  1.4170 -0.7167
    1MOL   H597  597   3.957   3.064   4.803  1.6571  3.0691  1.2839
    1MOL   H598  598   3.778   2.909   5.004  1.5407  2.6178  0.3361
    1MOL   H599  599   3.773   2.875   4.833  0.2957 -0.9531 -0.2471
    1MOL   H600  600   4.005   2.811   4.844  0.5006 -0.9013  0.3336
    1MOL   H601  601   3.897   2.709   4.931  0.0372  0.5561  2.9552
    1MOL   H602  602   3.959   2.793   5.152  1.0571 -1.7039  0.6114
    1MOL   H603  603   4.059   2.913   5.082 -0.3585 -0.4550  1.1906
    1MOL   H604  604   4.185   2.722   4.964 -0.6595 -1.0283 -0.6964
    1MOL   H605  605   4.228   2.753   5.132  1.9230 -2.2316 -0.9909
    1MOL   H606  606   4.038   2.532   5.036 -1.1505 -1.9381  2.3902
    1MOL   H607  607   4.061   2.580   5.201  0.0907 -5.2345  0.1338
    1MOL   H608  608   4.293   2.510   5.211  0.1817  0.1354 -0.6666
    1MOL   H609  609   4.188   2.389   5.172 -0.5698  2.3457  3.7616
    1MOL   H610  610   4.295   2.521   4.924 -0.1211 -1.9577 -2.1886
    1MOL   H611  611   4.239   2.370   4.947 -1.4977 -0.0464  1.1763
    1MOL   H612  612   4.451   2.317   4.947  3.2798  0.3788  0.3731
    1MOL   H613  613   4.440   2.314   5.108 -0.0720 -1.5771 -1.0972
    1MOL   N614  614   4.631   2.488   5.127 -0.3579  0.6617 -0.2009
    1MOL   C615  615   4.750   2.567   5.150 -0.3536  0.0228  0.5885
    1MOL   C616  616   4.744   2.713   5.111 -0.7770 -0.5424 -0.2714
    1MOL   C617  617   4.876   2.785   5.153  0.3802  0.0890  0.2684
    1MOL   C618  618   4.849   2.938   5.132 -0.4711  0.4794 -0.4451
    1MOL   C619  619   4.972   3.022   5.169 -0.4816 -0.1190 -0.9032
    1MOL   C620  620   4.999   3.035   5.317 -0.0846 -0.6463  0.0092
    1MOL   C621  621   4.938   3.165   5.365 -0.1479  0.5736 -0.0356
    1MOL   C622  622   4.790   3.183   5.351 -0.0229 -0.3131 -0.0567
    1MOL   C623  623   4.733   3.295   5.445  0.0405 -0.2268  0.8986
    1MOL   C624  624   4.585   3.278   5.483  0.1258  0.8600  0.2926
    1MOL   C625  625   4.491   3.294   5.367 -0.3304 -0.2945 -0.3916
    1MOL   O626  626   4.466   3.406   5.331 -0.3050  0.2182 -0.1281
    1MOL   H627  627   4.599   2.442   5.211  0.8654  1.4863  0.7200
    1MOL   H628  628   4.820   2.517   5.083 -0.7613  0.3554 -0.1013
    1MOL   H629  629   4.794   2.548   5.248  0.5739 -0.3390  0.1142
    1MOL   H630  630   4.654   2.766   5.143  0.5092  0.6822  1.3717
    1MOL   H631  631   4.722   2.728   5.005  1.8154  1.2574 -0.6016
    1MOL   H632  632   4.893   2.759   5.257 -1.7595 -1.5110  0.2655
    1MOL   H633  633   4.962   2.757   5.092  0.0250 -0.2307 -0.0898
    1MOL   H634  634   4.757   2.964   5.184 -0.6518  2.1632 -1.5504
    1MOL   H635  635   4.816   2.963   5.031 -0.2151  1.0345 -0.3918
    1MOL   H636  636   4.968   3.111   5.106 -2.1467 -0.2040 -0.9387
    1MOL   H637  637   5.061   2.973   5.130  0.3870 -0.1213  1.0143
    1MOL   H638  638   4.961   2.961   5.387  1.0919 -1.6264 -0.3783
    1MOL   H639  639   5.107   3.037   5.330  0.0118 -0.9557 -0.7162
    1MOL   H640  640   4.989   3.246   5.313 -1.2821  1.9195  0.8888
    1MOL   H641  641   4.966   3.188   5.468  2.6905 -0.9275 -0.4298
    1MOL   H642  642   4.767   3.203   5.246  1.3321 -0.1701 -0.3256
    1MOL   H643  643   4.748   3.084   5.368 -1.8516  0.9318  3.2443
    1MOL   H644  644   4.746   3.392   5.397 -1.3770 -0.3873  0.1617
    1MOL   H645  645   4.790   3.299   5.537 -0.2428  1.0294  1.0379
    1MOL   H646  646   4.548   3.335   5.568  0.1854  0.6334  0.4697
    1MOL   H647  647   4.578   3.173   5.510  1.7506  0.8189  0.5965
    1MOL   N648  648   4.409   3.194   5.341  0.1803  0.7585  0.5426
    1MOL   C649  649   4.276   3.201   5.277  0.4019  0.0566 -0.1193
    1MOL   C650  650   4.284   3.154   5.133  0.4689  0.9047 -0.2696
    1MOL   C651  651   4.367   3.024   5.111  0.3815  0.1676  0.2600
    1MOL   C652  652   4.367   2.971   4.970  0.1232 -0.0355  0.1408
    1MOL   C653  653   4.461   3.041   4.865  0.1869  0.4123 -0.0696
    1MOL   C654  654   4.490   2.955   4.738  0.1735 -0.0655  0.1539
    1MOL   C655  655   4.557   3.039   4.629 -0.3654 -0.3686 -0.2783
    1MOL   C656  656   4.598   2.956   4.501 -0.2027 -0.3948 -0.0016
    1MOL   C657  657   4.675   3.041   4.404 -0.2335 -0.4307  0.3373
    1MOL   C658  658   4.739   2.966   4.289 -0.1532 -0.2812 -0.1250
    1MOL   C659  659   4.874   2.891   4.313 -0.0308 -0.4604  0.1581
    1MOL   O660  660   4.912   2.809   4.226  0.7276 -0.5512 -0.8640
    1MOL   H661  661   4.446   3.104   5.369  0.5440  0.8624  0.3964
    1MOL   H662  662   4.244   3.303   5.299  2.4915  0.4119  1.4387
    1MOL   H663  663   4.209   3.137   5.336 -0.5709 -0.2490 -1.5244
    1MOL   H664  664   4.326   3.232   5.069  1.6847 -0.5864 -1.3334
    1MOL   H665  665   4.180   3.140   5.105  0.6231  2.0411 -1.4840
    1MOL   H666  666   4.469   3.017   5.150  0.8992  2.8343 -0.5520
    1MOL   H667  667   4.328   2.945   5.176 -0.2595 -0.9630 -1.4722
    1MOL   H668  668   4.267   2.973   4.928  1.4673  0.9153 -3.2336
    1MOL   H669  669   4.380   2.863   4.977 -0.5468 -0.0376  1.5137
    1MOL   H670  670   4.556   3.057   4.916  0.1590  0.7566 -0.1248
    1MOL   H671  671   4.423   3.136   4.829 -0.3177  0.5905  0.9155
    1MOL   H672  672   4.550   2.871   4.773  0.3363  0.2730  0.6864
    1MOL   H673  673   4.396   2.916   4.700 -1.3819  0.1424  3.6494
    1MOL   H674  674   4.649   3.079   4.673  0.0075  1.6056 -2.6845
    1MOL   H675  675   4.500   3.129   4.604 -0.8342 -1.1049 -1.8879
    1MOL   H676  676   4.652   2.865   4.525 -2.0169 -1.3079  0.7423
    1MOL   H677  677   4.504   2.920   4.458 -0.5669  0.0314  0.4279
    1MOL   H678  678   4.738   3.101   4.469 -0.6213 -1.0861  1.3337
    1MOL   H679  679   4.616   3.121   4.362  0.8689 -0.2432 -0.8794
    1MOL   H680  680   4.760   3.042   4.214  0.2868 -1.4780 -1.2093
    1MOL   H681  681   4.668   2.903   4.236 -2.2498  1.3556  0.6853
    1MOL   H682  682   4.928   2.917   4.404 -1.8431 -2.6211  1.9239
    2MOL     N1  683   5.274   3.811   4.926 -0.3942 -0.1375 -0.2404
    2MOL     C2  684   5.286   3.950   4.921  0.3896  0.4983 -0.6916
    2MOL     C3  685   5.400   3.996   4.834  0.0205  0.0150 -0.3283
    2MOL     C4  686   5.383   4.147   4.812 -0.2990  0.1602 -0.1056
    2MOL     C5  687   5.498   4.201   4.723 -0.1150  0.9120  0.1488
    2MOL     C6  688   5.468   4.337   4.662 -0.1521  0.0068  0.2474
    2MOL     C7  689   5.370   4.332   4.547  0.3250 -0.6936  0.3550
    2MOL     C8  690   5.289   4.462   4.514  0.3686  0.1835 -0.6901
    2MOL     C9  691   5.361   4.569   4.441  0.5369  0.5040 -0.6229
    2MOL    C10  692   5.431   4.666   4.532 -0.0948  0.6484  1.0016
    2MOL    C11  693   5.534   4.759   4.460 -1.1567  0.0641  0.1418
    2MOL    C12  694   5.468   4.862   4.372  0.2484  0.6017  0.1915
    2MOL    O13  695   5.383   4.936   4.428  0.1574  0.5534  0.0772
    2MOL    H14  696   5.192   3.787   4.981  0.0685 -0.7338  0.1978
    2MOL    H15  697   5.290   3.991   5.022 -1.3748  0.7919 -0.7195
    2MOL    H16  698   5.191   3.982   4.877 -1.8049 -1.5794  2.2756
    2MOL    H17  699   5.396   3.936   4.744  0.7682 -0.2710 -0.1790
    2MOL    H18  700   5.497   3.984   4.884 -1.1231 -1.0554  1.6880
    2MOL    H19  701   5.293   4.169   4.756 -0.8032 -0.9220  0.2585
    2MOL    H20  702   5.393   4.199   4.908  1.8778  1.3267 -0.9381
    2MOL    H21  703   5.518   4.128   4.644  2.3358  0.7144  0.9277
    2MOL    H22  704   5.584   4.200   4.789  0.3036 -0.0405 -0.4007
    2MOL    H23  705   5.558   4.395   4.639 -0.6890  0.9044  0.4113
    2MOL    H24  706   5.420   4.386   4.746  1.2239 -2.5787  2.6345
    2MOL    H25  707   5.412   4.294   4.454  0.6609  2.1365 -0.7105
    2MOL    H26  708   5.282   4.271   4.570 -0.0711 -0.3647 -0.2787
    2MOL    H27  709   5.221   4.499   4.591 -0.0703 -3.9555  1.0573
    2MOL    H28  710   5.212   4.431   4.444  0.4854  2.0532 -1.6724
    2MOL    H29  711   5.432   4.529   4.369 -0.8042  0.3490 -1.9044
    2MOL    H30  712   5.289   4.617   4.375 -1.3820 -0.0986  0.9652
    2MOL    H31  713   5.489   4.603   4.600  1.5831  0.1490 -0.8641
    2MOL    H32  714   5.359   4.734   4.578 -0.8082  0.9110 -0.4750
    2MOL    H33  715   5.595   4.689   4.404 -2.1110  0.0138 -0.8609
    2MOL    H34  716   5.596   4.815   4.530 -0.2104  0.2472 -0.8354
    2MOL    H35  717   5.241   3.792   4.832 -2.0203  0.2587  0.2316
    2MOL    N36  718   5.497   4.860   4.243  0.0412  0.5732 -0.2116
    2MOL    C37  719   5.452   4.958   4.145  0.6959  0.7804  0.7369
    2MOL    C38  720   5.372   4.907   4.027  0.0708  0.1607  0.0437
    2MOL    C39  721   5.237   4.842   4.063 -0.2587  0.2582 -0.4510
    2MOL    C40  722   5.132   4.823   3.954  0.5918  1.0590 -0.0025
    2MOL    C41  723   5.002   4.776   4.024  1.0510  0.0122 -0.7015
    2MOL    C42  724   4.899   4.717   3.922  0.2780 -0.2093  0.0340
    2MOL    C43  725   4.937   4.589   3.849 -0.0759 -0.2168 -0.7245
    2MOL    C44  726   4.982   4.473   3.939  0.3809  0.5268 -0.8315
    2MOL    C45  727   4.870   4.397   4.017 -0.4111 -0.4434  0.0283
    2MOL    C46  728   4.925   4.299   4.122  0.0147 -0.5052 -0.2071
    2MOL    C47  729   5.041   4.199   4.082  0.5302  0.3300 -0.7381
    2MOL    O48  730   5.158   4.225   4.098 -0.2924  0.1957  0.1819
    2MOL    H49  731   5.561   4.788   4.214 -0.6761 -1.2843  2.6604
    2MOL    H50  732   5.391   5.042   4.180 -1.1900  0.0061 -0.5769
    2MOL    H51  733   5.545   5.001   4.109  0.0419  1.2796 -0.4091
    2MOL    H52  734   5.430   4.827   3.980  1.0080  0.7922  0.0962
    2MOL    H53  735   5.357   4.985   3.952  0.1308 -1.9518 -2.2691
    2MOL    H54  736   5.259   4.744   4.106 -2.2667 -0.6888 -1.5308
    2MOL    H55  737   5.195   4.899   4.146  0.7659  1.0490 -0.4640
    2MOL    H56  738   5.172   4.744   3.891 -1.2875 -0.1791  0.2982
    2MOL    H57  739   5.107   4.913   3.898  0.0059  0.2822 -1.0174
    2MOL    H58  740   4.956   4.859   4.078 -0.1451 -2.2393  1.8494
    2MOL    H59  741   5.012   4.702   4.103 -1.2586  0.1722 -0.2249
    2MOL    H60  742   4.803   4.698   3.969 -1.4037  0.6376 -2.9372
    2MOL    H61  743   4.880   4.800   3.853  2.3210  0.3826  0.1410
    2MOL    H62  744   5.028   4.610   3.791  0.3144 -2.8744 -1.1530
    2MOL    H63  745   4.855   4.541   3.795 -1.2664  1.6454 -0.6109
    2MOL    H64  746   5.033   4.402   3.873 -0.6560  0.1051 -1.1894
    2MOL    H65  747   5.055   4.519   4.005 -0.1494 -1.1189  0.9480
    2MOL    H66  748   4.809   4.338   3.949  0.8012 -0.9815 -0.6011
    2MOL    H67  749   4.803   4.464   4.071 -0.1513  0.9966 -1.3964
    2MOL    H68  750   4.843   4.247   4.172 -1.5539  2.2694  0.2068
    2MOL    H69  751   4.960   4.360   4.205 -3.7257  0.8533  0.4540
    2MOL    N70  752   4.992   4.091   4.017 -0.0182 -0.1777  0.5369
    2MOL    C71  753   5.069   3.988   3.956  0.0765  0.4591  0.1349
    2MOL    C72  754   5.128   4.017   3.823 -0.6563 -0.2481 -0.3594
    2MOL    C73  755   5.024   4.083   3.727 -0.3281 -0.5784 -0.4615
    2MOL    C74  756   5.064   4.107   3.578  0.5648  0.6714 -0.2851
    2MOL    C75  757   4.946   4.172   3.493  0.3504 -0.1920  0.4271
    2MOL    C76  758   4.889   4.304   3.551  0.0114 -0.0663  0.5552
    2MOL    C77  759   4.776   4.352   3.467  1.2857 -0.3892 -0.0584
    2MOL    C78  760   4.716   4.478   3.525 -0.2954 -0.4295  0.1351
    2MOL    C79  761   4.604   4.459   3.633 -0.4031 -0.3638 -0.5724
    2MOL    C80  762   4.529   4.586   3.685  0.5754  0.4362 -0.0811
    2MOL    C81  763   4.447   4.549   3.802 -0.1745  0.0130 -0.6606
    2MOL    O82  764   4.411   4.436   3.818  1.0455  0.9580  0.2641
    2MOL    H83  765   4.900   4.111   3.981  0.3459  2.3540  0.8978
    2MOL    H84  766   5.153   3.954   4.016 -1.2738 -2.2920  0.5328
    2MOL    H85  767   5.009   3.897   3.964  0.2885  0.2877 -0.2011
    2MOL    H86  768   5.162   3.924   3.776  0.5460  1.5956 -3.2762
    2MOL    H87  769   5.221   4.075   3.823  0.7731 -2.3824 -3.0766
    2MOL    H88  770   4.930   4.028   3.734 -2.0535  2.2137 -0.8054
    2MOL    H89  771   5.005   4.175   3.783  0.9882  0.9238 -2.4591
    2MOL    H90  772   5.114   4.019   3.537  0.0890  1.1263 -1.8732
    2MOL    H91  773   5.136   4.188   3.590  0.1604  1.0622 -0.4868
    2MOL    H92  774   4.864   4.100   3.496  1.4044 -1.4075  0.5568
    2MOL    H93  775   4.983   4.183   3.390  1.2368  0.7989  0.8374
    2MOL    H94  776   4.850   4.278   3.649 -0.0459 -2.0588  0.0097
    2MOL    H95  777   4.966   4.380   3.565 -0.4675  0.4043  0.6896
    2MOL    H96  778   4.699   4.276   3.460  0.0560  0.7906  0.3478
    2MOL    H97  779   4.809   4.377   3.366  1.1659 -1.0901 -0.2672
    2MOL    H98  780   4.786   4.551   3.567 -3.5916  2.7571  0.3596
    2MOL    H99  781   4.672   4.531   3.441  0.2964  0.4017  0.3364
    2MOL   H100  782   4.664   4.434   3.721 -1.3300 -0.6516 -0.0147
    2MOL   H101  783   4.547   4.370   3.607 -1.3024  0.4670 -1.4444
    2MOL   H102  784   4.466   4.643   3.617  0.0902  0.5556  0.4641
    2MOL   H103  785   4.605   4.652   3.725  1.3904 -0.6099  0.1170
    2MOL   N104  786   4.410   4.638   3.890 -0.2164  0.2642 -0.4428
    2MOL   C105  787   4.287   4.629   3.965 -0.0728 -0.5162 -0.1651
    2MOL   C106  788   4.301   4.724   4.090  0.1358  0.0161 -0.0036
    2MOL   C107  789   4.177   4.714   4.183  0.7264  0.1017  0.3106
    2MOL   C108  790   4.187   4.804   4.304  0.5277 -0.2775  0.1954
    2MOL   C109  791   4.061   4.779   4.395  0.3347 -0.3398  0.1363
    2MOL   C110  792   4.058   4.851   4.531 -0.0659 -0.5182 -0.3650
    2MOL   C111  793   4.045   5.005   4.525 -0.6053  0.3038 -0.4411
    2MOL   C112  794   3.903   5.059   4.506  0.6699 -0.5828  0.7961
    2MOL   C113  795   3.873   5.207   4.539  0.2347  0.0978  0.5428
    2MOL   C114  796   3.951   5.316   4.466  0.5614  0.1497 -0.4160
    2MOL   C115  797   3.963   5.438   4.557  0.8185  0.3438  0.6689
    2MOL   O116  798   3.862   5.509   4.563 -0.2022 -0.4577 -0.2175
    2MOL   H117  799   4.441   4.731   3.868  2.7484 -0.9381 -1.6398
    2MOL   H118  800   4.195   4.644   3.908 -0.2269 -1.9436 -0.3244
    2MOL   H119  801   4.271   4.529   4.005 -0.0561 -0.7719 -0.7878
    2MOL   H120  802   4.304   4.829   4.061 -2.1946 -0.0733 -0.6998
    2MOL   H121  803   4.384   4.701   4.156  1.4739  4.4067 -0.0274
    2MOL   H122  804   4.087   4.741   4.128  1.2505  0.9527 -0.1365
    2MOL   H123  805   4.160   4.610   4.211  0.4287  0.0939  0.1153
    2MOL   H124  806   4.192   4.908   4.273 -3.3351 -0.1209 -0.1012
    2MOL   H125  807   4.272   4.772   4.365  0.1189 -2.2380 -0.2140
    2MOL   H126  808   4.046   4.673   4.413  0.5204 -0.2405  0.8937
    2MOL   H127  809   3.974   4.817   4.340  0.4030  0.6772  0.7118
    2MOL   H128  810   3.974   4.810   4.587 -0.3124 -1.9546 -1.7543
    2MOL   H129  811   4.151   4.822   4.580 -1.0947  0.5029  2.2639
    2MOL   H130  812   4.117   5.040   4.451  1.3666  0.2571  1.4224
    2MOL   H131  813   4.086   5.036   4.621 -0.1725 -4.0749  0.8811
    2MOL   H132  814   3.863   5.044   4.406 -0.2428 -1.9578  1.3459
    2MOL   H133  815   3.839   5.001   4.574  0.2195  0.1936  1.0401
    2MOL   H134  816   3.883   5.206   4.647 -0.1918 -1.6899  0.5729
    2MOL   H135  817   3.766   5.226   4.533  0.2931  0.7069  1.3974
    2MOL   H136  818   3.891   5.356   4.384 -1.8905 -2.5348 -0.0179
    2MOL   H137  819   4.049   5.284   4.433  0.1998 -0.6288 -0.7472
    2MOL   N138  820   4.083   5.469   4.609 -0.7208 -0.1286  0.2662
    2MOL   C139  821   4.094   5.547   4.728 -0.5200  0.4395 -0.0262
    2MOL   C140  822   4.201   5.501   4.823 -0.4776  0.4783  0.0503
    2MOL   C141  823   4.171   5.355   4.875 -0.0830  0.7936 -0.2679
    2MOL   C142  824   4.275   5.291   4.971 -0.4107  0.7449  0.2048
    2MOL   C143  825   4.284   5.362   5.103 -0.2381 -0.0311  0.4381
    2MOL   C144  826   4.354   5.279   5.217 -0.4457  0.2663  0.2629
    2MOL   C145  827   4.374   5.340   5.359  0.1568 -0.0186 -0.5853
    2MOL   C146  828   4.242   5.391   5.418 -0.1216  0.1819  0.5496
    2MOL   C147  829   4.252   5.456   5.555  0.2557 -0.2964 -0.2618
    2MOL   C148  830   4.122   5.519   5.599  0.1472  0.0594  0.4531
    2MOL   C149  831   4.016   5.422   5.664 -0.7506 -0.1020 -0.0459
    2MOL   O150  832   4.042   5.376   5.776  0.1119 -0.3278 -0.0759
    2MOL   H151  833   4.161   5.406   4.595 -0.7353  0.1509 -1.0501
    2MOL   H152  834   4.124   5.643   4.686  0.5246  0.0043 -0.2775
    2MOL   H153  835   4.001   5.547   4.785  0.1709 -1.3206  1.1328
    2MOL   H154  836   4.198   5.575   4.903  2.2374 -1.6034  2.2226
    2MOL   H155  837   4.304   5.508   4.789 -0.2106 -3.2868 -0.2194
    2MOL   H156  838   4.072   5.357   4.922 -0.3396  1.6849 -0.8218
    2MOL   H157  839   4.162   5.291   4.787  0.1912  1.3000 -0.6663
    2MOL   H158  840   4.377   5.291   4.935 -1.0292 -0.2584 -1.6357
    2MOL   H159  841   4.235   5.189   4.981 -1.0086  0.9156 -0.3787
    2MOL   H160  842   4.189   5.404   5.136 -1.2142 -1.8259  0.0331
    2MOL   H161  843   4.344   5.452   5.101 -0.8554  0.3970  1.1121
    2MOL   H162  844   4.297   5.187   5.234  2.0368 -1.1508  1.1842
    2MOL   H163  845   4.449   5.243   5.178 -1.4428  0.8808 -2.9183
    2MOL   H164  846   4.444   5.424   5.366 -0.1682  0.1578  0.7757
    2MOL   H165  847   4.408   5.265   5.431 -0.0040  0.5546  0.0962
    2MOL   H166  848   4.200   5.466   5.351 -1.1296  0.1496  1.1420
    2MOL   H167  849   4.165   5.314   5.412  0.7524 -0.8252  1.8639
    2MOL   H168  850   4.325   5.537   5.562 -0.6099  0.4672 -0.1052
    2MOL   H169  851   4.288   5.380   5.625 -1.2470 -1.2777 -0.5461
    2MOL   H170  852   4.078   5.581   5.521  0.4475 -2.1313 -1.4971
    2MOL   H171  853   4.147   5.590   5.678 -0.0822 -1.7835  2.2243
    2MOL   N172  854   3.911   5.382   5.597  0.0218 -0.1033  0.5118
    2MOL   C173  855   3.816   5.280   5.641 -0.4613  0.7530 -0.1240
    2MOL   C174  856   3.694   5.335   5.719 -0.8625 -0.2696  0.2881
    2MOL   C175  857   3.619   5.233   5.805 -0.4165 -0.7372 -0.6629
    2MOL   C176  858   3.506   5.290   5.888  0.5024 -0.2916 -0.0708
    2MOL   C177  859   3.370   5.292   5.812 -0.1765 -0.3601  0.2551
    2MOL   C178  860   3.261   5.374   5.889  0.3703 -0.0097  0.0657
    2MOL   C179  861   3.133   5.392   5.812 -0.8250  0.2745  0.2496
    2MOL   C180  862   3.025   5.481   5.885 -0.2103  0.5498 -0.2903
    2MOL   C181  863   2.897   5.495   5.799 -0.3885 -0.0336 -0.2533
    2MOL   C182  864   2.795   5.590   5.856 -0.1603  0.4855  0.2832
    2MOL   C183  865   2.835   5.735   5.850 -0.6182  0.2709  0.0749
    2MOL   O184  866   2.885   5.778   5.746 -0.1748 -0.3100  0.3586
    2MOL   H185  867   3.889   5.419   5.505  1.0204  0.5043  0.5117
    2MOL   H186  868   3.773   5.229   5.555  0.5321  0.4029 -0.4077
    2MOL   H187  869   3.870   5.202   5.694 -1.3173  1.0403  1.2054
    2MOL   H188  870   3.628   5.384   5.647 -1.1303 -2.5082 -1.0286
    2MOL   H189  871   3.739   5.419   5.772 -0.4796 -1.0386  1.1952
    2MOL   H190  872   3.583   5.146   5.750  0.5122 -1.3493 -0.3036
    2MOL   H191  873   3.693   5.188   5.871  0.8890  1.1736 -0.7794
    2MOL   H192  874   3.526   5.389   5.928 -1.4734  1.2528 -2.7405
    2MOL   H193  875   3.487   5.217   5.967 -2.2994 -1.0828 -1.4069
    2MOL   H194  876   3.323   5.195   5.804  2.8373 -1.6666 -2.9414
    2MOL   H195  877   3.369   5.341   5.714 -0.8330  0.3539  0.6074
    2MOL   H196  878   3.238   5.314   5.978  1.4450 -0.3965  0.1009
    2MOL   H197  879   3.295   5.472   5.923  4.0305 -0.9698 -0.6250
    2MOL   H198  880   3.095   5.297   5.776 -1.6538  0.4003  0.7860
    2MOL   H199  881   3.154   5.449   5.721  2.4429 -3.8459 -1.7480
    2MOL   H200  882   3.015   5.441   5.986  0.4181 -0.1932 -0.5202
    2MOL   H201  883   3.067   5.581   5.896  1.0772 -0.2260  2.3605
    2MOL   H202  884   2.858   5.394   5.790 -0.1375 -0.0802 -0.8171
    2MOL   H203  885   2.919   5.529   5.698 -2.7305  0.2082 -0.7069
    2MOL   H204  886   2.767   5.561   5.957 -0.3744 -0.9476 -0.1737
    2MOL   H205  887   2.701   5.588   5.799  0.3632 -0.0873 -0.5766
    2MOL   N206  888   2.813   5.807   5.960 -0.8166  0.0972 -0.5744
    2MOL   C207  889   2.856   5.943   5.971 -0.5368  0.5507  0.0515
    2MOL   C208  890   2.746   6.043   5.945 -0.0153 -0.1210  0.9806
    2MOL   C209  891   2.782   6.187   5.988  0.4975 -0.6210 -0.7705
    2MOL   C210  892   2.677   6.290   5.938  0.6123 -0.4870  0.0030
    2MOL   C211  893   2.554   6.307   6.036  0.1144  0.7358  0.0277
    2MOL   C212  894   2.459   6.426   6.005 -0.4228  0.0435 -0.1713
    2MOL   C213  895   2.347   6.439   6.109  0.6565 -0.4095 -0.4346
    2MOL   C214  896   2.384   6.473   6.252 -0.1318 -0.1388  0.5476
    2MOL   C215  897   2.266   6.485   6.349  0.5184  0.9214  0.5728
    2MOL   C216  898   2.211   6.621   6.336  0.0066  0.5234  0.9062
    2MOL   C217  899   2.069   6.629   6.380 -0.9519 -0.5265 -0.1632
    2MOL   O218  900   2.036   6.586   6.494 -0.5521  0.6623  0.1278
    2MOL   H219  901   2.776   5.759   6.041 -0.9768  0.7007 -0.2871
    2MOL   H220  902   2.942   5.956   5.906  1.0512  1.8444  2.3662
    2MOL   H221  903   2.896   5.947   6.072  1.5535 -2.0718 -0.6221
    2MOL   H222  904   2.657   6.016   6.002 -1.2566 -0.5518 -1.1237
    2MOL   H223  905   2.719   6.045   5.840  0.4230 -0.6090  0.8598
    2MOL   H224  906   2.801   6.201   6.094 -0.5912  0.4814 -0.7047
    2MOL   H225  907   2.880   6.212   5.946  1.4630 -1.8994  0.6983
    2MOL   H226  908   2.638   6.275   5.838 -1.9063  0.5502  0.7867
    2MOL   H227  909   2.740   6.378   5.945 -1.8229  1.5202 -2.1572
    2MOL   H228  910   2.601   6.356   6.122 -1.2060 -0.8476  1.6858
    2MOL   H229  911   2.497   6.217   6.056  0.5385  0.1587 -1.3396
    2MOL   H230  912   2.513   6.519   5.989 -2.3398  1.2550  0.1741
    2MOL   H231  913   2.415   6.406   5.907  0.6475  3.5966 -1.4758
    2MOL   H232  914   2.295   6.344   6.099 -3.0146  1.0467  3.2616
    2MOL   H233  915   2.272   6.514   6.081  0.0524  0.1068  2.3380
    2MOL   H234  916   2.447   6.394   6.293 -1.9693 -1.9010  0.0637
    2MOL   H235  917   2.450   6.560   6.250  1.4220 -1.3303 -0.9393
    2MOL   H236  918   2.317   6.460   6.442  1.3505  0.3697 -0.0226
    2MOL   H237  919   2.197   6.405   6.323  1.0145  0.2276  1.3408
    2MOL   H238  920   2.226   6.663   6.236 -0.5767  1.0050  1.0186
    2MOL   H239  921   2.269   6.681   6.407  1.4902 -0.5341  0.6073
    2MOL   N240  922   1.988   6.695   6.294  0.2178  0.9561  0.0782
    2MOL   C241  923   1.850   6.725   6.330 -0.4593  0.0623  0.1018
    2MOL   C242  924   1.798   6.861   6.277 -0.8199  0.7661 -0.2734
    2MOL   C243  925   1.816   6.877   6.121  0.4535  0.6883  0.2383
    2MOL   C244  926   1.762   7.013   6.070  0.1181 -0.0076  0.1441
    2MOL   C245  927   1.785   7.025   5.923 -0.1149 -0.7681 -0.6297
    2MOL   C246  928   1.734   7.148   5.844 -0.6398 -0.4483 -0.5356
    2MOL   C247  929   1.743   7.128   5.686 -0.0059 -0.2984 -0.5124
    2MOL   C248  930   1.771   7.263   5.623  0.8901  0.3351 -0.0475
    2MOL   C249  931   1.923   7.291   5.624 -0.5308  0.3980 -0.3001
    2MOL   C250  932   1.953   7.429   5.573 -0.7915  0.1703 -0.3911
    2MOL   C251  933   1.917   7.451   5.423  0.6272  0.2874 -0.1736
    2MOL   O252  934   1.980   7.391   5.335  0.1276 -0.1806 -0.1544
    2MOL   H253  935   2.027   6.718   6.204 -0.0899  2.1833  0.2534
    2MOL   H254  936   1.834   6.716   6.438 -0.5478 -2.4367 -0.0862
    2MOL   H255  937   1.793   6.643   6.287 -0.5816 -0.4634  1.2342
    2MOL   H256  938   1.864   6.933   6.326  1.5287 -0.7407 -1.1632
    2MOL   H257  939   1.693   6.877   6.300 -1.3194 -0.2328 -1.8108
    2MOL   H258  940   1.919   6.865   6.089  0.3459 -0.7186  0.3684
    2MOL   H259  941   1.766   6.795   6.069 -0.4922  0.4313  1.5202
    2MOL   H260  942   1.819   7.096   6.113  0.3166  0.6375 -1.3467
    2MOL   H261  943   1.656   7.027   6.094  0.5861  0.2550  2.2069
    2MOL   H262  944   1.731   6.936   5.892 -0.6180 -0.4111 -0.8000
    2MOL   H263  945   1.888   7.015   5.889  0.1980  1.5660 -0.4700
    2MOL   H264  946   1.630   7.177   5.857 -0.7525 -0.7057 -0.8523
    2MOL   H265  947   1.794   7.224   5.895 -0.2065 -0.7511 -0.5870
    2MOL   H266  948   1.653   7.079   5.649 -0.1459 -0.9851  0.6901
    2MOL   H267  949   1.825   7.059   5.666  1.0752  0.4431  1.2334
    2MOL   H268  950   1.753   7.245   5.517  1.7789  1.3889 -0.3859
    2MOL   H269  951   1.710   7.344   5.662 -0.9271 -1.4394  0.9153
    2MOL   H270  952   1.973   7.213   5.566 -0.3331 -1.3269  2.1297
    2MOL   H271  953   1.954   7.280   5.727  0.6431 -0.0724 -0.6952
    2MOL   H272  954   2.060   7.448   5.584 -0.3410 -2.5729  0.5135
    2MOL   H273  955   1.906   7.508   5.631  0.9518  1.0631 -0.1725
    2MOL   N274  956   1.824   7.541   5.403  0.2177 -0.4508  0.0293
    2MOL   C275  957   1.791   7.603   5.274  0.3457 -0.3473  0.2223
    2MOL   C276  958   1.648   7.651   5.266  0.1930 -0.2820 -0.6737
    2MOL   C277  959   1.611   7.684   5.122 -0.5589  0.1534  0.5921
    2MOL   C278  960   1.463   0.024   5.115  0.0794 -0.3098 -0.1523
    2MOL   C279  961   1.354   7.634   5.149 -0.2561 -0.0889  0.1244
    2MOL   C280  962   1.209   7.681   5.147  0.1434 -0.0193 -0.1788
    2MOL   C281  963   1.116   7.562   5.182 -0.0136 -0.5968  0.1445
    2MOL   C282  964   0.969   7.611   5.179  0.2922  0.3388  0.0173
    2MOL   C283  965   0.880   7.518   5.263 -0.2474  0.5408 -0.2555
    2MOL   C284  966   0.744   7.572   5.302 -0.3557 -0.1991 -0.2625
    2MOL   C285  967   0.646   7.554   5.187  0.5810 -0.5616 -1.0023
    2MOL   O286  968   0.683   7.571   5.072 -0.1256 -0.3787  0.0761
    2MOL   H287  969   1.773   7.581   5.481 -1.2961 -1.0072 -0.6796
    2MOL   H288  970   1.804   7.529   5.194  1.7993  1.0171 -0.8320
    2MOL   H289  971   1.854   7.690   5.257 -2.6590  2.2298  1.6925
    2MOL   H290  972   1.623   0.022   5.328  1.3703  1.1524 -2.1851
    2MOL   H291  973   1.585   7.565   5.291 -0.0535 -0.1645 -0.8906
    2MOL   H292  974   1.677   0.032   5.064  1.5631 -0.9219  1.7896
    2MOL   H293  975   1.617   7.586   5.076 -0.2158  1.1619 -1.5871
    2MOL   H294  976   1.441   0.054   5.012 -0.9569  0.7143  0.3620
    2MOL   H295  977   1.456   0.118   5.168 -1.5024  0.3582 -1.5099
    2MOL   H296  978   1.371   7.599   5.251  0.9503 -0.9996 -0.3722
    2MOL   H297  979   1.366   7.554   5.076 -0.9511 -0.5009  0.4557
    2MOL   H298  980   1.177   0.036   5.223  1.2486  2.4149 -1.8935
    2MOL   H299  981   1.194   0.002   5.045 -0.8155  1.4509  0.4909
    2MOL   H300  982   1.139   7.527   5.283 -1.3342 -1.1430  0.2776
    2MOL   H301  983   1.124   7.479   5.112  0.3059  0.9292 -1.6669
    2MOL   H302  984   0.960   7.715   5.210  0.2648 -0.6396  3.4483
    2MOL   H303  985   0.930   7.614   5.077 -1.7362 -0.1786  0.7593
    2MOL   H304  986   0.931   7.481   5.352 -0.1591  2.0489  0.3337
    2MOL   H305  987   0.874   7.427   5.203  0.4672  0.5821 -0.3925
    2MOL   H306  988   0.753   7.673   5.340  0.3590 -0.8610  1.3821
    2MOL   H307  989   0.707   7.511   5.384 -0.4444 -1.0407 -0.9103
    2MOL   N308  990   0.522   7.516   5.220  0.6073  0.8757  0.2805
    2MOL   C309  991   0.416   7.497   5.125 -0.2969 -0.3711  0.1464
    2MOL   C310  992   0.432   7.370   5.030 -0.4436  0.0433 -0.3965
    2MOL   C311  993   0.332   7.343   4.917  0.7213  0.1434  0.6623
    2MOL   C312  994   0.314   7.453   4.814  0.2206 -0.7160 -0.7754
    2MOL   C313  995   0.238   7.407   4.693 -0.0769  0.6692 -0.0670
    2MOL   C314  996   0.189   7.531   4.607  0.2048  0.1224  0.1394
    2MOL   C315  997   0.053   7.601   4.643  1.0067 -0.4548 -0.3454
    2MOL   C316  998   0.022   7.713   4.544 -0.4836 -0.0724  0.8893
    2MOL   C317  999   0.002   7.670   4.394  0.1166  0.1382  0.4283
    2MOL   C318 1000   7.665   0.068   4.302  0.4345  0.1868  0.5237
    2MOL   C319 1001   7.645   0.028   4.158 -0.1869  0.5262  0.8387
    2MOL   O320 1002   7.633   7.623   4.126  0.4179 -0.1129  0.0407
    2MOL   H321 1003   0.497   7.517   5.317  0.4984 -1.1670  0.2993
    2MOL   H322 1004   0.407   7.583   5.059 -1.2936 -0.0369  0.7053
    2MOL   H323 1005   0.318   7.506   5.171 -0.6971 -0.7174 -0.6273
    2MOL   H324 1006   0.427   7.288   5.101  2.2333 -0.7491 -1.0467
    2MOL   H325 1007   0.529   7.359   4.982 -0.4664 -0.5121 -0.3185
    2MOL   H326 1008   0.360   7.254   4.862 -0.6646 -0.3349  0.7151
    2MOL   H327 1009   0.236   7.324   4.965  0.8610 -0.0642  0.8634
    2MOL   H328 1010   0.412   7.484   4.778 -0.1505  0.5112 -0.7559
    2MOL   H329 1011   0.262   7.540   4.855  0.0981 -0.5532 -1.2677
    2MOL   H330 1012   0.156   7.343   4.727  0.8144 -0.0837  0.7182
    2MOL   H331 1013   0.299   7.342   4.631  0.2026 -2.8813  3.6903
    2MOL   H332 1014   0.267   7.607   4.604 -0.5369  0.9426  1.1844
    2MOL   H333 1015   0.182   7.496   4.504  0.7109 -1.1821  0.5403
    2MOL   H334 1016   0.047   7.637   4.746  0.6883  0.7770 -0.7957
    2MOL   H335 1017   7.694   7.522   4.635  2.0239 -1.6012  1.1120
    2MOL   H336 1018   7.653   0.059   4.572  0.6034  0.6698  2.6228
    2MOL   H337 1019   0.090   0.080   4.563  0.2538 -0.1518 -1.2613
    2MOL   H338 1020   7.652   7.584   4.404  1.2068 -0.6741  0.7185
    2MOL   H339 1021   0.098   7.642   4.351  0.8566  2.0996  0.7354
    2MOL   H340 1022   0.021   0.149   4.306 -0.8136  1.3402 -0.0453
    2MOL   H341 1023   7.571   0.105   4.344  1.8811  1.7808  2.4696
    2MOL   N342 1024   7.642   0.125   4.067 -0.2567 -0.0486  0.1478
    2MOL   C343 1025   7.649   0.101   3.918  0.1615  0.5233 -0.6171
    2MOL   C344 1026   0.058   0.176   3.865 -1.2434 -0.1447  0.7747
    2MOL   C345 1027   0.195   0.136   3.940  0.2020 -0.8272 -0.6932
    2MOL   C346 1028   0.257   0.006   3.880  0.0333  0.6855  0.0459
    2MOL   C347 1029   0.393   7.683   3.938  0.3163 -0.2126 -0.3911
    2MOL   C348 1030   0.463   7.555   3.878  0.7859 -0.7549  0.5209
    2MOL   C349 1031   0.612   7.553   3.900 -0.3589 -0.2797 -0.2831
    2MOL   C350 1032   0.709   7.648   3.823 -1.0047 -0.2368  0.5916
    2MOL   C351 1033   0.861   7.641   3.857  0.4271 -0.0843 -0.1345
    2MOL   C352 1034   0.905   7.686   4.001 -0.7509 -0.3829 -0.9981
    2MOL   C353 1035   0.912   7.578   4.099  0.0993  0.5242  0.3606
    2MOL   O354 1036   0.813   7.525   4.155  0.3388 -0.1709 -0.3135
    2MOL   H355 1037   7.635   0.219   4.102  3.3916  1.4131 -2.7822
    2MOL   H356 1038   7.663   7.709   3.907 -0.7347  0.3185  0.2048
    2MOL   H357 1039   7.552   0.127   3.877  0.6593  1.2101 -1.3904
    2MOL   H358 1040   0.043   0.280   3.894 -2.0520 -0.4310  1.3798
    2MOL   H359 1041   0.073   0.176   3.757 -2.6407  1.0606  0.5766
    2MOL   H360 1042   0.268   0.216   3.949  0.4458 -1.1510  0.2853
    2MOL   H361 1043   0.180   0.115   4.046  1.8819  1.2571 -0.0063
    2MOL   H362 1044   0.269   0.012   3.772  0.1883  0.8579  0.0730
    2MOL   H363 1045   0.198   7.632   3.900  2.9009 -1.7008 -1.7625
    2MOL   H364 1046   0.390   7.671   4.046  0.8117  0.8075 -0.2649
    2MOL   H365 1047   0.456   0.052   3.914 -0.6204  0.7964  0.6662
    2MOL   H366 1048   0.425   7.464   3.925 -2.1946 -0.7696 -1.7763
    2MOL   H367 1049   0.445   7.556   3.771  1.2148 -0.9860  0.4493
    2MOL   H368 1050   0.639   7.450   3.880 -0.7086 -0.6588  1.1931
    2MOL   H369 1051   0.620   7.570   4.007  0.6497 -3.0811  0.1134
    2MOL   H370 1052   0.688   7.635   3.717 -0.0042 -0.5283  0.4255
    2MOL   H371 1053   0.688   0.035   3.851  0.2827  0.3760 -0.6556
    2MOL   H372 1054   0.927   7.702   3.794  1.4443  0.0663  1.0729
    2MOL   H373 1055   0.896   7.539   3.844  2.5089  0.6763 -0.6205
    2MOL   H374 1056   0.831   0.039   4.041  1.2354  1.3295 -0.1744
    2MOL   H375 1057   0.994   0.033   4.004 -0.7588 -0.4416  0.6623
    2MOL   N376 1058   1.032   7.532   4.134 -0.3627 -0.3220 -0.1960
    2MOL   C377 1059   1.056   7.395   4.190  0.4557 -0.3517 -0.3533
    2MOL   C378 1060   1.061   7.293   4.075 -0.0307  0.4050  0.1102
    2MOL   C379 1061   1.081   7.159   4.134 -0.4023  0.3180 -0.1386
    2MOL   C380 1062   1.070   7.048   4.034  0.1106 -0.1873 -0.3383
    2MOL   C381 1063   1.164   7.076   3.912 -0.1930  0.0919 -0.7258
    2MOL   C382 1064   1.194   6.951   3.831  0.1427 -0.5479  0.4085
    2MOL   C383 1065   1.294   6.855   3.895  0.5230 -0.0318  0.0828
    2MOL   C384 1066   1.302   6.726   3.812 -1.1133  0.0264  0.2267
    2MOL   C385 1067   1.402   6.629   3.866  0.2130  0.0095  0.0482
    2MOL   C386 1068   1.340   6.556   3.986  0.5339  0.5933 -0.0445
    2MOL   C387 1069   1.446   6.460   4.058  0.2943 -0.4011 -0.4157
    2MOL   O388 1070   1.560   6.496   4.091  0.0257  0.2065 -0.5991
    2MOL   H389 1071   1.117   7.583   4.115 -0.8462  0.8718  0.7556
    2MOL   H390 1072   1.150   7.387   4.246 -0.7799 -1.5931  1.6109
    2MOL   H391 1073   0.975   7.376   4.260  0.0359  2.5276  0.0058
    2MOL   H392 1074   1.144   7.323   4.010  2.6407 -2.1548  2.1949
    2MOL   H393 1075   0.966   7.295   4.021  0.3426  2.8678 -0.5128
    2MOL   H394 1076   1.176   7.156   4.186  0.9484 -0.8506 -2.5770
    2MOL   H395 1077   1.005   7.140   4.210 -0.4948  3.6362  0.6706
    2MOL   H396 1078   0.967   7.053   3.999 -0.8827 -1.0013  2.3663
    2MOL   H397 1079   1.090   6.947   4.069 -0.2925 -0.3308 -0.5181
    2MOL   H398 1080   1.254   7.124   3.951  0.1518 -3.4916  3.2175
    2MOL   H399 1081   1.111   7.147   3.848 -1.5761 -0.2961 -0.0319
    2MOL   H400 1082   1.098   6.902   3.817  0.1602 -1.0124  1.7770
    2MOL   H401 1083   1.239   6.987   3.739 -0.8433  2.9570  1.2195
    2MOL   H402 1084   1.277   6.823   3.998 -1.1230  0.0020 -0.1607
    2MOL   H403 1085   1.395   6.894   3.882 -0.2289  2.6295  1.8617
    2MOL   H404 1086   1.204   6.680   3.800 -1.3881  0.1331  1.9477
    2MOL   H405 1087   1.326   6.755   3.709 -0.3670 -2.1084 -0.2161
    2MOL   H406 1088   1.496   6.680   3.891 -0.4635  1.8467 -1.0248
    2MOL   H407 1089   1.425   6.550   3.794 -1.4900 -0.2220 -0.2485
    2MOL   H408 1090   1.263   6.486   3.954  1.7409 -1.1830  0.9142
    2MOL   H409 1091   1.291   6.624   4.056 -0.3300  0.4189 -0.4738
    2MOL   N410 1092   1.391   6.343   4.096 -0.4508 -0.1389  0.2568
    2MOL   C411 1093   1.455   6.234   4.174 -0.3262  0.3892  0.3161
    2MOL   C412 1094   1.404   6.098   4.122 -0.2635 -0.1577 -0.0477
    2MOL   C413 1095   1.434   6.068   3.969 -0.8121  0.2185  0.8669
    2MOL   C414 1096   1.361   5.945   3.908  1.1140 -0.0587  0.3120
    2MOL   C415 1097   1.445   5.902   3.780  0.0139  0.9713 -0.3037
    2MOL   C416 1098   1.374   5.814   3.674  0.3772  0.0665  0.2565
    2MOL   C417 1099   1.328   5.883   3.547  0.3605  0.0747  0.3650
    2MOL   C418 1100   1.246   5.778   3.462 -0.0561 -0.6323 -0.2151
    2MOL   C419 1101   1.198   5.846   3.331 -0.4281 -0.0856  0.3810
    2MOL   C420 1102   1.129   5.981   3.329 -0.0324 -0.1217  0.0009
    2MOL   C421 1103   0.986   5.988   3.387  1.0691  0.3454  0.7516
    2MOL   O422 1104   0.943   5.887   3.444  0.3039  0.3807 -0.6056
    2MOL   H423 1105   1.295   6.334   4.068 -0.4470  0.2520  0.1119
    2MOL   H424 1106   1.560   6.252   4.152  0.2625 -3.4068 -0.3796
    2MOL   H425 1107   1.432   6.243   4.280 -0.2291 -0.1169  0.3830
    2MOL   H426 1108   1.297   6.086   4.137 -0.0628 -2.0810 -0.0108
    2MOL   H427 1109   1.457   6.019   4.176 -0.0357 -1.1008 -1.6012
    2MOL   H428 1110   1.410   6.148   3.899  0.5072 -1.6713 -1.8193
    2MOL   H429 1111   1.541   6.056   3.952 -0.8406 -0.7612  1.3752
    2MOL   H430 1112   1.266   5.971   3.861  0.4512 -0.5686  1.3446
    2MOL   H431 1113   1.358   5.865   3.982 -2.4313  2.0273  2.5635
    2MOL   H432 1114   1.540   5.860   3.813 -0.7506 -0.4116  0.1927
    2MOL   H433 1115   1.480   5.988   3.723  1.2172  0.3995 -0.4447
    2MOL   H434 1116   1.453   5.744   3.648  1.9907  1.4046  1.5091
    2MOL   H435 1117   1.300   5.751   3.725 -1.6752  3.8389  2.1768
    2MOL   H436 1118   1.405   5.934   3.489  0.7881  0.3001  1.1224
    2MOL   H437 1119   1.264   5.964   3.583 -0.6783 -0.4749 -0.2335
    2MOL   H438 1120   1.308   5.690   3.445 -1.1975 -1.3070 -0.9731
    2MOL   H439 1121   1.148   5.755   3.504 -0.4081  0.9980 -0.1056
    2MOL   H440 1122   1.141   5.769   3.277 -0.2734  1.1846 -1.6404
    2MOL   H441 1123   1.292   5.870   3.281 -0.0844 -1.3271  0.3940
    2MOL   H442 1124   1.131   6.028   3.230 -0.4902 -2.0683 -0.9554
    2MOL   H443 1125   1.186   6.061   3.376  1.0373  1.0340 -3.0879
    2MOL   N444 1126   0.916   6.097   3.348 -0.2652  0.0931  0.3993
    2MOL   C445 1127   0.788   6.159   3.389 -0.5592  0.6749  0.1585
    2MOL   C446 1128   0.689   6.148   3.274  0.4466 -0.0921 -0.1745
    2MOL   C447 1129   0.657   6.007   3.231  0.1387  0.2243 -0.1070
    2MOL   C448 1130   0.539   6.003   3.136  0.6701 -0.0851 -0.5871
    2MOL   C449 1131   0.402   6.053   3.181  0.1371  0.1593  0.1507
    2MOL   C450 1132   0.294   6.000   3.081  0.7615 -0.1002  0.6364
    2MOL   C451 1133   0.166   5.974   3.150  1.1313  0.4927  0.0821
    2MOL   C452 1134   0.056   5.918   3.046  0.2202  0.0394 -0.1035
    2MOL   C453 1135   7.654   5.854   3.117 -0.2601  0.3371  0.2635
    2MOL   C454 1136   7.541   5.818   3.022  0.1500  0.0653 -0.9323
    2MOL   C455 1137   7.409   5.805   3.088  0.8646 -0.0316  0.1420
    2MOL   O456 1138   7.365   5.889   3.163  0.2301  0.3010 -0.0748
    2MOL   H457 1139   0.976   6.164   3.303  1.1621 -1.3219  0.1683
    2MOL   H458 1140   0.758   6.103   3.478 -0.4437  0.2173 -0.0909
    2MOL   H459 1141   0.811   6.260   3.425 -0.0426  0.7286 -0.3313
    2MOL   H460 1142   0.724   6.208   3.190  0.5182 -0.3834 -0.3508
    2MOL   H461 1143   0.592   6.191   3.302  0.4851 -1.4605  2.2470
    2MOL   H462 1144   0.743   5.964   3.181 -0.7836  0.1324 -1.6413
    2MOL   H463 1145   0.633   5.942   3.315 -0.0276  0.6184  0.1560
    2MOL   H464 1146   0.526   5.900   3.105  2.4400 -0.4397 -0.2475
    2MOL   H465 1147   0.570   6.062   3.050  1.9019 -0.5954 -0.5090
    2MOL   H466 1148   0.376   6.159   3.182 -0.6885 -0.0058 -2.3430
    2MOL   H467 1149   0.385   6.009   3.279 -2.1891 -2.6834 -1.4954
    2MOL   H468 1150   0.276   6.084   3.015 -0.5540 -1.1818 -0.3860
    2MOL   H469 1151   0.320   5.908   3.027  0.6563 -0.1448  0.6612
    2MOL   H470 1152   0.129   6.063   3.201  1.8624 -1.0851  3.4706
    2MOL   H471 1153   0.199   5.905   3.227 -0.9100 -1.0386 -0.3967
    2MOL   H472 1154   0.018   6.009   2.999  1.2807  0.6285  0.1439
    2MOL   H473 1155   0.104   5.849   2.976 -0.7454  0.5449 -1.2914
    2MOL   H474 1156   7.612   5.920   3.192 -0.0262  0.3238  0.4085
    2MOL   H475 1157   7.692   5.758   3.152  0.5186  0.0930 -1.1793
    2MOL   H476 1158   7.569   5.727   2.968 -2.7757 -1.8109  0.5417
    2MOL   H477 1159   7.530   5.884   2.936 -4.5143 -0.8691 -1.2149
    2MOL   N478 1160   7.341   5.697   3.055  0.5119 -0.3775  0.2373
    2MOL   C479 1161   7.204   5.672   3.084  0.0608  0.3102 -0.0964
    2MOL   C480 1162   7.174   5.525   3.070 -0.0664 -1.0214  0.2727
    2MOL   C481 1163   7.277   5.429   3.132  0.0297  0.4815  0.2846
    2MOL   C482 1164   7.245   5.277   3.124 -0.0420 -0.5882  0.8324
    2MOL   C483 1165   7.113   5.232   3.194  0.3347 -0.1454  0.5048
    2MOL   C484 1166   7.106   5.081   3.201  0.4499 -0.1356  0.2881
    2MOL   C485 1167   6.988   5.041   3.295 -0.6156  0.1859  0.4974
    2MOL   C486 1168   6.854   5.077   3.232  0.6709 -0.8406 -0.1792
    2MOL   C487 1169   6.730   5.006   3.302  0.1147  0.1955  0.5396
    2MOL   C488 1170   6.597   5.034   3.237 -0.9519  0.0976 -0.6944
    2MOL   C489 1171   6.500   4.927   3.296  0.7341  0.1178  0.0209
    2MOL   O490 1172   6.510   4.890   3.415  0.4211 -0.0070  0.0910
    2MOL   H491 1173   7.365   5.650   2.969  2.1965  1.1688 -0.1781
    2MOL   H492 1174   7.186   5.695   3.189 -3.2380  1.8524 -0.9422
    2MOL   H493 1175   7.132   5.742   3.043  0.1866  0.7627  0.4530
    2MOL   H494 1176   7.167   5.497   2.965 -0.3420  0.3432 -0.0869
    2MOL   H495 1177   7.075   5.505   3.111 -0.1671 -2.4907 -0.6702
    2MOL   H496 1178   7.370   5.434   3.075 -1.6404  1.1610 -2.4682
    2MOL   H497 1179   7.306   5.451   3.234 -0.5205 -0.6772  0.6982
    2MOL   H498 1180   7.331   5.227   3.169  1.7928  0.3236 -1.5440
    2MOL   H499 1181   7.248   5.249   3.018  0.0247  1.8962  0.1620
    2MOL   H500 1182   7.026   5.277   3.146 -1.1273 -1.6356  1.6932
    2MOL   H501 1183   7.137   5.277   3.291 -2.2378  0.3868  0.9435
    2MOL   H502 1184   7.090   5.036   3.103 -0.3403  0.9330 -0.0819
    2MOL   H503 1185   7.194   5.041   3.251 -0.2953 -0.6102  1.2195
    2MOL   H504 1186   7.007   5.097   3.387 -0.9813 -0.3408  0.9006
    2MOL   H505 1187   7.006   4.934   3.304  1.5138  0.5280  0.6394
    2MOL   H506 1188   6.829   5.183   3.231 -0.6252 -1.1216  0.3674
    2MOL   H507 1189   6.845   5.048   3.128  1.3892  1.9718 -1.0680
    2MOL   H508 1190   6.723   5.030   3.408  0.7331  1.6662  0.2603
    2MOL   H509 1191   6.754   4.900   3.304 -1.7989 -0.3617 -2.0936
    2MOL   H510 1192   6.610   5.013   3.131 -0.6176  0.7869 -0.7887
    2MOL   H511 1193   6.571   5.139   3.250  0.7425  0.4679 -0.1749
    2MOL   N512 1194   6.411   4.874   3.207 -0.6135  0.6999 -0.1570
    2MOL   C513 1195   6.299   4.775   3.227  0.5122  0.2769  0.6822
    2MOL   C514 1196   6.299   4.668   3.113 -0.1610  0.3692 -0.6205
    2MOL   C515 1197   6.217   4.541   3.160 -0.3639  0.6991  0.3726
    2MOL   C516 1198   6.194   4.425   3.052  0.0883 -0.4822  0.2302
    2MOL   C517 1199   6.090   4.312   3.086 -0.1043  1.0534 -0.2743
    2MOL   C518 1200   5.960   4.329   3.011 -0.0676  0.2697  0.1617
    2MOL   C519 1201   5.881   4.454   3.057  0.5276 -0.3056 -1.0936
    2MOL   C520 1202   5.826   4.454   3.202  0.2314 -0.0506  0.1572
    2MOL   C521 1203   5.746   4.579   3.236  0.1232  0.2563 -0.3861
    2MOL   C522 1204   5.678   4.578   3.376  0.0095  0.6982 -0.6268
    2MOL   C523 1205   5.595   4.698   3.398  0.1443 -0.5897  0.2834
    2MOL   O524 1206   5.601   4.793   3.314  0.2933 -0.4236  0.0009
    2MOL   H525 1207   6.411   4.918   3.117  2.6037  3.4528  1.0870
    2MOL   H526 1208   6.311   4.727   3.324 -0.3936 -0.4879  0.4182
    2MOL   H527 1209   6.202   4.824   3.239 -0.3885 -1.6748  1.5513
    2MOL   H528 1210   6.399   4.635   3.086 -0.0516  0.9626 -0.9492
    2MOL   H529 1211   6.256   4.708   3.021 -4.7180 -0.3843  1.0547
    2MOL   H530 1212   6.263   4.493   3.246  0.1470 -0.0780 -0.3354
    2MOL   H531 1213   6.121   4.576   3.197 -1.1757 -0.8943 -0.1911
    2MOL   H532 1214   6.294   4.386   3.034  1.3254  1.3564  2.7106
    2MOL   H533 1215   6.164   4.475   2.960  0.3424 -1.8497 -0.6160
    2MOL   H534 1216   6.069   4.301   3.193  1.8331 -1.1186 -0.0536
    2MOL   H535 1217   6.143   4.219   3.063  0.7921  1.7836 -1.1598
    2MOL   H536 1218   5.969   4.330   2.903  0.7170  1.6583  0.2263
    2MOL   H537 1219   5.905   4.238   3.037 -2.7937  1.6997 -0.4257
    2MOL   H538 1220   5.798   4.462   2.988 -0.5003 -3.8361 -0.3360
    2MOL   H539 1221   5.944   4.543   3.048 -1.0350  0.9743  0.2877
    2MOL   H540 1222   5.777   4.358   3.222 -0.3657 -0.3167 -2.3576
    2MOL   H541 1223   5.917   4.461   3.261 -0.9727  1.2331  1.9372
    2MOL   H542 1224   5.673   4.592   3.155  0.4752  3.2609 -0.2432
    2MOL   H543 1225   5.812   4.665   3.236  1.7672 -0.9612  1.2682
    2MOL   H544 1226   5.741   4.562   3.464  1.1206  2.5772 -1.0592
    2MOL   H545 1227   5.612   4.492   3.378  0.2871  0.4932  0.8843
    2MOL   N546 1228   5.504   4.693   3.496  0.0750  0.7372  0.2939
    2MOL   C547 1229   5.413   4.793   3.536  0.0224  0.1437 -0.0733
    2MOL   C548 1230   5.484   4.909   3.617 -0.1823  0.3846 -0.4504
    2MOL   C549 1231   5.396   5.039   3.646  0.3593  0.3199  0.1720
    2MOL   C550 1232   5.467   5.141   3.729  0.1245 -0.6367 -0.3326
    2MOL   C551 1233   5.380   5.252   3.790 -0.2144 -0.0144 -0.0082
    2MOL   C552 1234   5.464   5.369   3.848  0.5036  0.2244  0.0946
    2MOL   C553 1235   5.374   5.480   3.899  0.7269  0.4261 -0.0459
    2MOL   C554 1236   5.442   5.589   3.991  0.1325 -0.0903  0.1860
    2MOL   C555 1237   5.340   5.696   4.034 -0.8849 -0.1868 -0.0870
    2MOL   C556 1238   5.397   5.794   4.142  0.2681  0.3157 -0.0810
    2MOL   C557 1239   5.519   5.876   4.099  0.6901 -0.3405  0.2680
    2MOL   O558 1240   5.546   5.880   3.981  0.3045  0.2354  0.4939
    2MOL   H559 1241   5.489   4.603   3.539 -1.1421 -0.6658 -2.8863
    2MOL   H560 1242   5.347   4.832   3.459  0.3130 -1.2360 -1.0423
    2MOL   H561 1243   5.346   4.737   3.602  3.3116 -1.5262  1.9911
    2MOL   H562 1244   5.576   4.948   3.575  1.0438  0.4417  2.2353
    2MOL   H563 1245   5.517   4.861   3.708  0.1846  2.5174  0.5601
    2MOL   H564 1246   5.347   5.086   3.561  0.2927 -0.3587 -0.1658
    2MOL   H565 1247   5.318   5.000   3.712  1.6376  0.0838  1.5852
    2MOL   H566 1248   5.535   5.194   3.662 -1.3787  1.4172 -0.2538
    2MOL   H567 1249   5.526   5.091   3.807  1.1778  0.0683 -0.6739
    2MOL   H568 1250   5.316   5.218   3.871  0.3845 -1.2405 -0.0389
    2MOL   H569 1251   5.311   5.299   3.721 -1.3299 -0.4089  0.8172
    2MOL   H570 1252   5.523   5.326   3.929  0.7143  0.4998  0.0892
    2MOL   H571 1253   5.533   5.417   3.778 -1.7950  0.6744 -1.9419
    2MOL   H572 1254   5.297   5.424   3.953  0.5510 -0.9802 -1.7180
    2MOL   H573 1255   5.327   5.525   3.811 -0.0374 -1.2583 -0.5257
    2MOL   H574 1256   5.492   5.544   4.077 -1.0800  1.1311  1.5586
    2MOL   H575 1257   5.517   5.643   3.933 -1.9973  2.2329 -0.4670
    2MOL   H576 1258   5.253   5.656   4.087 -0.4611 -1.3468 -0.2652
    2MOL   H577 1259   5.309   5.751   3.945 -1.5842  0.9914  0.8485
    2MOL   H578 1260   5.403   5.735   4.234 -0.0956  0.2471 -0.1011
    2MOL   H579 1261   5.326   5.872   4.171 -0.1428 -0.1265  0.1117
    2MOL   N580 1262   5.587   5.949   4.189 -0.4150  0.1333  0.6315
    2MOL   C581 1263   5.705   6.031   4.140  0.3649 -0.1130 -0.5821
    2MOL   C582 1264   5.774   6.102   4.259 -0.6153  0.1546 -0.1548
    2MOL   C583 1265   5.888   6.195   4.219  0.2578 -0.3316 -0.4029
    2MOL   C584 1266   6.013   6.113   4.185 -0.6545  0.7427  0.6986
    2MOL   C585 1267   6.144   6.198   4.200  0.6209  0.3362  0.2899
    2MOL   C586 1268   6.276   6.114   4.184 -0.3131  0.2541  0.4608
    2MOL   C587 1269   6.405   6.183   4.157  0.2247 -0.1333 -0.5475
    2MOL   C588 1270   6.456   6.271   4.272 -0.5589  0.2509  0.4566
    2MOL   C589 1271   6.605   6.303   4.246 -0.0744  0.8693  0.5405
    2MOL   C590 1272   6.685   6.350   4.371  0.1819  0.1562 -0.8244
    2MOL   C591 1273   6.665   6.502   4.401 -0.0328  0.0269 -0.6935
    2MOL   O592 1274   6.561   6.555   4.358  0.2648  0.1019 -0.0150
    2MOL   H593 1275   5.575   5.955   4.290 -1.9910 -1.2486  0.5484
    2MOL   H594 1276   5.778   5.972   4.084 -1.2880 -0.7706 -2.0810
    2MOL   H595 1277   5.668   6.114   4.079  1.9803  0.2804 -1.0455
    2MOL   H596 1278   5.798   6.033   4.339 -1.1179  0.3158  0.1349
    2MOL   H597 1279   5.702   6.163   4.314 -3.2038 -0.7135 -2.4566
    2MOL   H598 1280   5.861   6.268   4.142 -0.5388  0.1312  0.2976
    2MOL   H599 1281   5.902   6.261   4.305  0.4600  0.6364 -1.1661
    2MOL   H600 1282   6.005   6.071   4.085 -2.3574  0.4019  0.9758
    2MOL   H601 1283   6.018   6.024   4.249 -2.2420  0.3281  0.2575
    2MOL   H602 1284   6.147   6.252   4.295  2.3048 -1.1273  1.0922
    2MOL   H603 1285   6.133   6.270   4.119  1.1852  1.7163  1.4101
    2MOL   H604 1286   6.291   6.056   4.275 -2.0109 -0.3279  0.3796
    2MOL   H605 1287   6.256   6.034   4.113  0.4397  0.0973  0.4209
    2MOL   H606 1288   6.410   6.244   4.067 -0.7618  0.2845 -0.3257
    2MOL   H607 1289   6.481   6.106   4.147 -0.3298 -0.5703 -1.3987
    2MOL   H608 1290   6.401   6.365   4.281  0.6454  1.1666 -1.4772
    2MOL   H609 1291   6.447   6.227   4.372 -0.5831 -0.2392  0.2400
    2MOL   H610 1292   6.603   6.369   4.159 -0.7092  1.0712  0.7047
    2MOL   H611 1293   6.657   6.221   4.198 -3.3100 -0.9406 -0.0417
    2MOL   H612 1294   6.790   6.335   4.346  0.2946 -0.3670 -0.0649
    2MOL   H613 1295   6.654   6.287   4.455 -2.6909 -0.3508 -2.2391
    2MOL   N614 1296   6.766   6.566   4.463 -0.0423 -0.3917  0.1712
    2MOL   C615 1297   6.754   6.712   4.500 -0.2347 -0.4168 -0.2505
    2MOL   C616 1298   6.844   6.793   4.406  0.2324 -0.2308 -0.3124
    2MOL   C617 1299   6.860   6.931   4.457  0.0792 -0.1147  0.8221
    2MOL   C618 1300   6.943   7.021   4.368 -0.2745  0.3485  0.9871
    2MOL   C619 1301   6.873   7.058   4.238 -0.1670 -0.0627 -0.0836
    2MOL   C620 1302   6.759   7.159   4.244  0.3487 -0.0844 -0.2091
    2MOL   C621 1303   6.716   7.204   4.099 -0.6545 -0.5914 -0.1290
    2MOL   C622 1304   6.639   7.333   4.096  0.6972 -0.4900  0.2766
    2MOL   C623 1305   6.585   7.358   3.956 -0.1156  0.0734 -0.4531
    2MOL   C624 1306   6.502   7.483   3.938 -0.5343  0.1586 -0.6423
    2MOL   C625 1307   6.432   7.470   3.805  0.3938  0.2171 -0.8935
    2MOL   O626 1308   6.482   7.428   3.705 -0.4823  0.2636  0.0833
    2MOL   H627 1309   6.850   6.514   4.481  0.8924  1.2807  0.8256
    2MOL   H628 1310   6.809   6.725   4.593 -1.4856 -0.1082  0.4417
    2MOL   H629 1311   6.651   6.746   4.505  0.0357  0.2548  0.8152
    2MOL   H630 1312   6.803   6.779   4.306 -0.4074  0.9153 -0.2090
    2MOL   H631 1313   6.945   6.751   4.399 -0.1013 -0.7084 -2.7230
    2MOL   H632 1314   6.767   6.986   4.473  0.6630  0.8209  1.0168
    2MOL   H633 1315   6.923   6.926   4.545 -1.5325  0.5798  2.0461
    2MOL   H634 1316   7.037   6.975   4.339 -0.4536  0.3976  0.3289
    2MOL   H635 1317   6.968   7.118   4.413  1.0863  0.1816  0.6150
    2MOL   H636 1318   6.821   6.982   4.180 -0.1916  0.3724 -0.6295
    2MOL   H637 1319   6.944   7.097   4.165 -0.1861 -1.1764 -0.7181
    2MOL   H638 1320   6.676   7.125   4.307  1.4323 -0.2849  1.1238
    2MOL   H639 1321   6.798   7.246   4.295  0.0302  0.8815 -1.5851
    2MOL   H640 1322   6.660   7.120   4.056 -3.0733 -0.5109  2.6983
    2MOL   H641 1323   6.804   7.230   4.039  0.1308 -0.6269  1.0002
    2MOL   H642 1324   6.553   7.347   4.161  1.2657  0.0193  0.9284
    2MOL   H643 1325   6.715   7.407   4.122  0.5881  0.0971 -1.0534
    2MOL   H644 1326   6.519   7.272   3.939  1.0042 -1.3523  2.1114
    2MOL   H645 1327   6.667   7.359   3.884 -0.4674  0.7764 -0.8527
    2MOL   H646 1328   6.559   7.576   3.932 -1.9332  1.2970  2.3758
    2MOL   H647 1329   6.434   7.506   4.020 -1.4229 -1.4156 -0.9012
    2MOL   N648 1330   6.301   7.507   3.805 -0.2299  0.0234 -1.0453
    2MOL   C649 1331   6.217   7.503   3.689 -0.2437 -0.4263 -0.7123
    2MOL   C650 1332   6.099   7.598   3.698  0.5132  0.4727  0.5055
    2MOL   C651 1333   6.029   7.618   3.559 -0.5678 -0.4360 -0.5758
    2MOL   C652 1334   5.895   7.694   3.577 -0.0704  0.4774  0.1287
    2MOL   C653 1335   5.914   0.125   3.629 -0.1265 -0.9434 -0.3599
    2MOL   C654 1336   5.779   0.197   3.637 -0.2115  0.5215  0.1089
    2MOL   C655 1337   5.801   0.350   3.617 -0.9776 -0.2499  0.1666
    2MOL   C656 1338   5.905   0.418   3.717 -0.0859 -0.9227  0.9558
    2MOL   C657 1339   5.936   0.567   3.679  0.3266 -0.4998 -0.6046
    2MOL   C658 1340   6.043   0.636   3.763 -0.3982  0.1166 -0.2990
    2MOL   C659 1341   5.975   0.680   3.898  0.0626  0.1285  0.3889
    2MOL   O660 1342   5.977   0.613   3.997 -0.0587 -0.0570  0.1171
    2MOL   H661 1343   6.262   7.530   3.895 -1.6062 -2.4020 -1.0022
    2MOL   H662 1344   6.180   7.401   3.676 -1.3357 -0.0147 -0.8737
    2MOL   H663 1345   6.277   7.536   3.604 -0.2870 -2.6687 -1.6401
    2MOL   H664 1346   6.129   7.691   3.748  1.4972 -0.8259  2.4029
    2MOL   H665 1347   6.034   7.558   3.775  1.1554 -2.1101 -0.2531
    2MOL   H666 1348   6.098   7.669   3.492  0.1829 -2.3072 -1.2644
    2MOL   H667 1349   6.006   7.522   3.513 -1.7669 -0.7613  0.6720
    2MOL   H668 1350   5.831   7.641   3.646  1.4137 -1.9898 -0.3496
    2MOL   H669 1351   5.854   7.707   3.477  1.8018 -1.5607 -0.9447
    2MOL   H670 1352   5.977   0.173   3.554 -0.0015 -3.7981 -2.1405
    2MOL   H671 1353   5.970   0.120   3.722  1.0190  1.2988 -0.8884
    2MOL   H672 1354   5.724   0.163   3.549  2.3130  0.5932 -1.5817
    2MOL   H673 1355   5.729   0.164   3.728  1.7901 -0.9895  0.7155
    2MOL   H674 1356   5.704   0.399   3.623 -0.2823  1.5630 -2.4933
    2MOL   H675 1357   5.838   0.372   3.517  1.4537 -2.3356  0.5555
    2MOL   H676 1358   5.867   0.419   3.819  0.0818 -2.5695  1.0435
    2MOL   H677 1359   6.004   0.372   3.711  0.4472  0.6216 -3.0961
    2MOL   H678 1360   5.843   0.624   3.682  0.2716 -0.6116 -0.1019
    2MOL   H679 1361   5.953   0.563   3.571 -4.0529 -0.4876 -1.4265
    2MOL   H680 1362   6.073   0.731   3.719  1.1303  0.1879  0.8328
    2MOL   H681 1363   6.142   0.592   3.780 -0.3809  0.3676  0.2644
    2MOL   H682 1364   5.926   0.777   3.895 -1.3642 -0.5853 -0.3540
    3MOL     N1 1365   2.920   3.849   7.021  0.0002  0.0400 -0.6007
    3MOL     C2 1366   2.901   3.799   6.891 -0.1138  0.3465  0.9024
    3MOL     C3 1367   2.815   3.673   6.902  0.7224  0.9061  0.2363
    3MOL     C4 1368   2.786   3.591   6.775 -0.8161  0.2642 -0.3116
    3MOL     C5 1369   2.670   3.490   6.794 -0.0276 -0.5070  0.4186
    3MOL     C6 1370   2.661   3.398   6.673 -0.4119  0.0377  0.6695
    3MOL     C7 1371   2.547   3.295   6.695 -0.3915 -0.0392  0.4615
    3MOL     C8 1372   2.565   3.181   6.801 -0.4476 -0.4091 -0.6723
    3MOL     C9 1373   2.447   3.091   6.826 -0.4421  0.1849  0.5503
    3MOL    C10 1374   2.485   2.988   6.945  0.3336  0.1761  0.9711
    3MOL    C11 1375   2.360   2.912   6.989  0.0956 -0.2454  0.1000
    3MOL    C12 1376   2.235   2.983   7.051  0.3785  0.3385  0.1822
    3MOL    O13 1377   2.258   3.081   7.121  0.2276 -0.3519 -0.3205
    3MOL    H14 1378   2.844   3.830   7.084  0.3523 -0.3687 -0.3010
    3MOL    H15 1379   2.989   3.783   6.829 -1.6529 -2.2261 -0.7205
    3MOL    H16 1380   2.843   3.876   6.839 -0.1836 -0.4200 -0.1733
    3MOL    H17 1381   2.729   3.692   6.967 -0.5879  2.9643 -2.0346
    3MOL    H18 1382   2.884   3.619   6.967 -0.5441 -0.2415  0.6603
    3MOL    H19 1383   2.781   3.660   6.691 -1.0722 -1.1957 -1.5171
    3MOL    H20 1384   2.876   3.536   6.748  0.0103  2.1195 -1.4266
    3MOL    H21 1385   2.580   3.550   6.806  1.7381  2.1321  0.9772
    3MOL    H22 1386   2.695   3.440   6.888  1.9325  1.5917  1.0769
    3MOL    H23 1387   2.758   3.351   6.658 -1.3439 -2.0892  1.2270
    3MOL    H24 1388   2.645   3.454   6.581 -3.4275 -1.4682  0.2207
    3MOL    H25 1389   2.455   3.353   6.707 -0.6572 -0.6040  1.1920
    3MOL    H26 1390   2.526   3.241   6.603 -3.6727 -0.4232  1.3918
    3MOL    H27 1391   2.591   3.226   6.897  0.1082  0.8326 -1.3906
    3MOL    H28 1392   2.652   3.116   6.789  0.0620  0.0618  0.3677
    3MOL    H29 1393   2.361   3.152   6.854 -0.0976  1.4256 -1.0173
    3MOL    H30 1394   2.428   3.039   6.732  0.6438 -0.1004  0.4859
    3MOL    H31 1395   2.513   3.047   7.033  0.6317  3.1736 -1.0399
    3MOL    H32 1396   2.561   2.920   6.905 -2.5143 -2.0627 -0.7913
    3MOL    H33 1397   2.392   2.821   7.041  1.3812 -0.7083 -1.4508
    3MOL    H34 1398   2.301   2.865   6.910  1.4362 -1.2364 -0.3343
    3MOL    H35 1399   2.994   3.797   7.067 -0.3638 -0.9109 -1.0731
    3MOL    N36 1400   2.116   2.927   7.051 -0.2653 -0.5566 -0.3191
    3MOL    C37 1401   1.996   2.986   7.102  0.1762  0.8269  0.3145
    3MOL    C38 1402   1.957   2.942   7.249 -0.2796 -0.2460 -0.1575
    3MOL    C39 1403   2.009   2.796   7.277  0.3636 -0.6968 -0.0595
    3MOL    C40 1404   1.972   2.744   7.420 -0.1056 -0.7553 -0.0752
    3MOL    C41 1405   2.017   2.606   7.457  0.7826 -0.0689  0.3677
    3MOL    C42 1406   2.050   2.587   7.606  0.5693  0.6665 -0.8480
    3MOL    C43 1407   2.107   2.443   7.630 -1.2336  0.7151 -0.0641
    3MOL    C44 1408   2.220   2.451   0.015 -0.3341  0.2193  0.0088
    3MOL    C45 1409   2.256   2.313   0.075  0.0589 -0.0118 -0.1593
    3MOL    C46 1410   2.361   2.319   0.188  0.1882 -0.7769  0.1115
    3MOL    C47 1411   2.320   2.416   0.300  0.2611 -0.3244  0.4113
    3MOL    O48 1412   2.221   2.391   0.373  0.2081 -0.1807  0.5607
    3MOL    H49 1413   2.111   2.836   7.006 -2.0041  0.8413 -3.0656
    3MOL    H50 1414   2.001   3.095   7.101 -1.2691  0.9031 -1.3997
    3MOL    H51 1415   1.915   2.975   7.030  1.6358 -2.4165 -0.9189
    3MOL    H52 1416   1.849   2.940   7.266 -0.1864  0.0990  0.4689
    3MOL    H53 1417   1.982   3.009   7.331  0.1470 -0.1480 -0.3688
    3MOL    H54 1418   1.976   2.731   7.197 -2.6862 -0.3151  0.8260
    3MOL    H55 1419   2.118   2.795   7.277  0.3620 -1.0417  1.3296
    3MOL    H56 1420   1.864   2.751   7.434 -0.3168 -2.4783 -0.7808
    3MOL    H57 1421   2.012   2.820   7.487 -1.8239  0.3736 -0.2885
    3MOL    H58 1422   2.111   2.593   7.403  1.7979  1.9848  1.5999
    3MOL    H59 1423   1.951   2.527   7.422 -0.7905  0.5079  1.9919
    3MOL    H60 1424   2.117   2.661   7.649 -0.7141  0.8038  0.9724
    3MOL    H61 1425   1.967   2.593   7.677  1.0110  0.7498 -0.3365
    3MOL    H62 1426   2.137   2.398   7.536 -0.6288  0.1981  0.3705
    3MOL    H63 1427   2.027   2.381   7.671  0.6316 -0.7890  1.3715
    3MOL    H64 1428   2.308   2.496   7.684 -0.9489  0.9248 -0.4855
    3MOL    H65 1429   2.194   2.515   0.099  0.9443  0.4733  0.2164
    3MOL    H66 1430   2.306   2.254   7.714  2.1299  1.4657 -0.0026
    3MOL    H67 1431   2.171   2.253   0.106  1.0981  0.0163  2.9271
    3MOL    H68 1432   2.454   2.358   0.147  0.6950 -0.7120  1.3084
    3MOL    H69 1433   2.377   2.217   0.224 -0.6452 -1.1081 -0.4464
    3MOL    N70 1434   2.382   2.536   0.304 -0.3038 -0.1807  0.2461
    3MOL    C71 1435   2.331   2.643   0.387 -0.2906  0.0424  0.4769
    3MOL    C72 1436   2.207   2.710   0.333  0.4931  0.8048  0.8050
    3MOL    C73 1437   2.170   2.829   0.431  0.7632  0.0267  0.2378
    3MOL    C74 1438   2.048   2.908   0.394  0.0224 -1.1400  0.0276
    3MOL    C75 1439   1.987   2.990   0.515 -0.0576  0.4276  0.2255
    3MOL    C76 1440   1.848   3.040   0.495  0.0495  0.3842  0.5730
    3MOL    C77 1441   1.795   3.124   0.615  0.5517 -0.5394  0.1375
    3MOL    C78 1442   1.682   3.212   0.579  0.4552  0.1130  0.7656
    3MOL    C79 1443   1.631   3.298   0.695 -0.2541 -0.4605  0.6661
    3MOL    C80 1444   1.517   3.397   0.669  0.8467 -0.1991 -0.1616
    3MOL    C81 1445   1.546   3.528   0.599 -0.0588  0.0214  0.4053
    3MOL    O82 1446   1.665   3.553   0.559  0.0804  0.6134 -0.2823
    3MOL    H83 1447   2.454   2.552   0.235 -0.3684 -1.2415 -0.0868
    3MOL    H84 1448   2.319   2.611   0.490 -0.9227  0.3073  0.4919
    3MOL    H85 1449   2.410   2.718   0.393  1.0465 -1.3641  0.6863
    3MOL    H86 1450   2.127   2.642   0.305  1.7285 -0.0361 -0.7900
    3MOL    H87 1451   2.240   2.758   0.241  2.2826  0.2799  1.1474
    3MOL    H88 1452   2.150   2.776   0.525 -1.5192  2.3593  1.1246
    3MOL    H89 1453   2.259   2.888   0.451  0.3127  0.6411  0.4478
    3MOL    H90 1454   1.968   2.839   0.365  1.6604 -3.3769  0.7004
    3MOL    H91 1455   2.068   2.970   0.307 -0.7099  0.4271  0.9494
    3MOL    H92 1456   2.055   3.072   0.537  0.0480  0.0604  1.2971
    3MOL    H93 1457   1.991   2.923   0.601 -1.4695  2.0784  1.6119
    3MOL    H94 1458   1.846   3.116   0.417 -1.0528  0.0877  0.2962
    3MOL    H95 1459   1.776   2.962   0.471  1.0856 -0.2004 -0.6744
    3MOL    H96 1460   1.870   3.192   0.655  0.6701  0.2972 -1.4631
    3MOL    H97 1461   1.759   3.054   0.691 -1.7586 -0.1915 -0.5907
    3MOL    H98 1462   1.714   3.276   0.497  0.7940 -0.2148  0.6421
    3MOL    H99 1463   1.600   3.152   0.540 -2.1250  2.4799  2.2848
    3MOL   H100 1464   1.713   3.333   0.758  2.2495 -2.5324 -1.3143
    3MOL   H101 1465   1.594   3.230   0.772  1.3681  0.5017  2.3512
    3MOL   H102 1466   1.461   3.422   0.759 -0.1772  1.2408 -1.1740
    3MOL   H103 1467   1.440   3.348   0.609 -1.3264  3.8367 -0.8434
    3MOL   N104 1468   1.441   3.609   0.581 -0.1409 -0.2677  0.7715
    3MOL   C105 1469   1.449   3.742   0.521 -0.2300 -0.0539  0.0966
    3MOL   C106 1470   1.476   3.737   0.373 -0.5190  0.5501 -0.3491
    3MOL   C107 1471   1.494   3.869   0.303 -0.0798  0.4159  0.0350
    3MOL   C108 1472   1.351   3.929   0.264  0.8280  0.8145 -0.2754
    3MOL   C109 1473   1.358   4.068   0.174 -0.7526  0.5058  0.3487
    3MOL   C110 1474   1.216   4.112   0.126  0.5804  0.4437 -0.2333
    3MOL   C111 1475   1.139   4.008   0.034  0.2374 -0.6517 -0.6548
    3MOL   C112 1476   1.178   4.008   7.607  0.3708  0.1439 -0.3658
    3MOL   C113 1477   1.137   4.114   7.519 -0.3722  0.2680  0.8233
    3MOL   C114 1478   1.149   4.091   7.367 -0.2056  0.8950 -0.8470
    3MOL   C115 1479   1.062   3.969   7.317 -0.3994  0.3888  0.4049
    3MOL   O116 1480   0.943   3.966   7.347  0.0839 -0.7592  0.4465
    3MOL   H117 1481   1.358   3.560   0.609  1.7499 -4.0513  0.1206
    3MOL   H118 1482   1.358   3.794   0.550 -0.6189 -0.5735 -0.1801
    3MOL   H119 1483   1.532   3.792   0.571  1.1209  1.5852 -3.5752
    3MOL   H120 1484   1.389   3.688   0.330 -3.2214  0.7899  4.4772
    3MOL   H121 1485   1.564   3.678   0.346 -1.5649 -0.7831 -0.8883
    3MOL   H122 1486   1.550   3.929   0.375  0.1014 -1.4081  1.4650
    3MOL   H123 1487   1.554   3.864   0.213  1.5678 -0.4179  1.1505
    3MOL   H124 1488   1.281   3.951   0.345  0.7739 -3.2657  0.8881
    3MOL   H125 1489   1.300   3.847   0.214 -1.0014  1.5973  0.2618
    3MOL   H126 1490   1.432   4.067   0.094 -0.7690 -0.0715  0.3355
    3MOL   H127 1491   1.399   4.147   0.236 -0.3912 -0.0224  0.7921
    3MOL   H128 1492   1.153   4.126   0.213 -2.4772  0.9310 -2.4645
    3MOL   H129 1493   1.211   4.208   0.075 -2.2264  1.3625  1.6596
    3MOL   H130 1494   1.034   4.037   0.038  0.1277 -1.2485  1.0082
    3MOL   H131 1495   1.157   3.908   0.073  2.2288 -0.6310 -1.4451
    3MOL   H132 1496   1.285   3.990   7.597  0.3940 -0.1516  0.4427
    3MOL   H133 1497   1.136   3.921   7.555  1.4889 -0.1319 -0.8064
    3MOL   H134 1498   1.200   4.202   7.533  1.4123 -1.1777  1.9937
    3MOL   H135 1499   1.039   4.153   7.549  0.1223  1.4402  0.9137
    3MOL   H136 1500   1.253   4.083   7.338 -0.2485  0.0564 -0.7952
    3MOL   H137 1501   1.117   4.188   7.329 -2.9011 -0.3088 -1.7876
    3MOL   N138 1502   1.127   3.876   7.248  0.1405 -0.0045 -0.8201
    3MOL   C139 1503   1.063   3.756   7.186  0.1981  0.0486  1.1102
    3MOL   C140 1504   1.094   3.625   7.273  0.3057 -0.5870  0.5160
    3MOL   C141 1505   1.063   3.631   7.416 -0.5524 -0.0037  0.5548
    3MOL   C142 1506   1.038   3.494   7.476  0.1642  0.2327 -0.1395
    3MOL   C143 1507   1.043   3.497   7.630  0.5190  0.5240  0.2172
    3MOL   C144 1508   0.988   3.621   7.704 -0.0961  0.2219  0.2154
    3MOL   C145 1509   0.975   3.619   0.143  0.0379 -0.3372  0.0145
    3MOL   C146 1510   0.925   3.762   0.192  0.3521  0.1860 -0.2531
    3MOL   C147 1511   0.777   3.766   0.223 -0.8452 -0.1885 -0.2745
    3MOL   C148 1512   0.725   3.912   0.219 -0.9629  0.7617  0.4071
    3MOL   C149 1513   0.746   3.992   0.350  0.3053 -0.0621  0.6884
    3MOL   O150 1514   0.768   3.937   0.457 -0.3486 -0.3314 -0.5294
    3MOL   H151 1515   1.226   3.884   7.233  0.5690  0.1403  1.8839
    3MOL   H152 1516   0.954   3.760   7.181  0.2409 -0.7747 -0.8312
    3MOL   H153 1517   1.097   3.749   7.083  0.4143 -1.0783  1.2602
    3MOL   H154 1518   1.197   3.592   7.263 -0.1279 -1.6228 -0.8550
    3MOL   H155 1519   1.032   3.544   7.234 -2.4180  1.4758  0.4115
    3MOL   H156 1520   1.158   3.671   7.452 -0.6195  0.9097 -0.2638
    3MOL   H157 1521   0.978   3.697   7.434 -1.4594 -1.2951  1.0367
    3MOL   H158 1522   1.107   3.422   7.431 -2.7031 -1.6164 -1.7786
    3MOL   H159 1523   0.947   3.451   7.434 -0.3036 -1.0101  2.0818
    3MOL   H160 1524   1.149   3.485   7.653 -0.3657 -3.2523  2.6621
    3MOL   H161 1525   0.985   3.414   7.669 -2.4125  1.9282 -0.9774
    3MOL   H162 1526   1.053   3.704   7.679 -0.5786  0.6961  0.5363
    3MOL   H163 1527   0.896   3.654   7.655  1.1517  1.2597 -1.4814
    3MOL   H164 1528   1.074   3.626   0.189  0.4178 -0.0218 -0.8335
    3MOL   H165 1529   0.913   3.537   0.179  1.7710 -1.1852  1.1764
    3MOL   H166 1530   0.986   3.804   0.272 -3.4277  0.4201  2.6064
    3MOL   H167 1531   0.946   3.839   0.118 -0.5422 -0.0236 -0.7231
    3MOL   H168 1532   0.759   3.718   0.319 -0.5341 -0.2847 -0.2619
    3MOL   H169 1533   0.736   3.700   0.147  0.5405 -0.0285 -1.1778
    3MOL   H170 1534   0.618   3.897   0.208 -0.6420  0.4603 -2.7235
    3MOL   H171 1535   0.767   3.966   0.134 -4.5547 -0.6321 -2.3886
    3MOL   N172 1536   0.737   4.124   0.335 -0.4452  0.2261 -0.1346
    3MOL   C173 1537   0.787   4.223   0.430 -0.1219  0.3426  0.8350
    3MOL   C174 1538   0.932   4.270   0.397  0.3387  0.1439  0.4838
    3MOL   C175 1539   0.959   4.326   0.257 -0.2605 -0.0352 -0.3962
    3MOL   C176 1540   0.898   4.463   0.238 -0.3330 -0.0375 -0.0804
    3MOL   C177 1541   0.927   4.543   0.112 -0.5581 -0.3710  0.1943
    3MOL   C178 1542   0.879   4.691   0.114  0.1240 -0.7542 -0.1436
    3MOL   C179 1543   0.729   4.717   0.127 -0.2754 -0.4885 -0.5657
    3MOL   C180 1544   0.670   4.696   7.703 -0.6957  0.0832  0.2001
    3MOL   C181 1545   0.535   4.767   7.685 -0.0816  0.1435  0.8147
    3MOL   C182 1546   0.470   4.745   7.545 -0.2107 -0.4866 -0.0657
    3MOL   C183 1547   0.494   4.619   7.463  0.3736  0.6027 -0.2274
    3MOL   O184 1548   0.438   4.510   7.493  0.2894  0.1896  0.6830
    3MOL   H185 1549   0.695   4.161   0.251 -1.4589  1.6425  0.9722
    3MOL   H186 1550   0.722   4.310   0.436  1.0070  1.3858 -1.4654
    3MOL   H187 1551   0.802   4.185   0.531  0.0466  2.6667  1.6936
    3MOL   H188 1552   0.985   4.175   0.406 -0.2053 -0.3755 -1.5207
    3MOL   H189 1553   0.967   4.346   0.467  0.0948 -1.0858  1.9662
    3MOL   H190 1554   1.065   4.344   0.235  0.1210 -2.5570 -0.8020
    3MOL   H191 1555   0.924   4.255   0.182  0.6738 -0.5983 -0.3107
    3MOL   H192 1556   0.928   4.526   0.321 -0.6217 -0.9788  0.7524
    3MOL   H193 1557   0.789   4.460   0.237 -0.3173 -0.6587 -1.4905
    3MOL   H194 1558   0.889   4.491   0.024 -0.4558 -0.8278  0.4191
    3MOL   H195 1559   1.036   4.544   0.103 -0.6459 -0.5466 -1.0239
    3MOL   H196 1560   0.916   4.743   0.202  1.2569 -0.2380 -0.9147
    3MOL   H197 1561   0.915   4.738   0.022  0.4474 -0.6095  0.0576
    3MOL   H198 1562   0.726   4.824   0.150 -1.7561 -0.3189 -1.5124
    3MOL   H199 1563   0.691   4.672   0.218 -1.8450 -1.1939 -1.5614
    3MOL   H200 1564   0.737   4.744   7.632 -1.4532  2.3395  0.9773
    3MOL   H201 1565   0.667   4.589   7.682  3.8662 -0.2394  0.7353
    3MOL   H202 1566   0.547   4.874   7.695  0.1358  0.2482 -0.5766
    3MOL   H203 1567   0.461   4.721   0.036  0.0600 -1.1238  0.1114
    3MOL   H204 1568   0.514   4.827   7.488 -0.5445 -1.4840 -1.7965
    3MOL   H205 1569   0.364   4.769   7.546  0.6373  3.6032 -1.0180
    3MOL   N206 1570   0.569   4.638   7.350  0.2991 -0.0297  0.5431
    3MOL   C207 1571   0.632   4.531   7.273 -0.6777  0.0134  0.0208
    3MOL   C208 1572   0.780   4.539   7.309  0.2963 -0.0537  0.3284
    3MOL   C209 1573   0.889   4.441   7.250  0.2514  0.0205 -0.0660
    3MOL   C210 1574   1.037   4.480   7.280 -0.5127 -0.2053  0.3303
    3MOL   C211 1575   1.076   4.496   7.428 -0.0188  0.2506 -0.2770
    3MOL   C212 1576   1.222   4.504   7.437  0.4566  0.4549 -0.1848
    3MOL   C213 1577   1.261   4.521   7.581 -0.1061 -0.3509  0.1044
    3MOL   C214 1578   1.394   4.445   7.606  0.1482  0.0438  0.3061
    3MOL   C215 1579   1.440   4.414   0.037  0.5013 -0.0731 -0.2148
    3MOL   C216 1580   1.489   4.534   0.119  0.1130 -0.1892 -0.2526
    3MOL   C217 1581   1.381   4.611   0.185  0.5184  0.6409 -1.1896
    3MOL   O218 1582   1.279   4.559   0.236  0.6859 -0.0573  0.0648
    3MOL   H219 1583   0.596   4.732   7.326 -1.4033 -0.2509 -2.4110
    3MOL   H220 1584   0.619   4.543   7.165 -3.1976 -5.6823 -0.4821
    3MOL   H221 1585   0.603   4.429   7.294  2.2921 -1.3297 -2.0464
    3MOL   H222 1586   0.776   4.540   7.418 -0.8715 -2.2104  0.3340
    3MOL   H223 1587   0.809   4.634   7.267  2.0515 -1.6887 -2.2688
    3MOL   H224 1588   0.866   4.342   7.289 -1.2254 -0.5190 -2.1825
    3MOL   H225 1589   0.877   4.427   7.142  2.0349 -0.8210 -0.1628
    3MOL   H226 1590   1.062   4.566   7.218 -3.2834 -0.2068 -0.8598
    3MOL   H227 1591   1.088   4.391   7.244  0.2115 -0.0480  0.9670
    3MOL   H228 1592   1.036   4.408   7.479 -0.7401  1.4234  1.2378
    3MOL   H229 1593   1.034   4.586   7.473  1.6219  1.8476 -1.8617
    3MOL   H230 1594   1.259   4.420   7.379  0.8315  1.2825 -1.1651
    3MOL   H231 1595   1.253   4.598   7.391 -1.6534  1.3908  0.2294
    3MOL   H232 1596   1.181   4.507   7.654 -0.2807 -1.1200 -0.2295
    3MOL   H233 1597   1.290   4.624   7.598 -0.6685  0.1109 -1.6520
    3MOL   H234 1598   1.382   4.341   7.574  3.2678 -0.8251  1.7997
    3MOL   H235 1599   1.481   4.497   7.567  1.2487 -3.6403 -2.5077
    3MOL   H236 1600   1.523   4.343   0.044  1.1754  0.6732 -0.5045
    3MOL   H237 1601   1.360   4.367   0.093  1.0078  0.2648  0.8034
    3MOL   H238 1602   1.555   4.598   0.060 -1.4591  0.9168 -0.8647
    3MOL   H239 1603   1.557   4.488   0.191  0.3107 -0.2631 -0.4862
    3MOL   N240 1604   1.398   4.741   0.188 -0.1838  0.2125  0.3299
    3MOL   C241 1605   1.328   4.849   0.261  0.2250 -0.1200 -1.1445
    3MOL   C242 1606   1.199   4.900   0.190 -0.2941 -0.6475  0.1886
    3MOL   C243 1607   1.143   5.028   0.239  0.4597 -0.4338 -0.3047
    3MOL   C244 1608   1.041   5.082   0.130  0.1676 -0.9589 -0.4580
    3MOL   C245 1609   0.942   5.192   0.179 -0.2507 -0.2642 -0.2198
    3MOL   C246 1610   0.811   5.197   0.087  0.2411 -0.5059 -0.2495
    3MOL   C247 1611   0.828   5.271   7.671  0.0919 -0.5930 -0.0033
    3MOL   C248 1612   0.716   5.266   7.569 -0.1912 -0.0016  0.0402
    3MOL   C249 1613   0.691   5.132   7.496 -0.4322 -0.8456 -0.2426
    3MOL   C250 1614   0.586   5.158   7.382 -0.6191  0.5817 -0.2478
    3MOL   C251 1615   0.587   5.060   7.264 -0.3995 -0.6232 -0.1769
    3MOL   O252 1616   0.642   4.949   7.277  0.0860  0.4861 -0.0844
    3MOL   H253 1617   1.475   4.772   0.131 -1.5400 -0.9343 -2.2188
    3MOL   H254 1618   1.399   4.931   0.270 -0.1839 -0.0222  1.7395
    3MOL   H255 1619   1.305   4.827   0.365  2.6012  1.7898 -0.1607
    3MOL   H256 1620   1.122   4.825   0.210  0.4258 -1.3296  0.4096
    3MOL   H257 1621   1.207   4.912   0.082 -1.4806  0.7428  0.2431
    3MOL   H258 1622   1.083   5.008   0.328 -1.5461  1.5243 -1.1716
    3MOL   H259 1623   1.213   5.110   0.256 -0.6426  0.4244  0.1531
    3MOL   H260 1624   0.981   4.993   0.113  1.7846 -2.0947 -0.3201
    3MOL   H261 1625   1.096   5.104   0.039  0.5908 -0.7933 -0.1643
    3MOL   H262 1626   0.993   5.288   0.191  0.3460 -0.7835  1.4998
    3MOL   H263 1627   0.903   5.160   0.276  0.9844 -1.5419 -0.1366
    3MOL   H264 1628   0.786   5.094   0.065  3.6800 -1.6344  0.8328
    3MOL   H265 1629   0.730   5.242   0.144  0.6174 -1.3989  1.0229
    3MOL   H266 1630   0.924   5.243   7.630 -0.8137 -1.6323 -1.4356
    3MOL   H267 1631   0.842   5.377   7.693 -0.9503  0.1437 -2.6491
    3MOL   H268 1632   0.623   5.290   7.622 -1.7943 -0.4601 -2.5007
    3MOL   H269 1633   0.750   5.337   7.494 -1.2959 -1.3231 -1.7333
    3MOL   H270 1634   0.646   5.065   7.570  0.8759  0.3430  1.6821
    3MOL   H271 1635   0.785   5.087   7.463  1.9707  1.6180  2.9413
    3MOL   H272 1636   0.609   5.258   7.344 -1.4378  1.3739  1.3172
    3MOL   H273 1637   0.483   5.158   7.417 -0.2299  1.5745  0.9332
    3MOL   N274 1638   0.528   5.098   7.155 -0.5129 -0.2756 -0.3945
    3MOL   C275 1639   0.507   5.012   7.044  0.1970 -0.0726 -0.3220
    3MOL   C276 1640   0.356   4.983   7.015 -0.6704  0.7992 -0.3871
    3MOL   C277 1641   0.299   4.887   7.123  0.0146  0.3450 -0.0601
    3MOL   C278 1642   0.158   4.836   7.097 -0.0431 -0.5481 -0.0798
    3MOL   C279 1643   0.130   4.711   7.176 -0.3300 -0.0995  0.1264
    3MOL   C280 1644   0.122   4.737   7.329 -0.7654  0.2775  0.3838
    3MOL   C281 1645   0.085   4.605   7.398  0.3740 -0.6412 -0.4181
    3MOL   C282 1646   0.076   4.614   7.556 -0.6999  0.0192 -0.1770
    3MOL   C283 1647   0.036   4.478   7.623  0.2232 -0.6151  0.1304
    3MOL   C284 1648   7.602   4.458   7.633  0.1812 -0.2949 -0.1343
    3MOL   C285 1649   7.534   4.528   0.040 -0.6847  0.0535 -0.3714
    3MOL   O286 1650   7.499   4.645   0.034 -0.5203  0.0959 -0.0094
    3MOL   H287 1651   0.467   5.178   7.168 -1.9797 -1.2026 -1.4876
    3MOL   H288 1652   0.556   4.915   7.047 -0.1879 -0.2892 -0.9100
    3MOL   H289 1653   0.552   5.066   6.960  0.4333 -2.0060 -1.4734
    3MOL   H290 1654   0.350   4.942   6.914 -1.6473 -2.9182  1.0830
    3MOL   H291 1655   0.299   5.076   7.012  1.2372  1.9680 -1.3685
    3MOL   H292 1656   0.369   4.805   7.138 -0.6373 -0.3420 -0.7148
    3MOL   H293 1657   0.297   4.946   7.215 -1.5157  0.2230 -0.0049
    3MOL   H294 1658   0.137   4.825   6.991  0.3388  1.8207 -0.4353
    3MOL   H295 1659   0.084   4.909   7.128  0.3161 -0.4546  0.5798
    3MOL   H296 1660   0.213   4.641   7.166 -0.7206 -1.1115  3.3578
    3MOL   H297 1661   0.034   4.671   7.145  0.0312  0.0659 -1.2552
    3MOL   H298 1662   0.217   4.779   7.362 -0.3637 -0.7211  0.5129
    3MOL   H299 1663   0.042   4.807   7.354 -1.3283  0.4543 -1.7762
    3MOL   H300 1664   0.150   4.524   7.367  1.6959 -0.8945  2.8291
    3MOL   H301 1665   7.701   4.575   7.364 -0.2297 -1.7227  2.1363
    3MOL   H302 1666   0.172   4.653   7.588 -0.7044 -0.0652 -0.0625
    3MOL   H303 1667   0.003   4.692   7.579 -1.0086  0.7993 -3.5433
    3MOL   H304 1668   0.094   4.463   7.714 -0.4310  0.2893  0.7127
    3MOL   H305 1669   0.073   4.402   7.555 -1.6965 -1.7811  0.3658
    3MOL   H306 1670   7.578   4.351   7.633  0.7644 -0.4282  0.3802
    3MOL   H307 1671   7.548   4.489   7.544 -0.2791  0.2571  0.3322
    3MOL   N308 1672   7.512   4.459   0.152 -0.0982  0.0075 -0.6896
    3MOL   C309 1673   7.466   4.522   0.276  0.2382 -0.0644  0.4600
    3MOL   C310 1674   7.495   4.430   0.394 -0.3469  0.5767 -0.5397
    3MOL   C311 1675   7.650   4.416   0.412 -0.0149  0.0088 -1.1744
    3MOL   C312 1676   7.682   4.368   0.556  0.0598  0.2783  0.5943
    3MOL   C313 1677   0.114   4.354   0.585 -0.3618  0.2400  0.1572
    3MOL   C314 1678   0.150   4.313   0.725  0.0252  0.2097 -0.0494
    3MOL   C315 1679   0.103   4.417   0.830 -0.1688  0.5395 -0.5887
    3MOL   C316 1680   0.189   4.420   0.963  0.9103  0.2769  0.7449
    3MOL   C317 1681   0.103   4.478   1.070  0.4356 -0.6541 -0.8250
    3MOL   C318 1682   0.185   4.509   1.200  0.5721  0.2604 -0.6653
    3MOL   C319 1683   0.096   4.560   1.317  0.0806  0.1190 -0.2370
    3MOL   O320 1684   0.003   4.496   1.364 -0.1872 -0.2339 -0.2742
    3MOL   H321 1685   7.542   4.362   0.148  1.5330  0.2768  3.3220
    3MOL   H322 1686   7.361   4.552   0.269 -0.2948 -2.0725 -0.7660
    3MOL   H323 1687   7.511   4.621   0.277 -1.4308  0.7095  0.2915
    3MOL   H324 1688   7.447   4.334   0.379  0.0912  0.3717 -0.6201
    3MOL   H325 1689   7.448   4.480   0.479 -2.3862 -0.5836 -0.9597
    3MOL   H326 1690   7.705   4.353   0.343  1.3665  0.0532 -0.1346
    3MOL   H327 1691   7.685   4.518   0.398  0.1336 -0.0703 -1.3880
    3MOL   H328 1692   7.635   4.270   0.565  0.9510  0.0308  2.9182
    3MOL   H329 1693   7.628   4.437   0.622  3.0306  1.9892  1.3155
    3MOL   H330 1694   0.166   4.443   0.547  0.0062 -0.5784 -1.2698
    3MOL   H331 1695   0.153   4.274   0.522 -0.6651 -0.0392  0.3267
    3MOL   H332 1696   0.124   4.211   0.753  0.7983 -0.0476 -0.2417
    3MOL   H333 1697   0.259   4.317   0.720 -0.0082  0.0038 -1.1288
    3MOL   H334 1698   7.715   4.394   0.853 -0.1309  2.1421  1.3022
    3MOL   H335 1699   0.111   4.514   0.781 -0.0825  1.9883  2.1974
    3MOL   H336 1700   0.221   4.321   0.997  2.1374  0.3015 -0.2886
    3MOL   H337 1701   0.277   4.478   0.934 -0.5813  0.9433 -2.5979
    3MOL   H338 1702   0.029   4.402   1.096  0.6037 -0.9980 -1.3246
    3MOL   H339 1703   0.046   4.564   1.036 -2.2040 -1.6193  0.9667
    3MOL   H340 1704   0.257   4.590   1.191  0.7393  0.3168  0.9073
    3MOL   H341 1705   0.237   4.416   1.222  0.8668  0.6393  0.2744
    3MOL   N342 1706   0.128   4.675   1.371 -0.0734 -0.4637 -0.1726
    3MOL   C343 1707   0.054   4.736   1.484 -1.0125  0.5247  0.5142
    3MOL   C344 1708   0.110   4.870   1.518  0.3859 -0.4113  0.3541
    3MOL   C345 1709   0.071   4.976   1.414 -0.0907 -0.0500  0.0179
    3MOL   C346 1710   0.132   5.117   1.425  0.0758  0.1539 -0.5726
    3MOL   C347 1711   0.052   5.226   1.352  0.1606  0.4378  0.3510
    3MOL   C348 1712   0.054   5.206   1.196  0.1648 -0.2295  0.6446
    3MOL   C349 1713   7.696   5.318   1.118 -0.6420 -0.8804 -0.3032
    3MOL   C350 1714   7.551   5.291   1.092 -0.6287  0.3928 -0.4019
    3MOL   C351 1715   7.481   5.396   1.005  0.0535 -0.1868 -0.4042
    3MOL   C352 1716   7.453   5.531   1.077 -0.5895 -0.8368 -0.5925
    3MOL   C353 1717   7.324   5.539   1.163  0.2668 -0.3474  0.2786
    3MOL   O354 1718   7.312   5.488   1.273 -0.4694 -0.2179 -0.4128
    3MOL   H355 1719   0.205   4.723   1.327  0.9230 -1.5524  0.3550
    3MOL   H356 1720   7.663   4.746   1.465 -1.1026 -0.7696  0.3401
    3MOL   H357 1721   0.054   4.671   1.572  1.5564 -0.1496  0.0704
    3MOL   H358 1722   0.216   4.861   1.542  0.3881  0.1717  0.5792
    3MOL   H359 1723   0.057   4.896   1.609  0.2235 -0.2714  0.2192
    3MOL   H360 1724   0.080   4.950   1.308 -0.5026 -2.6982  0.5995
    3MOL   H361 1725   7.679   4.991   1.422  0.1100  0.6547  1.5269
    3MOL   H362 1726   0.237   5.122   1.395 -0.1336 -1.2081 -1.6379
    3MOL   H363 1727   0.136   5.136   1.532  1.2717 -0.7142 -0.4538
    3MOL   H364 1728   0.112   5.313   1.379  1.9805 -0.3348 -1.0815
    3MOL   H365 1729   7.666   5.232   1.390 -0.3913 -1.3644 -0.8019
    3MOL   H366 1730   0.160   5.201   1.169 -0.0796  2.7327 -1.1247
    3MOL   H367 1731   7.715   5.114   1.178 -0.6296 -0.5303  4.2112
    3MOL   H368 1732   0.037   5.347   1.030  1.6868 -0.1009  1.3990
    3MOL   H369 1733   7.705   5.402   1.188 -1.6716 -1.3414  0.3970
    3MOL   H370 1734   7.535   5.190   1.056  0.9572  0.0672 -0.2304
    3MOL   H371 1735   7.505   5.290   1.190 -0.4744  3.0397 -0.2728
    3MOL   H372 1736   7.389   5.342   0.985  1.0309 -2.4241  0.9206
    3MOL   H373 1737   7.538   5.413   0.914 -2.8570  0.8634 -2.0851
    3MOL   H374 1738   7.459   5.617   1.011 -0.0039  0.1403  0.7080
    3MOL   H375 1739   7.538   5.544   1.145  2.2014 -1.9080 -3.7343
    3MOL   N376 1740   7.225   5.603   1.106 -0.1908 -0.3246 -0.2866
    3MOL   C377 1741   7.090   5.610   1.158  0.9300 -0.4483  0.2117
    3MOL   C378 1742   7.049   5.758   1.166 -0.0576  0.1221 -0.2805
    3MOL   C379 1743   6.987   5.797   1.303 -0.4409 -0.5344 -0.5590
    3MOL   C380 1744   7.079   5.869   1.409 -0.0397 -0.7928  0.4749
    3MOL   C381 1745   7.203   5.792   1.450  0.5613  0.2988  0.5023
    3MOL   C382 1746   7.285   5.856   1.555  0.0715  0.3670 -0.2543
    3MOL   C383 1747   7.395   5.762   1.616 -0.0981  0.1835 -0.1228
    3MOL   C384 1748   7.522   5.738   1.519 -0.0673  0.0135  0.1978
    3MOL   C385 1749   7.646   5.699   1.590 -0.2179 -0.1155  0.0729
    3MOL   C386 1750   0.037   5.665   1.486  0.1920  0.3082 -0.0605
    3MOL   C387 1751   0.161   5.599   1.542 -0.2083 -0.3599  0.2603
    3MOL   O388 1752   0.187   5.603   1.664 -0.0718 -0.1474 -0.5248
    3MOL   H389 1753   7.241   5.660   1.024  0.6766 -2.0489 -1.3349
    3MOL   H390 1754   7.020   5.564   1.088  3.8140 -2.3264 -1.5010
    3MOL   H391 1755   7.083   5.558   1.254  2.2262 -0.1444  0.4819
    3MOL   H392 1756   6.976   5.773   1.087 -0.9139 -2.9216 -0.1270
    3MOL   H393 1757   7.141   5.817   1.168 -1.6049  2.5854  2.5616
    3MOL   H394 1758   6.904   5.861   1.274  0.0754 -0.3462 -1.6299
    3MOL   H395 1759   6.940   5.709   1.348  0.2380 -0.8102 -0.3745
    3MOL   H396 1760   7.020   5.886   1.499 -2.2886  0.0571 -1.1277
    3MOL   H397 1761   7.099   5.971   1.377  0.4946 -1.1210 -0.2693
    3MOL   H398 1762   7.263   5.772   1.361 -0.3391 -0.2574  0.0174
    3MOL   H399 1763   7.169   5.695   1.486 -0.6205  1.1178  1.6244
    3MOL   H400 1764   7.335   5.944   1.516 -0.0819  0.7092  0.3290
    3MOL   H401 1765   7.208   5.885   1.627 -0.1578 -1.6236  0.3337
    3MOL   H402 1766   7.345   5.677   1.663 -2.0135  0.4358 -1.6332
    3MOL   H403 1767   7.427   5.811   1.708 -0.0021 -0.1590  0.0263
    3MOL   H404 1768   7.496   5.651   1.459  1.2397 -0.8064  0.7904
    3MOL   H405 1769   7.534   5.822   1.450 -1.5751  0.2784  0.2438
    3MOL   H406 1770   7.629   5.618   1.660  0.0783  0.3201  0.6543
    3MOL   H407 1771   7.682   5.778   1.656 -0.4693  1.6054 -1.7829
    3MOL   H408 1772   0.067   5.752   1.428 -0.1598  0.0277 -0.6703
    3MOL   H409 1773   0.009   5.596   1.407 -2.7598 -0.7017  1.7760
    3MOL   N410 1774   0.243   5.533   1.460 -0.2258 -0.2733  0.2170
    3MOL   C411 1775   0.354   5.450   1.517  0.3468  0.6104 -0.0384
    3MOL   C412 1776   0.437   5.391   1.410 -0.2880 -0.1399 -0.4905
    3MOL   C413 1777   0.530   5.500   1.353  0.0528  0.0567 -0.0202
    3MOL   C414 1778   0.623   5.447   1.245 -0.2138 -0.0738 -0.0635
    3MOL   C415 1779   0.728   5.338   1.288  0.1669  0.1895 -0.1921
    3MOL   C416 1780   0.789   5.255   1.176  0.3557 -0.2425 -0.1505
    3MOL   C417 1781   0.888   5.144   1.221  0.4730 -0.6042  0.1031
    3MOL   C418 1782   0.921   5.034   1.122 -0.1450  0.2492 -0.0978
    3MOL   C419 1783   1.008   4.916   1.177 -0.1713  0.9000  0.0353
    3MOL   C420 1784   1.019   4.808   1.064 -0.1433  0.1065 -0.0384
    3MOL   C421 1785   0.908   4.706   1.052 -0.3897  0.4692  0.2960
    3MOL   O422 1786   0.816   4.717   1.124 -0.1112 -0.0355  0.4210
    3MOL   H423 1787   0.211   5.524   1.365  0.5450  0.5522 -0.1256
    3MOL   H424 1788   0.410   5.514   1.586  2.2982 -0.0851 -0.9302
    3MOL   H425 1789   0.301   5.378   1.579  1.3048 -0.2677 -0.2149
    3MOL   H426 1790   0.375   5.345   1.333  0.7821 -1.9843 -0.2914
    3MOL   H427 1791   0.490   5.307   1.455  2.0255  0.1071 -2.6863
    3MOL   H428 1792   0.479   5.588   1.315 -0.6068  0.8585  2.5954
    3MOL   H429 1793   0.590   5.541   1.434 -0.0019  2.0605 -0.9782
    3MOL   H430 1794   0.680   5.529   1.203 -0.7185  0.2403 -0.1443
    3MOL   H431 1795   0.553   5.409   1.170  0.3979  2.7857 -2.1786
    3MOL   H432 1796   0.676   5.269   1.355 -0.7266  1.2575  0.2372
    3MOL   H433 1797   0.802   5.388   1.351  0.8560 -1.0962  0.0403
    3MOL   H434 1798   0.708   5.208   1.120 -0.5283 -0.7371  1.4977
    3MOL   H435 1799   0.831   5.319   1.099  0.7068 -0.6738 -0.3173
    3MOL   H436 1800   0.842   5.100   1.310 -1.8508 -0.9971 -1.2598
    3MOL   H437 1801   0.974   5.198   1.262 -0.1933 -0.5711  1.4995
    3MOL   H438 1802   0.826   4.989   1.092 -0.4430 -0.1644  1.4621
    3MOL   H439 1803   0.958   5.076   1.028 -0.2349  1.0729  0.2267
    3MOL   H440 1804   0.975   4.868   1.270 -0.7845  1.2241 -0.0155
    3MOL   H441 1805   1.111   4.948   1.192  0.1354 -0.3242  0.5930
    3MOL   H442 1806   1.109   4.750   1.085 -2.1184 -2.8615  0.6113
    3MOL   H443 1807   1.034   4.851   0.965  1.3443  0.4254  0.3128
    3MOL   N444 1808   0.930   4.610   0.969  0.1814  0.2120 -0.3477
    3MOL   C445 1809   0.848   4.486   0.955  0.1223 -0.4833  0.5481
    3MOL   C446 1810   0.791   4.462   0.811 -0.0335  1.3018  0.3910
    3MOL   C447 1811   0.653   4.534   0.791  0.0339  0.1249  1.3800
    3MOL   C448 1812   0.594   4.536   0.646  0.0267  0.2740 -0.2165
    3MOL   C449 1813   0.475   4.640   0.635 -0.3682 -0.5556  0.1605
    3MOL   C450 1814   0.401   4.646   0.496  0.1151  0.4272 -0.1808
    3MOL   C451 1815   0.274   4.730   0.482  0.1499 -0.6481  0.0992
    3MOL   C452 1816   0.227   4.744   0.337  0.7667 -0.0307  0.7274
    3MOL   C453 1817   0.097   4.819   0.332  0.2230 -0.1080 -0.2136
    3MOL   C454 1818   0.022   4.819   0.197 -0.9892  0.0136 -0.2727
    3MOL   C455 1819   7.622   4.914   0.203 -0.0193  0.1885 -0.4819
    3MOL   O456 1820   7.621   5.019   0.274 -0.3901  0.0493 -0.1986
    3MOL   H457 1821   0.995   4.631   0.895  0.5138 -0.1179 -0.1540
    3MOL   H458 1822   0.923   4.411   0.978 -1.0856 -2.7454 -2.6447
    3MOL   H459 1823   0.779   4.472   1.038  0.6818 -2.6750  0.6515
    3MOL   H460 1824   0.785   4.356   0.788 -0.7050  1.3952  0.1093
    3MOL   H461 1825   0.854   4.495   0.729 -0.2787  1.7366  0.3769
    3MOL   H462 1826   0.585   4.492   0.865  1.3781  1.9051  3.6806
    3MOL   H463 1827   0.663   4.640   0.813 -0.8456  0.8392 -1.4231
    3MOL   H464 1828   0.553   4.437   0.625  0.4595 -0.1834  1.0267
    3MOL   H465 1829   0.679   4.550   0.579  1.0082  1.1629  1.1860
    3MOL   H466 1830   0.506   4.735   0.677  2.8631 -1.2190 -0.6355
    3MOL   H467 1831   0.407   4.594   0.707 -0.2673 -1.0570 -0.0639
    3MOL   H468 1832   0.476   4.665   0.419 -0.8982  2.3082 -0.7262
    3MOL   H469 1833   0.366   4.552   0.456  0.5010  0.8051 -1.4350
    3MOL   H470 1834   0.297   4.835   0.502  1.2253 -1.1377  1.5814
    3MOL   H471 1835   0.200   4.692   0.553  0.5522 -1.5241  0.0551
    3MOL   H472 1836   0.296   4.803   0.277  1.8203 -2.2752 -0.3342
    3MOL   H473 1837   0.216   4.646   0.291  2.5950  0.6264 -1.2000
    3MOL   H474 1838   0.120   4.924   0.353  1.0254  0.0653 -1.9090
    3MOL   H475 1839   0.028   4.774   0.403 -0.1482 -2.0932 -1.8049
    3MOL   H476 1840   7.700   4.725   0.156  0.5325 -1.0107  0.6023
    3MOL   H477 1841   0.083   4.865   0.120  0.7527 -1.3385  0.2736
    3MOL   N478 1842   7.534   4.889   0.107  0.0973  0.1448  0.0198
    3MOL   C479 1843   7.432   4.980   0.064  0.4875  0.7226 -0.4864
    3MOL   C480 1844   7.464   5.053   7.655 -0.2192 -0.4986 -0.3849
    3MOL   C481 1845   7.503   4.953   7.544  0.0137  0.2385 -0.0607
    3MOL   C482 1846   7.540   5.022   7.409 -1.0778  0.0044 -0.2120
    3MOL   C483 1847   7.423   5.027   7.320 -0.4706  0.4562 -0.5720
    3MOL   C484 1848   7.438   5.101   7.188  0.3204 -0.7426  0.9937
    3MOL   C485 1849   7.303   5.100   7.107  0.1772 -0.3640  0.0662
    3MOL   C486 1850   7.294   5.183   6.982 -0.8238 -0.6727  0.1732
    3MOL   C487 1851   7.322   5.328   7.015 -0.5344 -0.0947  0.0344
    3MOL   C488 1852   7.322   5.412   6.891 -0.0917 -0.5826 -0.1208
    3MOL   C489 1853   7.377   5.558   6.913  0.1495 -0.3642 -0.3780
    3MOL   O490 1854   7.489   5.595   6.874 -0.1225  0.1700 -0.2923
    3MOL   H491 1855   7.540   4.796   0.067  3.0286 -0.1690  1.0173
    3MOL   H492 1856   7.336   4.927   0.061  0.5777  0.6218 -2.2834
    3MOL   H493 1857   7.408   5.061   0.133  1.7656 -0.7870  1.8120
    3MOL   H494 1858   7.539   5.132   7.660  0.3590 -0.9280 -1.7169
    3MOL   H495 1859   7.371   5.098   7.621 -0.2058 -1.0567 -1.1937
    3MOL   H496 1860   7.593   4.902   7.577 -0.8559 -0.6542  0.9805
    3MOL   H497 1861   7.429   4.876   7.520  0.8646 -1.2272  1.8590
    3MOL   H498 1862   7.618   4.957   7.370  0.4154 -0.5405  3.4571
    3MOL   H499 1863   7.577   5.124   7.423 -2.9689  0.3738  2.4504
    3MOL   H500 1864   7.339   5.076   7.370 -0.6360  0.6433 -1.0294
    3MOL   H501 1865   7.397   4.923   7.302 -1.4737  0.4827  0.6477
    3MOL   H502 1866   7.455   5.205   7.214  1.1038 -0.0678 -2.0611
    3MOL   H503 1867   7.511   5.057   7.121 -0.2138 -0.0573 -0.0594
    3MOL   H504 1868   7.222   5.135   7.171 -1.3020 -1.3255 -1.2257
    3MOL   H505 1869   7.276   4.995   7.092 -1.0251 -0.2220  1.1213
    3MOL   H506 1870   7.366   5.139   6.912 -0.3192  0.7014 -0.1822
    3MOL   H507 1871   7.199   5.174   6.930 -1.8838 -0.2006  1.9693
    3MOL   H508 1872   7.418   5.339   7.066 -0.3568 -1.5213  0.0473
    3MOL   H509 1873   7.245   5.355   7.087 -1.2777  0.7850 -1.0793
    3MOL   H510 1874   7.228   5.419   6.837 -0.5586  0.2620  0.7857
    3MOL   H511 1875   7.394   5.364   6.826  0.5701 -0.0969  0.2433
    3MOL   N512 1876   7.285   5.639   6.959  0.2834  0.5822 -0.0153
    3MOL   C513 1877   7.306   5.784   6.980  0.0557  0.6301  0.5413
    3MOL   C514 1878   7.366   5.803   7.121 -0.3672  0.5019 -0.1985
    3MOL   C515 1879   7.407   5.945   7.136 -0.1011 -0.9535 -0.6783
    3MOL   C516 1880   7.455   5.982   7.290 -0.5315  0.0291  0.2125
    3MOL   C517 1881   7.589   5.924   7.315  0.0725 -0.4235  0.3603
    3MOL   C518 1882   7.623   5.909   7.465  0.1550  0.0626  0.2931
    3MOL   C519 1883   0.002   5.797   7.491  0.6361 -0.4484  0.4681
    3MOL   C520 1884   0.001   5.753   7.638  0.2454 -0.2506  0.1764
    3MOL   C521 1885   0.103   5.648   7.675 -0.2824  0.0609  0.2563
    3MOL   C522 1886   0.094   5.570   0.096  0.3399  0.5798 -0.2345
    3MOL   C523 1887   7.703   5.459   0.104 -0.4524 -0.5619 -0.1658
    3MOL   O524 1888   7.713   5.354   0.044 -0.0232  0.3634 -0.0823
    3MOL   H525 1889   7.195   5.606   6.989  1.0812 -2.9679 -1.2328
    3MOL   H526 1890   7.372   5.827   6.905 -0.4815  1.5456  0.5988
    3MOL   H527 1891   7.211   5.831   6.959 -0.3319  0.0042  0.8713
    3MOL   H528 1892   7.453   5.738   7.131 -2.1946 -2.4039 -2.4263
    3MOL   H529 1893   7.306   5.771   7.206 -0.7728  0.8741 -0.3395
    3MOL   H530 1894   7.490   5.970   7.070 -0.3366  0.5270 -0.4422
    3MOL   H531 1895   7.327   6.008   7.097 -0.7217 -0.2444  1.6502
    3MOL   H532 1896   7.378   5.942   7.356 -1.7267 -0.8535 -1.6588
    3MOL   H533 1897   7.455   6.090   7.308 -2.1916  0.0665  0.0975
    3MOL   H534 1898   7.663   5.993   7.276  0.3157  0.7426  2.8217
    3MOL   H535 1899   7.608   5.830   7.262  1.2719  0.0870 -0.1387
    3MOL   H536 1900   7.673   6.000   7.499 -1.3536  1.1061 -0.2048
    3MOL   H537 1901   7.531   5.911   7.523  0.0193  0.3483  0.0729
    3MOL   H538 1902   0.103   5.819   7.457  0.7945 -0.9183  0.6409
    3MOL   H539 1903   7.689   5.716   7.425 -0.1358 -1.2630  1.7872
    3MOL   H540 1904   0.021   5.839   7.702 -0.1796 -0.4129  0.5313
    3MOL   H541 1905   7.613   5.735   7.664 -0.2173  0.1077 -1.4108
    3MOL   H542 1906   0.203   5.687   7.658  0.4862 -1.1686  1.8701
    3MOL   H543 1907   0.099   5.570   7.599 -1.7793 -0.3548  0.7528
    3MOL   H544 1908   0.081   5.645   0.174 -2.1926  0.0036 -0.0274
    3MOL   H545 1909   0.185   5.522   0.131  0.0809  0.1450 -0.1449
    3MOL   N546 1910   7.599   5.496   0.190  0.7894  0.4153  0.5600
    3MOL   C547 1911   7.503   5.399   0.243  0.0299  0.0548  0.3570
    3MOL   C548 1912   7.363   5.404   0.170  0.4698  0.7443  0.1711
    3MOL   C549 1913   7.244   5.343   0.252 -0.1555 -0.0787  0.1015
    3MOL   C550 1914   7.114   5.308   0.171 -0.0729  0.6266 -0.0407
    3MOL   C551 1915   7.133   5.165   0.116 -0.1816 -0.0897 -0.5892
    3MOL   C552 1916   7.001   5.104   0.080 -0.3880 -0.3528 -0.6768
    3MOL   C553 1917   7.003   4.975   0.002 -0.4437  0.1619  0.3889
    3MOL   C554 1918   6.877   4.910   7.668  0.0055 -0.2404 -0.5656
    3MOL   C555 1919   6.814   4.822   0.065 -0.5408 -0.8716  0.1898
    3MOL   C556 1920   6.701   4.731   0.001  0.4701 -0.1863 -0.6542
    3MOL   C557 1921   6.762   4.599   7.671  0.5201  0.2045  0.1848
    3MOL   O558 1922   6.885   4.573   7.672  0.4034 -0.4807 -0.2622
    3MOL   H559 1923   7.578   5.586   0.230  1.0569  0.9531 -0.5109
    3MOL   H560 1924   7.547   5.300   0.252  1.6225  0.7508  0.4108
    3MOL   H561 1925   7.476   5.435   0.342 -1.6450  0.6569 -0.3009
    3MOL   H562 1926   7.376   5.360   0.071  4.6819 -0.6299  1.2199
    3MOL   H563 1927   7.338   5.508   0.148  1.3443  1.3329  1.8902
    3MOL   H564 1928   7.276   5.250   0.298 -1.2252 -0.1391  0.7597
    3MOL   H565 1929   7.207   5.409   0.330  2.6301  1.3498  0.2626
    3MOL   H566 1930   7.082   5.381   0.097  0.2739  2.2912  1.4143
    3MOL   H567 1931   7.038   5.302   0.249  0.0147 -0.7571 -0.0460
    3MOL   H568 1932   7.176   5.098   0.191 -0.8912  1.4698  1.2580
    3MOL   H569 1933   7.199   5.159   0.030  0.3305 -1.7809 -0.0996
    3MOL   H570 1934   6.939   5.104   0.170 -1.7218  1.3851 -1.5657
    3MOL   H571 1935   6.946   5.174   0.017  2.7708  0.4265 -2.6886
    3MOL   H572 1936   7.057   4.899   0.058 -1.5602 -1.7537 -1.0313
    3MOL   H573 1937   7.064   5.004   7.632 -1.1491 -2.3353 -1.0276
    3MOL   H574 1938   6.803   4.985   7.640 -0.1212 -1.1073 -2.6151
    3MOL   H575 1939   6.906   4.852   7.580 -2.1231 -0.0998 -1.3886
    3MOL   H576 1940   6.763   4.902   0.120 -2.0174 -1.0667 -0.8689
    3MOL   H577 1941   6.884   4.764   0.125 -0.2147 -2.5034 -1.7167
    3MOL   H578 1942   6.646   4.778   7.634 -0.9478 -0.5300  0.0685
    3MOL   H579 1943   6.625   4.719   0.078 -0.4249  0.1381 -1.4637
    3MOL   N580 1944   6.676   4.510   7.618  0.0437 -0.0138 -0.1327
    3MOL   C581 1945   6.719   4.378   7.563 -0.0308  0.2862  0.0893
    3MOL   C582 1946   6.807   4.391   7.438  0.2335 -0.0098  0.2158
    3MOL   C583 1947   6.818   4.249   7.375 -0.5286 -0.6122 -0.5575
    3MOL   C584 1948   6.915   4.232   7.256  0.0413  0.6901 -0.6302
    3MOL   C585 1949   6.884   4.316   7.132  0.5624 -0.8573  0.5121
    3MOL   C586 1950   6.755   4.285   7.059 -0.6658 -0.6529 -0.0357
    3MOL   C587 1951   6.765   4.149   6.975 -0.1918 -0.0296  0.2587
    3MOL   C588 1952   6.636   4.118   6.891 -0.0522 -0.5573 -0.3963
    3MOL   C589 1953   6.633   3.979   6.822 -0.2188 -0.3634 -0.0420
    3MOL   C590 1954   6.492   3.956   6.746 -0.1226 -0.1905  0.5670
    3MOL   C591 1955   6.509   3.827   6.667  0.4974  0.0469  0.5132
    3MOL   O592 1956   6.611   3.799   6.606  0.4346  0.1841 -0.0643
    3MOL   H593 1957   6.576   4.526   7.610  0.2639  2.6268  1.8811
    3MOL   H594 1958   6.767   4.324   7.645  0.8911 -0.5295 -0.9850
    3MOL   H595 1959   6.626   4.324   7.547 -0.0216 -0.0129  1.0160
    3MOL   H596 1960   6.904   4.439   7.452  1.0927 -1.2988 -1.1732
    3MOL   H597 1961   6.755   4.452   7.364  0.4888  1.4350  1.1930
    3MOL   H598 1962   6.846   4.176   7.451 -0.5759  0.4908  0.5221
    3MOL   H599 1963   6.720   4.222   7.335  0.8385 -3.1036 -2.3553
    3MOL   H600 1964   6.909   4.126   7.235 -1.6038  0.4663  0.8700
    3MOL   H601 1965   7.017   4.248   7.291  0.1482 -2.2895  0.5703
    3MOL   H602 1966   6.956   4.309   7.050  0.1905  0.3917  0.0660
    3MOL   H603 1967   6.876   4.424   7.148 -0.2979 -0.7439 -0.6161
    3MOL   H604 1968   6.674   4.267   7.131  0.1077 -0.3128  0.9258
    3MOL   H605 1969   6.739   4.367   6.989  0.1590  1.4814  2.2206
    3MOL   H606 1970   6.788   4.064   7.040 -0.2155  0.5365  1.0173
    3MOL   H607 1971   6.848   4.155   6.904 -0.6384 -0.1847 -0.2741
    3MOL   H608 1972   6.546   4.134   6.950 -1.4506  0.1321 -2.6720
    3MOL   H609 1973   6.639   4.185   6.806  1.8485 -0.9199 -0.6514
    3MOL   H610 1974   6.636   3.895   6.892 -2.3892 -1.0718 -0.7427
    3MOL   H611 1975   6.708   3.970   6.743  0.9559  2.3843  0.7021
    3MOL   H612 1976   6.459   4.038   6.681  0.6070  0.4131  0.9618
    3MOL   H613 1977   6.418   3.942   6.825 -0.6307 -2.0570 -0.2128
    3MOL   N614 1978   6.413   3.737   6.680  0.4222 -0.8465  0.5192
    3MOL   C615 1979   6.279   3.743   6.733  0.5182 -0.1096 -0.1659
    3MOL   C616 1980   6.202   3.609   6.702  0.2310 -0.7080  0.7528
    3MOL   C617 1981   6.049   3.616   6.757 -0.2833  0.7546  0.3201
    3MOL   C618 1982   5.957   3.505   6.703  0.6663  0.2565 -0.0185
    3MOL   C619 1983   5.827   3.480   6.787  0.2796 -0.2584 -0.9680
    3MOL   C620 1984   5.730   3.600   6.796 -0.2061  0.8634  0.2023
    3MOL   C621 1985   5.642   3.614   6.670  0.1221  0.3947 -0.0826
    3MOL   C622 1986   5.595   3.754   6.630 -0.1975  0.0961 -0.3146
    3MOL   C623 1987   5.493   3.773   6.512 -0.0694  0.7314 -0.0896
    3MOL   C624 1988   5.565   3.753   6.374  0.4071  0.0176 -0.2101
    3MOL   C625 1989   5.657   3.860   6.329  0.8878 -0.2886  0.6753
    3MOL   O626 1990   5.654   3.973   6.389  0.5268  0.1381 -0.0919
    3MOL   H627 1991   6.433   3.644   6.645 -0.7691 -0.9883  0.1776
    3MOL   H628 1992   6.223   3.832   6.706  1.6574  0.7427  0.2406
    3MOL   H629 1993   6.275   3.757   6.841 -2.1037 -1.3782 -0.0736
    3MOL   H630 1994   6.246   3.511   6.721  0.3924 -1.0231 -1.1286
    3MOL   H631 1995   6.192   3.606   6.594 -0.8786  1.0111  0.7909
    3MOL   H632 1996   6.061   3.591   6.862 -0.8866  1.5821  0.5960
    3MOL   H633 1997   6.002   3.715   6.751  2.0490  1.8645 -0.4183
    3MOL   H634 1998   6.021   3.418   6.700 -0.1901 -0.3509 -1.4923
    3MOL   H635 1999   5.922   3.528   6.602 -1.9559 -0.8258  0.6001
    3MOL   H636 2000   5.849   3.443   6.887 -2.7582 -3.7366 -1.4750
    3MOL   H637 2001   5.786   3.390   6.741 -1.0481 -0.2767  0.2375
    3MOL   H638 2002   5.668   3.596   6.886  0.2024  0.9621  0.4896
    3MOL   H639 2003   5.796   3.687   6.798 -0.8661  1.3928 -0.9527
    3MOL   H640 2004   5.550   3.556   6.680  0.7170 -0.1301  3.1195
    3MOL   H641 2005   5.692   3.561   6.589  0.4099  0.1623  0.2449
    3MOL   H642 2006   5.549   3.799   6.718  2.2985 -0.6199  1.4149
    3MOL   H643 2007   5.677   3.825   6.617 -0.0429 -0.4446 -2.5426
    3MOL   H644 2008   5.443   3.870   6.513  0.8469  1.2249 -0.6813
    3MOL   H645 2009   5.406   3.709   6.523 -0.9162  2.0681  1.2053
    3MOL   H646 2010   5.496   3.742   6.290  0.1527 -2.2101  0.2599
    3MOL   H647 2011   5.623   3.661   6.384  0.4438  0.2173  1.6169
    3MOL   N648 2012   5.725   3.833   6.215  0.2189 -0.2142  0.2568
    3MOL   C649 2013   5.806   3.924   6.139 -0.1864  0.4015 -0.2675
    3MOL   C650 2014   5.904   3.846   6.045 -0.5083 -0.2437 -0.1221
    3MOL   C651 2015   6.000   3.948   5.986 -0.7185 -0.5162  0.4839
    3MOL   C652 2016   6.087   3.897   5.869  0.3138 -0.3890 -0.7756
    3MOL   C653 2017   6.135   4.024   5.803 -0.5150 -0.1609  0.9822
    3MOL   C654 2018   6.229   3.995   5.679 -0.4213  0.6660  0.3014
    3MOL   C655 2019   6.280   4.120   5.596  0.1001  0.6925 -0.7405
    3MOL   C656 2020   6.367   4.214   5.677 -0.5692 -0.9224 -0.3526
    3MOL   C657 2021   6.438   4.327   5.599  0.7204 -0.6489  0.2749
    3MOL   C658 2022   6.559   4.386   5.677  0.1633 -0.1229 -0.1066
    3MOL   C659 2023   6.636   4.496   5.610  0.2500 -0.2324  0.6700
    3MOL   O660 2024   6.697   4.476   5.504  0.5331 -0.0468 -0.0895
    3MOL   H661 2025   5.713   3.745   6.166  1.5348 -1.0601  1.4294
    3MOL   H662 2026   5.871   3.982   6.205 -1.1822  0.2710  0.8403
    3MOL   H663 2027   5.736   3.984   6.082 -1.4980  0.0007  0.8796
    3MOL   H664 2028   5.846   3.793   5.969 -0.2855 -0.2634 -0.2773
    3MOL   H665 2029   5.950   3.774   6.113 -1.6601 -0.2489  0.6701
    3MOL   H666 2030   5.939   4.030   5.951 -0.6895 -0.4365  0.6176
    3MOL   H667 2031   6.059   3.999   6.063 -2.5786 -0.2857  1.7794
    3MOL   H668 2032   6.037   3.841   5.790 -0.4911 -1.6416  0.5958
    3MOL   H669 2033   6.170   3.836   5.905  0.0806  1.1237  2.5165
    3MOL   H670 2034   6.181   4.089   5.877 -0.5494  1.8878 -0.7293
    3MOL   H671 2035   6.045   4.071   5.765  0.2962 -0.3251 -1.2744
    3MOL   H672 2036   6.308   3.931   5.716 -0.7898  1.1038  1.8507
    3MOL   H673 2037   6.172   3.930   5.612  0.6228  0.6319 -0.5687
    3MOL   H674 2038   6.196   4.177   5.558  0.1725  0.7843 -0.7619
    3MOL   H675 2039   6.326   4.079   5.507 -0.6532 -0.8274 -0.4490
    3MOL   H676 2040   6.315   4.269   5.756  3.7118  0.6097  1.5239
    3MOL   H677 2041   6.450   4.164   5.727  0.1380  2.2542  1.7495
    3MOL   H678 2042   6.370   4.408   5.574 -0.9747 -1.6082  1.7602
    3MOL   H679 2043   6.487   4.292   5.508 -0.9611  3.3819 -2.3177
    3MOL   H680 2044   6.622   4.299   5.695  0.8817  0.0536 -1.6683
    3MOL   H681 2045   6.526   4.416   5.776 -0.5532  1.0459 -0.6769
    3MOL   H682 2046   6.637   4.596   5.654  0.4706 -0.3306  0.8823
    4MOL     N1 2047   3.672   3.504   2.931  0.3146 -0.8741 -0.2068
    4MOL     C2 2048   3.632   3.640   2.935 -0.1096 -0.1724  0.5163
    4MOL     C3 2049   3.586   3.674   2.793 -0.4500  0.1150  0.2263
    4MOL     C4 2050   3.531   3.824   2.796 -0.5477  0.1570 -0.6555
    4MOL     C5 2051   3.505   3.868   2.646  0.3502 -0.2682 -0.2438
    4MOL     C6 2052   3.434   4.005   2.639 -0.9764  0.0483  0.1268
    4MOL     C7 2053   3.379   4.031   2.498  0.0544 -0.2456 -0.3693
    4MOL     C8 2054   3.268   4.140   2.503 -0.3611  0.1041  0.3682
    4MOL     C9 2055   3.336   4.279   2.521  0.8233 -0.0849 -0.3006
    4MOL    C10 2056   3.237   4.400   2.535  0.1775 -0.4623 -0.5762
    4MOL    C11 2057   3.161   4.435   2.412  0.1491 -0.2286  0.6774
    4MOL    C12 2058   3.252   4.483   2.291  0.4034 -0.3933 -0.1154
    4MOL    O13 2059   3.339   4.576   2.299 -0.3898 -0.1606 -0.1741
    4MOL    H14 2060   3.703   3.469   3.021  0.0743  1.7141  0.9436
    4MOL    H15 2061   3.709   3.706   2.974 -0.9270  1.7324 -1.0060
    4MOL    H16 2062   3.535   3.630   2.985 -0.2342  1.2094  0.5692
    4MOL    H17 2063   3.504   3.615   2.753 -0.1814  0.6173 -1.0979
    4MOL    H18 2064   3.665   3.668   2.718  2.1590  0.9000  2.8183
    4MOL    H19 2065   3.436   3.832   2.850 -0.3555  1.2172 -0.4698
    4MOL    H20 2066   3.600   3.887   2.851 -1.4687 -1.4098  2.3851
    4MOL    H21 2067   3.453   3.779   2.609  2.2971 -0.9375 -1.4814
    4MOL    H22 2068   3.594   3.851   2.585  0.5320 -2.5390  0.5903
    4MOL    H23 2069   3.488   4.093   2.674  2.2768 -1.8770  0.1114
    4MOL    H24 2070   3.349   3.984   2.704 -2.5059 -2.1546 -2.4927
    4MOL    H25 2071   3.459   4.058   2.428  0.1256  0.8312  0.1153
    4MOL    H26 2072   3.341   3.941   2.450  1.0735 -2.1298  2.2359
    4MOL    H27 2073   3.195   4.120   2.581  0.7258  1.0490  1.6490
    4MOL    H28 2074   3.209   4.155   2.412  1.1606 -0.4187 -0.7272
    4MOL    H29 2075   3.396   4.274   2.612  2.2918 -1.7974 -1.3227
    4MOL    H30 2076   3.404   4.290   2.436 -0.0311 -1.9124 -1.2532
    4MOL    H31 2077   3.295   4.483   2.575 -0.0780 -0.1372 -0.8813
    4MOL    H32 2078   3.158   4.384   2.608  0.6962 -0.1970  0.0470
    4MOL    H33 2079   3.087   4.511   2.439  2.1564  2.1759 -0.3370
    4MOL    H34 2080   3.101   4.354   2.371  1.2023 -0.1941 -0.9694
    4MOL    H35 2081   3.760   3.507   2.882  0.1598  0.6326 -0.4358
    4MOL    N36 2082   3.221   4.425   2.179  0.2464  0.6847 -0.3308
    4MOL    C37 2083   3.281   4.448   2.047 -0.1782  0.6187  0.6550
    4MOL    C38 2084   3.418   4.376   2.039 -0.0437 -0.1350 -0.0665
    4MOL    C39 2085   3.408   4.225   2.027  0.4387  0.7065  0.1079
    4MOL    C40 2086   3.542   4.157   2.039 -0.1381  0.0056  0.2526
    4MOL    C41 2087   3.551   3.999   2.046  0.0574  0.2188 -0.3515
    4MOL    C42 2088   3.694   3.948   2.076  0.0467  0.2609  0.4667
    4MOL    C43 2089   3.706   3.806   2.145 -0.2643  0.0301  0.2105
    4MOL    C44 2090   3.852   3.766   2.189  0.4251 -0.0065  0.2302
    4MOL    C45 2091   3.863   3.633   2.251 -0.0076  0.1199 -0.1822
    4MOL    C46 2092   3.859   3.512   2.153  0.1934 -0.1221  0.5894
    4MOL    C47 2093   3.805   3.385   2.225  0.0037  0.1997 -0.5256
    4MOL    O48 2094   3.852   3.353   2.329 -0.8175  0.1880  0.2083
    4MOL    H49 2095   3.147   4.357   2.167 -0.7038  2.0591 -2.6254
    4MOL    H50 2096   3.217   4.404   1.970 -0.2369 -1.8220  2.0442
    4MOL    H51 2097   3.299   4.553   2.025  1.9458  0.4433  1.3520
    4MOL    H52 2098   3.475   4.402   2.128  0.3597  2.4526 -1.0309
    4MOL    H53 2099   3.465   4.422   1.952 -1.7555 -1.0179 -1.5105
    4MOL    H54 2100   3.342   4.195   2.108 -0.1714 -1.2409 -1.0837
    4MOL    H55 2101   3.346   4.180   1.950  0.3249 -1.3430  1.3651
    4MOL    H56 2102   3.589   4.199   2.127  1.1740 -1.0129  0.0560
    4MOL    H57 2103   3.598   4.189   1.951 -0.2817 -0.7683 -0.1280
    4MOL    H58 2104   3.514   3.957   1.952 -0.7955  0.6776 -0.2309
    4MOL    H59 2105   3.479   3.967   2.122 -0.2578  1.8058  0.0328
    4MOL    H60 2106   3.747   3.937   1.981 -0.5742 -1.8500  0.3395
    4MOL    H61 2107   3.752   4.023   2.131 -0.7696  0.8811  0.4852
    4MOL    H62 2108   3.670   3.722   2.085  1.2012 -2.0312  2.1280
    4MOL    H63 2109   3.635   3.788   2.226  0.2848  0.0577  0.6984
    4MOL    H64 2110   3.926   3.762   2.109 -0.5292 -0.8524 -0.6292
    4MOL    H65 2111   3.900   3.845   2.247 -1.3469  1.1500  0.1539
    4MOL    H66 2112   3.804   3.630   2.343  0.7233  1.1877  0.3335
    4MOL    H67 2113   3.965   3.623   2.287  0.4144  1.2863 -1.0590
    4MOL    H68 2114   3.956   3.490   2.109  0.2173  0.1161  0.5201
    4MOL    H69 2115   3.786   3.523   2.073  0.5668 -0.1193  0.2479
    4MOL    N70 2116   3.699   3.325   2.170 -0.0875  0.3344 -0.7735
    4MOL    C71 2117   3.616   3.221   2.230  0.1413 -0.4464 -0.3057
    4MOL    C72 2118   3.626   3.098   2.141 -0.0547  0.2025 -0.3688
    4MOL    C73 2119   3.543   2.976   2.184 -0.2642 -0.3812  0.5256
    4MOL    C74 2120   3.559   2.849   2.092  0.0514  0.2565  0.3261
    4MOL    C75 2121   3.490   2.863   1.953 -0.9387  0.0107  0.1755
    4MOL    C76 2122   3.491   2.742   1.861  0.5451 -1.0466  0.0045
    4MOL    C77 2123   3.622   2.700   1.807 -1.3967  0.2011 -0.0627
    4MOL    C78 2124   3.599   2.586   1.703 -0.1899  0.1681  0.4375
    4MOL    C79 2125   3.706   2.588   1.591  1.1101  0.1880  0.5680
    4MOL    C80 2126   3.845   2.538   1.641  0.3188  0.6295 -0.7549
    4MOL    C81 2127   3.856   2.388   1.656 -0.2659  0.1851  0.5301
    4MOL    O82 2128   3.827   2.319   1.563 -0.3006  0.1858 -0.4103
    4MOL    H83 2129   3.666   3.362   2.082  0.9362  1.2318 -0.7843
    4MOL    H84 2130   3.623   3.195   2.335  0.4172  0.2168 -0.1574
    4MOL    H85 2131   3.520   3.273   2.228  1.1471  1.4608 -1.0260
    4MOL    H86 2132   3.730   3.066   2.147 -0.0769  0.0047 -1.0839
    4MOL    H87 2133   3.606   3.130   2.039 -1.9329  0.4409  0.0685
    4MOL    H88 2134   3.570   2.951   2.287 -0.5245 -0.9317  0.4610
    4MOL    H89 2135   3.435   2.980   2.197 -0.4034 -1.8768  0.0041
    4MOL    H90 2136   3.511   2.759   2.131 -0.3202  0.2450 -0.1530
    4MOL    H91 2137   3.664   2.820   2.089 -0.5549 -1.8256 -2.5780
    4MOL    H92 2138   3.539   2.942   1.895 -0.7157 -1.1202 -1.1989
    4MOL    H93 2139   3.390   2.906   1.962 -1.0845  0.2452 -2.1817
    4MOL    H94 2140   3.440   2.654   1.901  1.8114 -2.7095 -1.9631
    4MOL    H95 2141   3.421   2.773   1.784 -1.3200 -1.3693  1.5195
    4MOL    H96 2142   3.685   2.664   1.888 -1.4279 -2.3492 -1.1337
    4MOL    H97 2143   3.682   2.777   1.757 -0.0802 -1.4529 -1.1103
    4MOL    H98 2144   3.587   2.490   1.753  1.8589 -1.0166 -1.2805
    4MOL    H99 2145   3.506   2.594   1.646  0.4012 -0.9521 -0.7116
    4MOL   H100 2146   3.713   2.689   1.549  3.3882 -0.4036 -0.5364
    4MOL   H101 2147   3.674   2.529   1.505  0.2727 -0.4917  1.3365
    4MOL   H102 2148   3.882   2.597   1.725 -1.9979  2.0088 -0.6698
    4MOL   H103 2149   3.924   2.568   1.572  2.1910 -0.7299  0.7455
    4MOL   N104 2150   3.911   2.346   1.767  0.1683 -0.6099  0.0317
    4MOL   C105 2151   3.950   2.211   1.811  0.0914 -0.3347 -0.0740
    4MOL   C106 2152   4.106   2.200   1.825 -0.5138  0.1604  0.1361
    4MOL   C107 2153   4.150   2.063   1.869  0.3122 -0.4898 -0.1429
    4MOL   C108 2154   4.290   2.058   1.917  0.3180  0.1571 -0.3887
    4MOL   C109 2155   4.328   1.915   1.953 -0.1702  0.0485  0.0727
    4MOL   C110 2156   4.474   1.895   1.978  0.5116  0.0984  0.3819
    4MOL   C111 2157   4.517   1.961   2.107  0.1811 -0.6162  0.0254
    4MOL   C112 2158   4.641   1.895   2.174 -0.3029  0.6733  0.0905
    4MOL   C113 2159   4.705   1.968   2.295 -0.1403 -0.3469 -0.0801
    4MOL   C114 2160   4.772   2.098   2.252  0.0037  0.6035 -0.1391
    4MOL   C115 2161   4.799   2.170   2.383  0.0868 -0.4099 -0.0309
    4MOL   O116 2162   4.868   2.119   2.468  0.2663  0.2430  0.2318
    4MOL   H117 2163   3.926   2.420   1.834  1.0778 -0.0673 -0.7743
    4MOL   H118 2164   3.906   2.188   1.908  0.5547  2.0315  0.7301
    4MOL   H119 2165   3.915   2.141   1.734 -2.9984  0.5732  0.4399
    4MOL   H120 2166   4.133   2.268   1.906 -1.8534  1.2374 -0.3044
    4MOL   H121 2167   4.144   2.233   1.729  1.5228  0.1088  0.8993
    4MOL   H122 2168   4.083   2.028   1.948 -0.4158  2.5167  0.6553
    4MOL   H123 2169   4.133   1.982   1.798 -0.7474  1.7627 -2.5622
    4MOL   H124 2170   4.302   2.137   1.992 -1.4095  1.2150 -1.1991
    4MOL   H125 2171   4.357   2.095   1.839  0.6604  3.1451  1.2214
    4MOL   H126 2172   4.300   1.850   1.870  0.4643 -1.3310  0.9220
    4MOL   H127 2173   4.277   1.878   2.042 -0.3839 -1.0065 -0.4813
    4MOL   H128 2174   4.509   1.792   1.965  2.0557  0.3673  2.1407
    4MOL   H129 2175   4.531   1.942   1.898 -1.2569  2.6532  0.5501
    4MOL   H130 2176   4.434   1.951   2.176  0.6075  0.8842  0.7731
    4MOL   H131 2177   4.535   2.068   2.110  1.5958 -0.8830  3.5726
    4MOL   H132 2178   4.611   1.795   2.206  1.0313  0.5660  1.0592
    4MOL   H133 2179   4.713   1.863   2.098 -0.0666 -0.2999  0.7140
    4MOL   H134 2180   4.779   1.905   2.344 -0.4530 -0.0953  0.7299
    4MOL   H135 2181   4.629   1.993   2.369 -0.0336  0.1843 -0.1487
    4MOL   H136 2182   4.720   2.171   2.191  1.6405 -1.7310 -4.5443
    4MOL   H137 2183   4.862   2.058   2.206  1.1488  1.1489  1.5723
    4MOL   N138 2184   4.747   2.295   2.404  0.0998  0.0805  0.1470
    4MOL   C139 2185   4.797   2.387   2.514 -0.3237  0.4394  1.2475
    4MOL   C140 2186   4.720   2.521   2.513  0.3367  0.2568  0.1639
    4MOL   C141 2187   4.740   2.602   2.644  0.9225 -0.4480 -0.1599
    4MOL   C142 2188   4.662   2.734   2.640 -0.5625  0.6806 -0.2688
    4MOL   C143 2189   4.722   2.845   2.722  0.5316  0.1321  0.3922
    4MOL   C144 2190   4.633   2.972   2.707  0.5192  0.6982 -0.0229
    4MOL   C145 2191   4.531   2.981   2.821 -0.2030 -0.6750 -0.6015
    4MOL   C146 2192   4.434   3.100   2.802  0.2115 -0.8056 -0.6282
    4MOL   C147 2193   4.495   3.244   2.808  0.8477 -0.1824 -0.2669
    4MOL   C148 2194   4.390   3.353   2.793  0.5899 -0.2772 -0.0605
    4MOL   C149 2195   4.327   3.378   2.927  0.8866  0.0186 -0.0921
    4MOL   O150 2196   4.389   3.441   3.015  0.7043 -0.4273  0.7696
    4MOL   H151 2197   4.699   2.335   2.324  0.6906  0.2272 -0.1433
    4MOL   H152 2198   4.777   2.331   2.605  0.3030 -0.8740  0.5794
    4MOL   H153 2199   4.903   2.405   2.499 -0.0773 -2.1402 -0.2756
    4MOL   H154 2200   4.615   2.511   2.487  0.0129 -0.5187  1.6784
    4MOL   H155 2201   4.751   2.580   2.427 -0.3996  0.8168  0.2794
    4MOL   H156 2202   4.698   2.548   2.729 -0.8110  0.2125 -0.5880
    4MOL   H157 2203   4.846   2.613   2.667  1.0674  0.2528 -1.1176
    4MOL   H158 2204   4.555   2.719   2.655 -0.3750  0.1339  0.6013
    4MOL   H159 2205   4.680   2.770   2.539 -2.5817  1.0802 -0.5144
    4MOL   H160 2206   4.823   2.866   2.687 -1.0196  1.7111 -3.3290
    4MOL   H161 2207   4.730   2.817   2.827 -1.8269 -0.1410  0.5225
    4MOL   H162 2208   4.694   3.062   2.708  2.7873 -0.8092  0.0850
    4MOL   H163 2209   4.571   2.985   2.618  0.6834 -2.2820 -0.6346
    4MOL   H164 2210   4.573   2.999   2.920 -2.1106 -2.5874  0.6160
    4MOL   H165 2211   4.463   2.897   2.835 -0.3601 -0.3234  0.7556
    4MOL   H166 2212   4.385   3.085   2.706 -0.9491  0.7755 -0.2882
    4MOL   H167 2213   4.347   3.081   2.865 -1.5264 -0.3960 -2.8476
    4MOL   H168 2214   4.577   3.247   2.736  0.6923  0.1652 -0.4306
    4MOL   H169 2215   4.539   3.250   2.907  0.1821  2.7963 -0.0858
    4MOL   H170 2216   4.324   3.323   2.712  0.1360 -0.4396  0.3637
    4MOL   H171 2217   4.437   3.446   2.760 -3.6847  2.0769  0.1436
    4MOL   N172 2218   4.206   3.330   2.947 -0.2607  0.3791 -0.1186
    4MOL   C173 2219   4.109   3.349   3.056  0.4832  0.2721 -0.1266
    4MOL   C174 2220   4.123   3.233   3.157  0.0992 -0.0143 -0.1142
    4MOL   C175 2221   4.028   3.251   3.280 -0.0887  0.0294 -0.1136
    4MOL   C176 2222   4.056   3.157   3.394  0.3041 -0.0796  0.0418
    4MOL   C177 2223   3.945   3.162   3.506 -0.4661 -0.3689 -0.2070
    4MOL   C178 2224   3.990   3.096   3.640 -0.4797  0.8868 -0.8929
    4MOL   C179 2225   3.888   3.116   3.751 -0.1051 -0.3535 -0.1330
    4MOL   C180 2226   3.916   3.044   3.887  0.5468  0.3043  1.1016
    4MOL   C181 2227   3.830   3.084   4.012 -0.0351  0.3906 -0.1151
    4MOL   C182 2228   3.860   3.216   4.075  0.8848 -0.4115  0.2776
    4MOL   C183 2229   3.781   3.337   4.023 -0.0039 -0.2448  0.2357
    4MOL   O184 2230   3.659   3.335   4.005 -0.0464 -0.3882 -0.0809
    4MOL   H185 2231   4.167   3.289   2.863 -0.5500  0.8436 -0.2128
    4MOL   H186 2232   4.144   3.432   3.117  0.2258 -0.5240  1.1199
    4MOL   H187 2233   4.009   3.369   3.018 -0.3757 -0.2584  1.8137
    4MOL   H188 2234   4.221   3.226   3.204 -0.5336 -1.5169  1.0278
    4MOL   H189 2235   4.108   3.140   3.103  0.0906 -0.4872  0.6838
    4MOL   H190 2236   4.036   3.353   3.317 -0.4901 -0.5280  1.5384
    4MOL   H191 2237   3.932   3.227   3.233 -0.3412 -2.2124  1.4701
    4MOL   H192 2238   4.148   3.182   3.448 -0.3850  0.4879  0.9601
    4MOL   H193 2239   4.076   3.056   3.357  0.3548 -1.0250  2.5551
    4MOL   H194 2240   3.851   3.115   3.477 -0.6099 -0.3161  0.1681
    4MOL   H195 2241   3.933   3.265   3.538  0.3680  0.1812 -1.6190
    4MOL   H196 2242   3.987   2.993   3.602 -2.0296  0.7162 -0.3563
    4MOL   H197 2243   4.087   3.125   3.680 -0.3911 -0.5026 -0.0428
    4MOL   H198 2244   3.786   3.110   3.713 -0.6546 -0.4380  1.3251
    4MOL   H199 2245   3.889   3.224   3.770  0.3359 -1.0172  3.8445
    4MOL   H200 2246   3.901   2.938   3.867  0.2658  0.1919  1.8896
    4MOL   H201 2247   4.023   3.058   3.905  0.4491  0.4337  1.6086
    4MOL   H202 2248   3.861   3.002   4.077  1.4448  0.8217 -0.2522
    4MOL   H203 2249   3.724   3.078   3.986 -0.8771  1.2393  2.8701
    4MOL   H204 2250   3.969   3.223   4.066  0.9984 -0.3801  1.6501
    4MOL   H205 2251   3.838   3.218   4.182  1.2761  0.7998  0.3407
    4MOL   N206 2252   3.852   3.444   3.996 -0.1820 -0.1963  0.0641
    4MOL   C207 2253   3.797   3.580   3.971  0.3970 -0.3654  0.2158
    4MOL   C208 2254   3.801   3.632   3.823  0.3005 -0.1184 -0.6514
    4MOL   C209 2255   3.938   3.643   3.761 -0.0413  0.5334  0.0279
    4MOL   C210 2256   4.001   3.520   3.710  0.7362  0.0826  0.0054
    4MOL   C211 2257   4.155   3.542   3.690 -0.0897 -0.2663  0.0087
    4MOL   C212 2258   4.204   3.427   3.600 -0.3282 -0.4924  0.4526
    4MOL   C213 2259   4.355   3.420   3.589  0.4844  0.0265  0.3307
    4MOL   C214 2260   4.402   3.385   3.445 -0.3075  0.7809 -0.1820
    4MOL   C215 2261   4.556   3.386   3.417  0.5401  0.1504 -0.5459
    4MOL   C216 2262   4.588   3.326   3.289 -0.0674 -0.4617  0.0548
    4MOL   C217 2263   4.721   3.364   3.219  0.4946  0.3311  0.3266
    4MOL   O218 2264   4.817   3.357   3.294 -0.4839 -0.1323 -0.0931
    4MOL   H219 2265   3.948   3.455   4.023 -0.0508  0.0534 -0.4951
    4MOL   H220 2266   3.836   3.650   4.045 -0.7862  1.9716 -1.3316
    4MOL   H221 2267   3.694   3.586   4.006  0.7740 -1.7756  1.6550
    4MOL   H222 2268   3.742   3.722   3.812  0.8468  0.3310  0.0500
    4MOL   H223 2269   3.746   3.561   3.760 -0.5263 -0.5774  0.5800
    4MOL   H224 2270   3.924   3.699   3.669 -1.5468 -0.2176 -0.2163
    4MOL   H225 2271   3.997   3.695   3.837 -0.7475  1.9876 -0.4268
    4MOL   H226 2272   3.950   3.493   3.617  2.1012  0.9138 -1.0128
    4MOL   H227 2273   3.979   3.438   3.778 -0.1166 -0.5708 -1.0593
    4MOL   H228 2274   4.219   3.554   3.778  0.2677 -0.6019 -0.2067
    4MOL   H229 2275   4.152   3.638   3.639  0.7687  0.2518  0.9154
    4MOL   H230 2276   4.173   3.327   3.631 -0.3993 -0.8223 -0.6362
    4MOL   H231 2277   4.168   3.453   3.500  1.4126  0.0445 -0.0578
    4MOL   H232 2278   4.392   3.343   3.657 -0.4009 -1.0198 -0.3662
    4MOL   H233 2279   4.399   3.515   3.620  1.5391  0.8762 -3.5389
    4MOL   H234 2280   4.373   3.281   3.430 -1.2500  1.0238 -0.0305
    4MOL   H235 2281   4.344   3.438   3.369 -0.7416 -0.9642 -1.0997
    4MOL   H236 2282   4.614   3.353   3.502 -2.6457  0.6426  1.8944
    4MOL   H237 2283   4.576   3.493   3.408  2.3592 -0.2421 -1.2562
    4MOL   H238 2284   4.508   3.353   3.220 -0.9261 -0.5103  1.0229
    4MOL   H239 2285   4.575   3.218   3.294 -2.2072 -0.2418 -0.3350
    4MOL   N240 2286   4.722   3.387   3.085 -0.3078  0.5096 -0.1580
    4MOL   C241 2287   4.841   3.426   3.014  1.2800 -0.0926  0.0984
    4MOL   C242 2288   4.839   3.346   2.880  1.1078  0.3345 -0.4553
    4MOL   C243 2289   4.976   3.357   2.809 -0.3679 -0.1151  0.1229
    4MOL   C244 2290   4.977   3.288   2.673 -1.1493 -0.7085 -0.3115
    4MOL   C245 2291   5.111   3.276   2.602 -0.3308  0.1814  0.1793
    4MOL   C246 2292   5.190   3.414   2.582 -0.1694  0.5129 -0.2916
    4MOL   C247 2293   5.330   3.386   2.522  0.3214  0.2388  0.0197
    4MOL   C248 2294   5.396   3.520   2.487  0.1371 -0.3083  0.0316
    4MOL   C249 2295   5.540   3.504   2.431 -0.8659 -0.2061 -0.2758
    4MOL   C250 2296   5.556   3.428   2.300  0.9247 -0.8634 -0.9005
    4MOL   C251 2297   5.695   3.444   2.249 -0.1743 -0.4593  0.1230
    4MOL   O252 2298   5.790   3.413   2.320  0.5353  0.0789 -0.0683
    4MOL   H253 2299   4.631   3.388   3.042 -0.2431 -2.0541 -0.3938
    4MOL   H254 2300   4.929   3.392   3.068  1.6279 -0.4372 -0.6665
    4MOL   H255 2301   4.836   3.534   3.011 -2.1861 -0.2191 -0.4234
    4MOL   H256 2302   4.758   3.382   2.817  0.7766  1.6165  0.6760
    4MOL   H257 2303   4.805   3.246   2.907 -0.5987  1.3102  1.1512
    4MOL   H258 2304   4.989   3.465   2.797  0.7351 -0.2818 -0.1423
    4MOL   H259 2305   5.060   3.313   2.862 -0.6568 -1.3892 -0.4695
    4MOL   H260 2306   4.906   3.334   2.605 -0.7173 -0.6121 -0.6960
    4MOL   H261 2307   4.926   3.194   2.692 -1.6984 -0.1912  0.8544
    4MOL   H262 2308   5.102   3.231   2.503 -0.5354  0.3676  0.1125
    4MOL   H263 2309   5.170   3.211   2.667 -0.5597 -0.3540 -0.1439
    4MOL   H264 2310   5.131   3.488   2.527 -1.6730 -1.0266 -0.7682
    4MOL   H265 2311   5.199   3.460   2.681 -0.8607 -1.8478  0.8908
    4MOL   H266 2312   5.321   3.316   2.438  1.2915 -1.5136  1.3370
    4MOL   H267 2313   5.377   3.321   2.595 -0.5729 -0.4280  0.0184
    4MOL   H268 2314   5.335   3.568   2.410  1.2492  2.7555  0.9921
    4MOL   H269 2315   5.393   3.587   2.572  1.4813 -1.7460  1.2380
    4MOL   H270 2316   5.600   3.450   2.503  2.0909  0.9034 -1.8211
    4MOL   H271 2317   5.587   3.601   2.411 -0.8631  0.0816  1.0681
    4MOL   H272 2318   5.487   3.466   2.224 -1.5888 -0.3010  1.5771
    4MOL   H273 2319   5.532   3.324   2.325 -1.0645 -0.5423 -1.3858
    4MOL   N274 2320   5.724   3.467   2.121  0.2627 -0.3266  0.6045
    4MOL   C275 2321   5.638   3.501   2.017  0.5063 -0.0738  0.2142
    4MOL   C276 2322   5.594   3.645   2.013  0.2040  0.2308  0.1363
    4MOL   C277 2323   5.502   3.671   1.893 -0.6355  0.5224  0.1592
    4MOL   C278 2324   5.459   3.813   1.888  0.2552  0.1119 -0.2941
    4MOL   C279 2325   5.563   3.919   1.849  0.6642  0.6709  0.9188
    4MOL   C280 2326   5.615   3.912   1.703  0.6280  0.0276  0.4255
    4MOL   C281 2327   5.733   3.997   1.680  0.9796 -0.2932 -0.1169
    4MOL   C282 2328   5.793   3.984   1.536 -0.6037  0.8284  0.0821
    4MOL   C283 2329   5.933   4.041   1.517 -0.5881 -0.3353  0.2444
    4MOL   C284 2330   5.989   4.003   1.372  0.1585  0.4178  0.9852
    4MOL   C285 2331   6.062   3.869   1.391 -0.3070  0.6618  0.5458
    4MOL   O286 2332   6.174   3.869   1.446 -0.0967 -0.1629  0.0816
    4MOL   H287 2333   5.822   3.467   2.095  0.0732  0.9725 -0.1513
    4MOL   H288 2334   5.552   3.435   2.013 -0.5687  1.3875 -0.9181
    4MOL   H289 2335   5.692   3.481   1.925 -0.9036 -2.0832 -0.2195
    4MOL   H290 2336   5.680   3.711   2.013  0.4811 -0.1262  0.4744
    4MOL   H291 2337   5.544   3.660   2.108  2.1953 -0.0121  1.2492
    4MOL   H292 2338   5.562   3.657   1.803  2.2930 -2.3568  2.4153
    4MOL   H293 2339   5.416   3.605   1.890 -2.3179  2.7110 -0.4134
    4MOL   H294 2340   5.404   3.842   1.978 -0.9943 -0.9211 -0.7022
    4MOL   H295 2341   5.386   3.814   1.807 -0.3256  0.1960  0.2173
    4MOL   H296 2342   5.652   3.904   1.909 -0.7966 -1.1263  2.7185
    4MOL   H297 2343   5.529   4.022   1.859  0.8941  0.8828 -0.3164
    4MOL   H298 2344   5.637   3.809   1.676  0.9386  0.4484 -1.0023
    4MOL   H299 2345   5.530   3.934   1.638  0.8644  0.3177  0.2096
    4MOL   H300 2346   5.797   3.947   1.752 -1.1789 -1.4644  1.0557
    4MOL   H301 2347   5.709   4.100   1.708 -0.5494 -0.1537 -1.7602
    4MOL   H302 2348   5.797   3.884   1.491  1.3909  1.4072 -1.0896
    4MOL   H303 2349   5.732   4.037   1.463 -1.5415  0.2908  0.4642
    4MOL   H304 2350   6.000   4.007   1.596 -0.8186 -3.4913 -0.8669
    4MOL   H305 2351   5.916   4.147   1.538 -1.1509 -0.0489 -1.5887
    4MOL   H306 2352   6.055   4.080   1.332 -1.6815  0.8136 -1.3884
    4MOL   H307 2353   5.908   3.994   1.301  0.7872 -2.1485  0.5177
    4MOL   N308 2354   5.999   3.764   1.349 -0.2138 -0.6856 -0.2408
    4MOL   C309 2355   6.050   3.623   1.331  0.5024 -0.1585 -0.1062
    4MOL   C310 2356   6.176   3.602   1.247  0.0476  0.5355 -0.0039
    4MOL   C311 2357   6.199   3.453   1.219 -0.3382  0.0024  0.1815
    4MOL   C312 2358   6.324   3.408   1.138 -0.4100  0.1616 -0.2237
    4MOL   C313 2359   6.453   3.484   1.173  0.0395  0.0173 -0.0875
    4MOL   C314 2360   6.584   3.436   1.098  0.0392 -0.0708  0.2887
    4MOL   C315 2361   6.708   3.495   1.169  0.4778  0.1085 -0.0034
    4MOL   C316 2362   6.756   3.411   1.285 -0.9492 -0.0209  0.0625
    4MOL   C317 2363   6.892   3.450   1.344  0.5728  0.3289 -0.4183
    4MOL   C318 2364   6.895   3.586   1.414  0.0080  0.3416 -0.2599
    4MOL   C319 2365   7.034   3.624   1.457  0.5013  0.0595 -0.3666
    4MOL   O320 2366   7.085   3.564   1.551 -0.1385 -0.0136 -0.2097
    4MOL   H321 2367   5.904   3.788   1.327  0.1563  0.9598 -0.1516
    4MOL   H322 2368   5.957   3.572   1.305  0.5517 -1.2709  1.7922
    4MOL   H323 2369   6.064   3.600   1.437 -0.0900  0.8883  0.2175
    4MOL   H324 2370   6.257   3.641   1.308 -0.5836 -2.4943  2.8923
    4MOL   H325 2371   6.165   3.650   1.149 -2.1683  1.9590  0.8932
    4MOL   H326 2372   6.207   3.416   1.321 -1.3161  2.3919  1.1587
    4MOL   H327 2373   6.109   3.404   1.182  0.4745 -0.1186 -1.6922
    4MOL   H328 2374   6.310   3.427   1.031 -0.0203  1.8023 -0.0034
    4MOL   H329 2375   6.351   3.304   1.156  0.4100  0.3011 -0.5834
    4MOL   H330 2376   6.467   3.483   1.281 -2.5067  0.7956  0.2731
    4MOL   H331 2377   6.426   3.589   1.159  0.7718  0.4587  1.6976
    4MOL   H332 2378   6.587   3.329   1.077  0.7979 -0.1031  0.5243
    4MOL   H333 2379   6.578   3.483   1.000  3.2457 -1.2434 -0.5348
    4MOL   H334 2380   6.686   3.596   1.203 -1.3703 -0.1306 -0.4432
    4MOL   H335 2381   6.794   3.496   1.102 -0.0623 -0.1182 -0.6923
    4MOL   H336 2382   6.673   3.411   1.356 -2.3161  3.0155 -1.4476
    4MOL   H337 2383   6.772   3.309   1.250 -0.9748  0.4988 -1.5021
    4MOL   H338 2384   6.969   3.462   1.268  0.7995  0.0503 -0.2318
    4MOL   H339 2385   6.931   3.365   1.400  1.4900  1.0687  0.0798
    4MOL   H340 2386   6.835   3.585   1.506  0.5851 -1.1763  0.1121
    4MOL   H341 2387   6.864   3.661   1.341  1.5356  0.6294 -0.6207
    4MOL   N342 2388   7.084   3.737   1.405 -0.2433  0.1102 -0.4180
    4MOL   C343 2389   7.193   3.819   1.451  0.1758 -0.4973  0.8790
    4MOL   C344 2390   7.136   3.952   1.498 -0.4167 -0.3401  0.0225
    4MOL   C345 2391   7.251   4.046   1.536 -0.2052  0.4859 -0.3041
    4MOL   C346 2392   7.213   4.167   1.615  0.2097 -0.1520 -0.0893
    4MOL   C347 2393   7.153   4.283   1.534  0.2934 -0.3816  0.1115
    4MOL   C348 2394   7.101   4.407   1.611  0.3229  0.2542  0.1568
    4MOL   C349 2395   7.090   4.539   1.533  0.1678  0.1306 -0.6821
    4MOL   C350 2396   7.035   4.650   1.616 -0.5548 -0.2498 -0.3265
    4MOL   C351 2397   7.055   4.790   1.562 -0.4051 -0.2164 -0.2758
    4MOL   C352 2398   6.977   4.813   1.434 -0.7397 -0.2002 -0.0201
    4MOL   C353 2399   6.834   4.852   1.462 -0.1921  0.4600  0.2447
    4MOL   O354 2400   6.799   4.896   1.572  0.2654 -0.0764 -0.6033
    4MOL   H355 2401   7.032   3.783   1.332 -0.9752  1.1792  0.7641
    4MOL   H356 2402   7.242   3.778   1.540 -0.8871 -1.7042  0.9194
    4MOL   H357 2403   7.261   3.818   1.366 -3.6746  1.3150 -2.4035
    4MOL   H358 2404   7.069   3.931   1.582 -0.2504 -2.0835 -0.2610
    4MOL   H359 2405   7.078   3.997   1.418  0.1338  0.5480  0.1176
    4MOL   H360 2406   7.323   3.979   1.583  1.1733  0.6149 -2.1375
    4MOL   H361 2407   7.311   4.080   1.451 -1.6249 -3.0332 -2.7874
    4MOL   H362 2408   7.307   4.203   1.657  0.7822 -1.0902 -0.5685
    4MOL   H363 2409   7.145   4.142   1.696  0.0342 -1.6065 -0.6757
    4MOL   H364 2410   7.073   4.251   1.468  1.4107 -2.3210 -0.3278
    4MOL   H365 2411   7.228   4.313   1.460  0.7046 -0.5000  0.4751
    4MOL   H366 2412   7.002   4.382   1.647  0.8990  0.0272  1.5940
    4MOL   H367 2413   7.151   4.424   1.706 -0.2848  0.5882  0.4113
    4MOL   H368 2414   7.023   4.513   1.451 -2.3597 -0.9191  1.6487
    4MOL   H369 2415   7.187   4.559   1.488  0.0495 -2.0088 -1.9555
    4MOL   H370 2416   6.928   4.628   1.622 -0.9863  1.8688  0.3168
    4MOL   H371 2417   7.078   4.653   1.716 -2.7590  2.4408  0.6096
    4MOL   H372 2418   7.162   4.798   1.542 -0.4224  1.2447  0.1270
    4MOL   H373 2419   7.039   4.862   1.642 -1.1463  0.5162 -1.0662
    4MOL   H374 2420   6.980   4.733   1.360 -2.2045 -0.9999  0.7599
    4MOL   H375 2421   7.013   4.907   1.391  1.2340  0.4802  2.9975
    4MOL   N376 2422   6.752   4.828   1.359  0.0162  0.3923 -0.4352
    4MOL   C377 2423   6.607   4.834   1.366  0.1197  0.2330 -0.3668
    4MOL   C378 2424   6.537   4.726   1.446  0.0521 -0.3476  0.6041
    4MOL   C379 2425   6.533   4.588   1.380 -0.8641 -0.1830 -0.1171
    4MOL   C380 2426   6.494   4.482   1.486  0.5083  0.6749  0.4888
    4MOL   C381 2427   6.482   4.335   1.442 -0.4621 -0.6227  0.1239
    4MOL   C382 2428   6.434   4.237   1.550  0.0161  0.0134 -0.3228
    4MOL   C383 2429   6.463   4.090   1.520  0.0731  0.0793 -0.2182
    4MOL   C384 2430   6.608   4.052   1.484  0.3365  0.4921 -0.6566
    4MOL   C385 2431   6.642   3.898   1.488  0.0451  0.5534  0.1408
    4MOL   C386 2432   6.541   3.813   1.409 -0.5206  0.3003 -0.1907
    4MOL   C387 2433   6.522   3.864   1.274 -0.2136  0.0093 -0.3230
    4MOL   O388 2434   6.615   3.879   1.197  0.1330  0.2916  0.0164
    4MOL   H389 2435   6.801   4.807   1.273 -0.2067 -1.2826 -0.1765
    4MOL   H390 2436   6.572   4.930   1.405  0.1620 -0.4383  1.3544
    4MOL   H391 2437   6.565   4.833   1.266  1.7578  2.1272 -1.1139
    4MOL   H392 2438   6.438   4.768   1.465  0.1283 -0.0374  0.3234
    4MOL   H393 2439   6.570   4.724   1.549  3.6399 -0.8091 -0.4957
    4MOL   H394 2440   6.462   4.591   1.297  1.0917  1.2851 -1.7827
    4MOL   H395 2441   6.629   4.565   1.334 -0.3203 -0.7066  1.2537
    4MOL   H396 2442   6.399   4.512   1.532 -0.5945  0.3915 -1.5707
    4MOL   H397 2443   6.569   4.488   1.565  1.4973  0.8380 -0.4536
    4MOL   H398 2444   6.582   4.309   1.406  0.2334  0.5496  1.1585
    4MOL   H399 2445   6.416   4.320   1.357  1.2090  3.5560 -2.0540
    4MOL   H400 2446   6.492   4.266   1.637 -2.2603  0.5997  1.0263
    4MOL   H401 2447   6.328   4.258   1.565  0.3190  0.1918  1.6246
    4MOL   H402 2448   6.404   4.050   1.438  1.4748 -3.4583  0.3973
    4MOL   H403 2449   6.440   4.020   1.601  0.6575 -1.8027 -1.6471
    4MOL   H404 2450   6.633   4.094   1.387  0.8377 -0.1235 -0.7945
    4MOL   H405 2451   6.678   4.097   1.555 -0.5574 -1.1007  1.3049
    4MOL   H406 2452   6.632   3.856   1.588  0.9793 -1.2819 -0.5069
    4MOL   H407 2453   6.750   3.888   1.473  0.2113  0.0255  1.5839
    4MOL   H408 2454   6.442   3.814   1.455 -0.8753 -1.3686 -0.8953
    4MOL   H409 2455   6.566   3.708   1.399 -1.0177  0.0048  1.4898
    4MOL   N410 2456   6.396   3.902   1.247  0.6200  0.0679  0.4080
    4MOL   C411 2457   6.360   4.005   1.152 -0.0699 -0.3036  0.0962
    4MOL   C412 2458   6.272   3.944   1.036  0.6003  0.5685  0.0724
    4MOL   C413 2459   6.352   3.839   0.952  0.3580  0.1583  0.0669
    4MOL   C414 2460   6.297   3.805   0.811 -0.2129  0.2447 -0.8703
    4MOL   C415 2461   6.324   3.660   0.764  0.1344 -0.4257  0.5352
    4MOL   C416 2462   6.482   3.628   0.741  0.2000  0.2871 -0.1276
    4MOL   C417 2463   6.473   3.479   0.698 -0.6432  0.2085  0.7082
    4MOL   C418 2464   6.610   3.423   0.675  0.7556  0.4657 -0.0550
    4MOL   C419 2465   6.610   3.270   0.630  0.7382 -0.5537 -0.3648
    4MOL   C420 2466   6.734   3.213   0.566  0.0023  0.0831 -0.2113
    4MOL   C421 2467   6.695   3.069   0.522 -0.2662  1.2461  0.5927
    4MOL   O422 2468   6.647   2.993   0.605 -0.1185  0.1069 -0.5597
    4MOL   H423 2469   6.326   3.891   1.319  0.5487  1.0913  0.5003
    4MOL   H424 2470   6.295   4.060   1.220  0.4550 -1.3371  1.4648
    4MOL   H425 2471   6.442   4.068   1.118 -1.6877  2.7743  1.7107
    4MOL   H426 2472   6.235   4.019   0.966 -0.3563 -0.8751 -1.0058
    4MOL   H427 2473   6.181   3.894   1.068  0.2153  2.1834  1.5480
    4MOL   H428 2474   6.455   3.874   0.939  0.4384 -1.0773 -3.1518
    4MOL   H429 2475   6.357   3.745   1.007 -1.1170 -0.0315 -0.1009
    4MOL   H430 2476   6.337   3.877   0.740  1.0619 -0.8874 -1.3123
    4MOL   H431 2477   6.191   3.831   0.808 -0.2486  0.0972 -0.8709
    4MOL   H432 2478   6.263   3.634   0.678  0.7130 -0.3304  0.0932
    4MOL   H433 2479   6.275   3.583   0.824 -1.9964  0.0196 -0.6146
    4MOL   H434 2480   6.520   3.690   0.660  1.1914 -0.9667 -0.6130
    4MOL   H435 2481   6.550   3.643   0.825  1.8939 -1.9648 -1.0595
    4MOL   H436 2482   6.411   3.480   0.608  0.9666  1.0112 -0.4308
    4MOL   H437 2483   6.420   3.418   0.771 -1.9637  0.0193 -0.3758
    4MOL   H438 2484   6.663   3.484   0.601 -1.6300  0.5461 -1.7512
    4MOL   H439 2485   6.665   3.444   0.767 -0.6719 -0.1213  0.9386
    4MOL   H440 2486   6.530   3.254   0.559  0.9879 -2.8112 -0.1942
    4MOL   H441 2487   6.579   3.217   0.720 -0.3577  0.9032  0.1243
    4MOL   H442 2488   6.811   3.201   0.642  0.7926  0.1020 -1.0020
    4MOL   H443 2489   6.765   3.278   0.484  0.1965  2.0249  1.3515
    4MOL   N444 2490   6.698   3.032   0.393  0.3730 -0.2869  0.1776
    4MOL   C445 2491   6.660   2.903   0.334  0.0779  0.0816  0.1841
    4MOL   C446 2492   6.782   2.814   0.358 -0.1766  0.4422 -0.9429
    4MOL   C447 2493   6.782   2.679   0.292 -0.1115  0.3530 -0.2916
    4MOL   C448 2494   6.759   2.670   0.143  0.0390  0.9554  0.3440
    4MOL   C449 2495   6.752   2.527   0.095 -0.1232 -0.4060  0.3807
    4MOL   C450 2496   6.769   2.511   7.661 -0.0223 -0.3468  0.9747
    4MOL   C451 2497   6.783   2.364   7.609 -0.0086 -0.4386  0.3484
    4MOL   C452 2498   6.658   2.277   7.626 -0.4568 -0.3479  0.0474
    4MOL   C453 2499   6.683   2.133   7.586  0.3577  0.5580 -0.5314
    4MOL   C454 2500   6.552   2.050   7.607 -0.5556 -0.3191 -0.2873
    4MOL   C455 2501   6.502   2.022   0.034 -0.2682  0.0135 -0.5127
    4MOL   O456 2502   6.577   2.021   0.133  0.4006 -0.4505 -0.4306
    4MOL   H457 2503   6.757   3.096   0.342 -1.5174  1.0025 -0.4542
    4MOL   H458 2504   6.563   2.875   0.374 -0.2271  2.0293  0.8485
    4MOL   H459 2505   6.651   2.916   0.227 -0.6980  1.2554  0.3823
    4MOL   H460 2506   6.801   2.800   0.465 -0.6583 -0.9614 -1.0375
    4MOL   H461 2507   6.864   2.879   0.327  0.2442  0.3330 -0.0803
    4MOL   H462 2508   6.866   2.613   0.314 -1.7794 -2.1657 -1.2721
    4MOL   H463 2509   6.694   2.628   0.334  1.4057 -2.3651 -0.3184
    4MOL   H464 2510   6.836   2.718   0.082 -0.4463  0.4634 -0.6827
    4MOL   H465 2511   6.664   2.712   0.109 -1.5492 -3.0816 -0.5058
    4MOL   H466 2512   6.651   2.492   0.115 -0.3097 -0.2987 -0.3846
    4MOL   H467 2513   6.825   2.464   0.146  0.6307  0.5362  0.4782
    4MOL   H468 2514   6.685   2.551   7.604  0.2243 -0.4380  0.5442
    4MOL   H469 2515   6.857   2.568   7.632  0.3672 -0.7220  1.4253
    4MOL   H470 2516   6.876   2.327   7.653  1.1293 -0.2619 -1.8189
    4MOL   H471 2517   6.801   2.353   7.502  4.9562 -1.1917  1.1297
    4MOL   H472 2518   6.632   2.280   0.016 -1.3143  0.9032 -0.1964
    4MOL   H473 2519   6.572   2.328   7.583 -1.1174  1.6034  3.4700
    4MOL   H474 2520   6.763   2.107   7.655  1.5257  1.2030 -1.6125
    4MOL   H475 2521   6.730   2.109   7.490  2.0538 -0.6346  0.5741
    4MOL   H476 2522   6.555   1.956   7.552 -0.4360  1.3294 -3.1728
    4MOL   H477 2523   6.472   2.106   7.558 -1.5247 -0.3881  1.1802
    4MOL   N478 2524   6.371   1.996   0.038 -0.1703 -0.6329  0.1177
    4MOL   C479 2525   6.283   1.994   0.153 -0.1057 -0.3237  0.9272
    4MOL   C480 2526   6.219   2.129   0.165  0.4244 -0.4712 -0.4460
    4MOL   C481 2527   6.305   2.241   0.227 -0.0282  0.0029  0.3135
    4MOL   C482 2528   6.222   2.354   0.286 -0.5194  0.0090  0.1939
    4MOL   C483 2529   6.315   2.474   0.322  0.7631  1.3459  0.5393
    4MOL   C484 2530   6.425   2.438   0.427 -0.8352  0.5098 -0.4584
    4MOL   C485 2531   6.420   2.545   0.541 -0.1419 -0.5454 -0.5937
    4MOL   C486 2532   6.523   2.525   0.645 -0.4500 -0.2871  0.2467
    4MOL   C487 2533   6.500   2.614   0.772 -0.0710  0.1741  0.8811
    4MOL   C488 2534   6.555   2.757   0.758 -0.0630  0.6882  0.4196
    4MOL   C489 2535   6.530   2.812   0.894 -0.5202 -0.6333 -0.2702
    4MOL   O490 2536   6.595   2.773   0.989  0.2887  0.1354 -0.3169
    4MOL   H491 2537   6.325   1.994   7.664  1.8587 -1.3171 -0.9396
    4MOL   H492 2538   6.215   1.912   0.134  1.5945 -1.8393  1.2359
    4MOL   H493 2539   6.331   1.968   0.247  0.6665  0.2653  0.7100
    4MOL   H494 2540   6.129   2.112   0.224  1.2022 -0.0404  0.8737
    4MOL   H495 2541   6.185   2.155   0.064 -0.8039 -0.3434 -0.0145
    4MOL   H496 2542   6.367   2.189   0.300 -2.9810 -0.0887  2.8881
    4MOL   H497 2543   6.363   2.288   0.147  0.1139 -2.9774 -1.3916
    4MOL   H498 2544   6.178   2.312   0.376 -2.5232 -1.1718 -1.2797
    4MOL   H499 2545   6.143   2.362   0.211 -0.5029 -0.1674  0.1582
    4MOL   H500 2546   6.247   2.554   0.352  0.8757  2.7434 -2.6434
    4MOL   H501 2547   6.369   2.495   0.230 -0.3958 -0.2160 -0.5258
    4MOL   H502 2548   6.414   2.338   0.469  1.8588  0.6977  0.7880
    4MOL   H503 2549   6.527   2.453   0.393 -0.1550  1.3533  1.8598
    4MOL   H504 2550   6.325   2.538   0.594  0.1194 -0.1603 -0.0634
    4MOL   H505 2551   6.426   2.649   0.509 -0.6526 -0.6988 -1.1942
    4MOL   H506 2552   6.498   2.424   0.677 -0.9615  0.2254  1.5050
    4MOL   H507 2553   6.626   2.529   0.612 -0.3047  1.1763  0.8484
    4MOL   H508 2554   6.561   2.564   0.846  0.1224  1.2566  1.4593
    4MOL   H509 2555   6.392   2.608   0.789 -0.8295 -0.0275 -3.2340
    4MOL   H510 2556   6.497   2.815   0.686  0.4981 -0.0226 -0.6106
    4MOL   H511 2557   6.662   2.762   0.736 -0.0859 -2.2395 -0.5506
    4MOL   N512 2558   6.428   2.901   0.903 -0.0495 -0.3079  0.2520
    4MOL   C513 2559   6.399   2.978   1.018 -0.4639 -0.0440 -0.2257
    4MOL   C514 2560   6.267   3.055   1.005  0.0154  0.4336  0.1285
    4MOL   C515 2561   6.262   3.129   0.870 -0.0365 -0.2996 -0.0921
    4MOL   C516 2562   6.132   3.193   0.846  0.4875 -0.6027 -0.3044
    4MOL   C517 2563   6.124   3.306   0.740  0.3538  0.6836  0.6186
    4MOL   C518 2564   5.991   3.378   0.749 -0.5691  0.1974 -0.3663
    4MOL   C519 2565   5.966   3.462   0.872 -0.7684 -0.0496  0.2592
    4MOL   C520 2566   5.823   3.519   0.884 -0.0984  0.5476  0.3696
    4MOL   C521 2567   5.816   3.615   1.002  0.2597 -0.6622 -0.1857
    4MOL   C522 2568   5.680   3.693   1.000  0.1254  0.4876  1.1241
    4MOL   C523 2569   5.686   3.809   1.097 -0.1983 -0.2633 -0.5192
    4MOL   O524 2570   5.742   3.791   1.204 -0.0950 -0.5750 -0.0332
    4MOL   H525 2571   6.387   2.930   0.816  1.8186 -2.0853 -1.2904
    4MOL   H526 2572   6.394   2.920   1.110  0.3668  2.2691  1.3091
    4MOL   H527 2573   6.481   3.048   1.035  0.7642 -0.9708 -2.1198
    4MOL   H528 2574   6.266   3.121   1.091  0.9501  2.0872 -1.0940
    4MOL   H529 2575   6.183   2.985   1.007 -0.7617  1.3132 -0.5916
    4MOL   H530 2576   6.351   3.193   0.869  0.5003 -1.0252 -2.0356
    4MOL   H531 2577   6.285   3.058   0.791  0.8500 -0.8702  0.6599
    4MOL   H532 2578   6.108   3.248   0.937 -0.3987  1.1475 -1.5555
    4MOL   H533 2579   6.055   3.118   0.831  1.6533 -1.4976 -2.0866
    4MOL   H534 2580   6.137   3.257   0.644 -0.9945 -0.2605  0.8973
    4MOL   H535 2581   6.210   3.372   0.741  1.3165 -0.5053 -1.0667
    4MOL   H536 2582   5.988   3.449   0.667 -1.0436  0.3600 -0.2113
    4MOL   H537 2583   5.911   3.304   0.747  0.1907 -0.7038  0.9778
    4MOL   H538 2584   6.038   3.544   0.872 -1.5184  0.6043  0.1150
    4MOL   H539 2585   5.980   3.409   0.967 -0.3374  2.6253  1.7523
    4MOL   H540 2586   5.808   3.582   0.797  1.3283 -0.7175 -0.8286
    4MOL   H541 2587   5.743   3.445   0.882  0.7392 -0.3549 -0.4774
    4MOL   H542 2588   5.899   3.684   1.012 -1.1893  0.8627  1.5248
    4MOL   H543 2589   5.825   3.557   1.094  1.3802 -1.6458 -0.8961
    4MOL   H544 2590   5.598   3.624   1.020 -0.0548  1.0781  2.4731
    4MOL   H545 2591   5.659   3.730   0.900 -1.8059 -0.4479  1.1693
    4MOL   N546 2592   5.610   3.916   1.083  0.6838 -0.3831  0.0035
    4MOL   C547 2593   5.589   4.022   1.184  1.1201  0.0185  0.1195
    4MOL   C548 2594   5.501   3.984   1.307 -0.3881  0.1569 -0.6642
    4MOL   C549 2595   5.352   3.951   1.257 -0.9416 -0.8079  0.3136
    4MOL   C550 2596   5.252   3.924   1.368 -0.4481 -0.2643 -0.2955
    4MOL   C551 2597   5.115   3.855   1.324  0.2523 -0.0299  0.1872
    4MOL   C552 2598   5.004   3.859   1.429  0.5506  0.1027 -0.0663
    4MOL   C553 2599   5.032   3.765   1.548 -0.1273  0.1545 -0.6528
    4MOL   C554 2600   5.093   3.633   1.516  0.2795  0.0170 -0.2911
    4MOL   C555 2601   5.129   3.543   1.638 -1.3208  0.4392  0.3919
    4MOL   C556 2602   5.181   3.404   1.577 -0.1376  0.0733 -0.0366
    4MOL   C557 2603   5.068   3.319   1.531  0.2034 -0.0107  0.2959
    4MOL   O558 2604   5.006   3.258   1.625 -0.4383  0.5933  0.1857
    4MOL   H559 2605   5.548   3.914   1.004  0.5311  0.3074  0.1026
    4MOL   H560 2606   5.688   4.051   1.218 -0.5896  2.7989  3.0466
    4MOL   H561 2607   5.550   4.114   1.140  0.6805  0.8616  2.2306
    4MOL   H562 2608   5.514   4.065   1.380  1.2000 -0.0275 -0.7270
    4MOL   H563 2609   5.547   3.901   1.360 -2.8600 -0.0878  1.1862
    4MOL   H564 2610   5.320   4.044   1.210  1.7023  1.1593  2.2313
    4MOL   H565 2611   5.363   3.872   1.183 -0.1829 -0.6429  0.2460
    4MOL   H566 2612   5.224   4.018   1.415  0.5931 -0.5817  0.9964
    4MOL   H567 2613   5.293   3.868   1.452  0.8243  1.3805  0.2167
    4MOL   H568 2614   5.116   3.760   1.272  0.2245  0.4153 -0.6412
    4MOL   H569 2615   5.076   3.914   1.241  0.5081 -1.4820 -0.9835
    4MOL   H570 2616   4.999   3.962   1.466 -0.6831  0.6947 -1.7992
    4MOL   H571 2617   4.907   3.826   1.391  0.8602 -2.3564  1.2148
    4MOL   H572 2618   4.945   3.762   1.614 -0.4532  0.8264 -1.0470
    4MOL   H573 2619   5.103   3.822   1.607 -0.6892  0.8581 -0.6591
    4MOL   H574 2620   5.034   3.585   1.438  1.4920 -0.7489 -0.7502
    4MOL   H575 2621   5.183   3.662   1.461 -0.6162  1.4683 -1.0514
    4MOL   H576 2622   5.045   3.517   1.702 -0.3949  1.0797  1.9027
    4MOL   H577 2623   5.198   3.593   1.706 -1.1622  1.8786 -0.8047
    4MOL   H578 2624   5.234   3.344   1.651  1.6961  2.0607  0.3316
    4MOL   H579 2625   5.254   3.412   1.497 -0.9322  0.5535 -0.7246
    4MOL   N580 2626   5.036   3.309   1.402  0.1637  0.4799  0.2964
    4MOL   C581 2627   4.917   3.249   1.352  0.3452 -0.3825  0.0343
    4MOL   C582 2628   4.811   3.361   1.331 -0.5644  0.1752 -0.8283
    4MOL   C583 2629   4.753   3.413   1.466 -0.4267  0.2094  0.1385
    4MOL   C584 2630   4.669   3.543   1.445 -0.5074 -0.1735  0.4912
    4MOL   C585 2631   4.654   3.618   1.580  0.4641 -0.1369  0.4937
    4MOL   C586 2632   4.605   3.760   1.557  0.5550  0.3198  0.3068
    4MOL   C587 2633   4.605   3.853   1.675 -0.5071  0.2797 -0.0931
    4MOL   C588 2634   4.580   3.999   1.628  0.3139 -0.0934 -0.0321
    4MOL   C589 2635   4.694   4.053   1.538 -1.0471 -0.0330 -0.1000
    4MOL   C590 2636   4.685   4.216   1.536 -0.2989  0.7583  0.6465
    4MOL   C591 2637   4.819   4.280   1.505  0.1977 -0.2361  0.0780
    4MOL   O592 2638   4.899   4.222   1.431  0.1660  0.6485 -0.3679
    4MOL   H593 2639   5.101   3.357   1.340  1.7654  0.4465  1.9075
    4MOL   H594 2640   4.941   3.201   1.257  2.0161 -1.5725  1.0402
    4MOL   H595 2641   4.887   3.171   1.423  2.9934 -0.6019  0.9545
    4MOL   H596 2642   4.726   3.324   1.274 -1.8375  1.7996 -0.0335
    4MOL   H597 2643   4.849   3.444   1.271  1.1118  1.8372  2.4325
    4MOL   H598 2644   4.693   3.333   1.511  0.6536 -0.5892  0.1707
    4MOL   H599 2645   4.836   3.443   1.531  0.9624 -2.7392 -0.1600
    4MOL   H600 2646   4.576   3.504   1.405 -0.7798  2.6326 -1.8320
    4MOL   H601 2647   4.715   3.605   1.368 -2.3964 -3.1172 -3.1760
    4MOL   H602 2648   4.746   3.621   1.638  0.7996  0.7578 -0.0782
    4MOL   H603 2649   4.579   3.565   1.639 -0.2563  0.9859  0.6028
    4MOL   H604 2650   4.672   3.809   1.487  2.4070 -1.3328  0.8711
    4MOL   H605 2651   4.501   3.750   1.525  0.3320  2.4225  0.3041
    4MOL   H606 2652   4.703   3.850   1.723  0.2870 -0.4097 -1.7233
    4MOL   H607 2653   4.531   3.825   1.751 -0.6702  0.3460 -0.2265
    4MOL   H608 2654   4.486   4.001   1.572  1.9806  2.2094 -2.8455
    4MOL   H609 2655   4.570   4.054   1.722  1.4410 -0.7012  0.4601
    4MOL   H610 2656   4.705   4.010   1.439  2.5733  1.0265 -0.2311
    4MOL   H611 2657   4.785   4.028   1.593  0.0401  1.1991 -1.3195
    4MOL   H612 2658   4.652   4.258   1.631  1.3523 -0.3657  1.7517
    4MOL   H613 2659   4.612   4.244   1.460  0.6466  3.6920  0.7619
    4MOL   N614 2660   4.853   4.398   1.569 -0.1764 -0.2248  0.2305
    4MOL   C615 2661   4.989   4.460   1.568  0.8302  0.1603  0.0965
    4MOL   C616 2662   4.992   4.609   1.537 -0.7669 -0.2453 -0.0968
    4MOL   C617 2663   5.139   4.651   1.534  0.0130 -0.6733 -0.9790
    4MOL   C618 2664   5.158   4.800   1.524 -0.2566 -0.6349  0.4224
    4MOL   C619 2665   5.310   4.835   1.541  0.3732 -0.5080 -0.5109
    4MOL   C620 2666   5.385   4.808   1.409  0.4445  0.2210  0.2492
    4MOL   C621 2667   5.537   4.837   1.435  0.1468 -0.4055 -0.1294
    4MOL   C622 2668   5.630   4.789   1.316  0.5257  0.8509  0.3842
    4MOL   C623 2669   5.613   4.867   1.184 -0.1373 -0.0629 -0.7014
    4MOL   C624 2670   5.498   4.820   1.094 -0.5263 -0.2260  0.3633
    4MOL   C625 2671   5.522   4.840   0.946 -0.5689 -0.3531  0.3707
    4MOL   O626 2672   5.621   4.903   0.902 -0.4429 -0.5489  0.3959
    4MOL   H627 2673   4.791   4.427   1.644  2.4601  0.0019  2.4303
    4MOL   H628 2674   5.040   4.411   1.485 -2.1639 -1.5242 -0.8411
    4MOL   H629 2675   5.038   4.443   1.664 -1.7403 -1.0969  1.2537
    4MOL   H630 2676   4.944   4.663   1.619  2.1442  0.1776  1.3975
    4MOL   H631 2677   4.935   4.633   1.446  0.0099  0.7120 -0.3447
    4MOL   H632 2678   5.188   4.619   1.626  0.5342  1.1145 -0.6169
    4MOL   H633 2679   5.184   4.600   1.449  2.2806  0.7162 -0.6616
    4MOL   H634 2680   5.090   4.850   1.592  1.3285 -0.5739  2.0076
    4MOL   H635 2681   5.123   4.833   1.426  1.7590  0.0955 -0.0797
    4MOL   H636 2682   5.352   4.779   1.625  2.1881 -0.1165 -1.1499
    4MOL   H637 2683   5.334   4.936   1.573  0.6697 -1.5912  2.9250
    4MOL   H638 2684   5.384   4.705   1.373 -1.5610  0.5192 -0.6230
    4MOL   H639 2685   5.340   4.868   1.330 -1.3407  0.5923  1.5069
    4MOL   H640 2686   5.581   4.788   1.521 -2.2412 -0.0064  1.3458
    4MOL   H641 2687   5.561   4.944   1.440 -0.1595 -0.2533 -1.5343
    4MOL   H642 2688   5.732   4.787   1.355  0.4340  0.2890  0.5999
    4MOL   H643 2689   5.618   4.681   1.309  0.2843  1.0334 -2.5615
    4MOL   H644 2690   5.710   4.854   1.136  0.2344 -2.3713  0.5711
    4MOL   H645 2691   5.596   4.973   1.200 -0.5448 -0.1353 -0.6506
    4MOL   H646 2692   5.411   4.876   1.129  0.8106  0.9355  1.8839
    4MOL   H647 2693   5.486   4.712   1.105 -1.4923 -0.1184  0.4171
    4MOL   N648 2694   5.417   4.805   0.870 -0.2794  0.6859 -0.0274
    4MOL   C649 2695   5.412   4.813   0.724 -0.2672  1.0352 -1.0062
    4MOL   C650 2696   5.350   4.938   0.670 -0.1208 -0.2092  0.2407
    4MOL   C651 2697   5.210   4.952   0.730  0.5105 -0.3741 -0.3278
    4MOL   C652 2698   5.163   5.091   0.742 -0.0643  0.7539  0.6077
    4MOL   C653 2699   5.032   5.115   0.822 -0.3133  0.8589 -0.2919
    4MOL   C654 2700   4.900   5.076   0.763  0.3837 -0.5040  0.1738
    4MOL   C655 2701   4.783   5.124   0.845 -0.9789  0.0802 -0.2322
    4MOL   C656 2702   4.648   5.116   0.762 -0.1548  0.2160  0.5018
    4MOL   C657 2703   4.520   5.137   0.845 -0.0088  0.3361  0.2318
    4MOL   C658 2704   4.499   5.277   0.902 -0.5713 -0.5900 -0.2895
    4MOL   C659 2705   4.386   5.273   1.006 -0.3406 -0.2302 -0.5225
    4MOL   O660 2706   4.305   5.182   1.013 -0.5571  0.6350  0.0803
    4MOL   H661 2707   5.333   4.783   0.922  0.4618  1.0751  1.3402
    4MOL   H662 2708   5.361   4.723   0.688  0.0476  0.1666  0.6583
    4MOL   H663 2709   5.513   4.808   0.684  0.5439 -0.1210  1.1333
    4MOL   H664 2710   5.337   4.925   0.562 -1.3876 -1.5193  0.5393
    4MOL   H665 2711   5.410   5.025   0.698 -0.2672  0.2602 -0.8504
    4MOL   H666 2712   5.142   4.884   0.679  0.4543 -0.5172 -0.0583
    4MOL   H667 2713   5.204   4.923   0.835  2.9262  2.4356  0.6814
    4MOL   H668 2714   5.136   5.128   0.643  0.3078  0.1254  0.2634
    4MOL   H669 2715   5.241   5.159   0.778  0.4412  0.3916  0.2181
    4MOL   H670 2716   5.036   5.221   0.845  0.9569  1.0505 -1.3556
    4MOL   H671 2717   5.053   5.063   0.916  1.4395 -0.5025 -1.3975
    4MOL   H672 2718   4.894   5.120   0.663 -0.3716  0.7894  0.7748
    4MOL   H673 2719   4.883   4.970   0.745 -1.2400 -0.4503  1.3746
    4MOL   H674 2720   4.788   5.224   0.887 -2.5751 -0.0997  0.4119
    4MOL   H675 2721   4.785   5.062   0.934 -1.9121  2.8472  1.8068
    4MOL   H676 2722   4.657   5.200   0.693 -1.2203  0.5692  0.7889
    4MOL   H677 2723   4.642   5.018   0.715 -0.7554  0.7903 -0.6453
    4MOL   H678 2724   4.511   5.059   0.921 -0.1624 -2.8922 -3.0136
    4MOL   H679 2725   4.435   5.113   0.781 -0.8200 -0.5949  1.6085
    4MOL   H680 2726   4.474   5.355   0.830  0.8071 -1.3314 -1.5917
    4MOL   H681 2727   4.593   5.307   0.949 -2.1692  2.5446  1.1070
    4MOL   H682 2728   4.397   5.352   1.080 -1.0731  0.5228 -1.2105
    5MOL     N1 2729   5.302   1.585   5.209 -0.1410  0.3433 -0.4214
    5MOL     C2 2730   5.415   1.629   5.283  0.7926  0.1077  0.6888
    5MOL     C3 2731   5.360   1.684   5.417 -0.2889 -0.7761 -0.2828
    5MOL     C4 2732   5.464   1.684   5.525 -1.1238  0.2756 -0.4984
    5MOL     C5 2733   5.418   1.723   5.668 -0.2885  0.4327  0.8189
    5MOL     C6 2734   5.343   1.620   5.747  0.8399  0.0269 -0.5789
    5MOL     C7 2735   5.313   1.675   5.883 -0.0252  0.5143  1.0629
    5MOL     C8 2736   5.227   1.578   5.953 -0.2166 -0.1227  0.3810
    5MOL     C9 2737   5.162   1.634   6.079 -0.4069  0.4284 -0.1949
    5MOL    C10 2738   5.098   1.521   6.162  0.0097 -0.4348 -0.8539
    5MOL    C11 2739   5.041   1.548   6.299  0.3431  0.6655 -0.1986
    5MOL    C12 2740   4.909   1.624   6.299  0.1927 -0.2536  0.5903
    5MOL    O13 2741   4.918   1.749   6.312 -0.6264  0.2885  0.8590
    5MOL    H14 2742   5.251   1.666   5.179  0.4975  0.8127 -0.2544
    5MOL    H15 2743   5.470   1.710   5.234  0.1090  0.3701  0.3554
    5MOL    H16 2744   5.493   1.553   5.295 -0.1482 -0.9730  0.0654
    5MOL    H17 2745   5.282   1.619   5.455  0.9222 -2.6309 -0.9407
    5MOL    H18 2746   5.310   1.780   5.404  0.0197 -0.4590  0.7749
    5MOL    H19 2747   5.531   1.599   5.535 -0.5037  0.8641  0.5852
    5MOL    H20 2748   5.538   1.758   5.493  0.9443 -1.3403  0.4389
    5MOL    H21 2749   5.377   1.824   5.674 -0.4173  0.4216  0.0911
    5MOL    H22 2750   5.520   1.724   5.706  0.2349 -0.1187 -0.5358
    5MOL    H23 2751   5.391   1.522   5.750  0.3824 -0.1506  1.9507
    5MOL    H24 2752   5.248   1.604   5.696  0.3451  0.2755  0.2635
    5MOL    H25 2753   5.399   1.687   5.949  1.2415  1.5691 -0.7428
    5MOL    H26 2754   5.266   1.773   5.873  1.2159  1.2765  2.3870
    5MOL    H27 2755   5.292   1.493   5.971 -0.9814 -1.0911 -1.2906
    5MOL    H28 2756   5.152   1.536   5.885 -0.6202  0.0985  0.6822
    5MOL    H29 2757   5.239   1.680   6.140 -1.4060  1.7428  0.0935
    5MOL    H30 2758   5.092   1.716   6.063 -0.1985  0.3409 -1.6013
    5MOL    H31 2759   5.175   1.445   6.175  0.4311  0.1068 -0.0580
    5MOL    H32 2760   5.022   1.474   6.101  0.4271  0.0614 -1.7620
    5MOL    H33 2761   5.115   1.595   6.363  0.1112 -0.0639  0.6129
    5MOL    H34 2762   5.019   1.452   6.345  3.1903 -0.3959 -0.9573
    5MOL    H35 2763   5.323   1.535   5.123 -1.9890 -0.9502 -0.1551
    5MOL    N36 2764   4.795   1.557   6.290 -0.2419  0.0904  0.4945
    5MOL    C37 2765   4.656   1.601   6.260 -0.1708 -0.3440 -0.0284
    5MOL    C38 2766   4.636   1.611   6.110  0.3849  0.5521  0.6104
    5MOL    C39 2767   4.486   1.630   6.084  0.5586 -1.6198 -0.8774
    5MOL    C40 2768   4.432   1.777   6.099 -0.0478 -0.4394 -0.0718
    5MOL    C41 2769   4.462   1.855   5.973 -0.8247  0.4920  0.6549
    5MOL    C42 2770   4.457   2.002   6.009  0.0571 -0.2980  0.7188
    5MOL    C43 2771   4.495   2.100   5.889 -0.0903  0.2477 -0.5848
    5MOL    C44 2772   4.523   2.244   5.940  0.6274 -0.4170  0.5307
    5MOL    C45 2773   4.398   2.329   5.964 -0.3944  0.6605 -0.9510
    5MOL    C46 2774   4.420   2.457   6.045 -0.0285 -0.9717  0.7078
    5MOL    C47 2775   4.522   2.542   5.970  0.2686 -0.3037  0.1751
    5MOL    O48 2776   4.494   2.597   5.861  0.2897 -0.0266 -0.9209
    5MOL    H49 2777   4.803   1.458   6.275  0.3390  0.0352  1.1936
    5MOL    H50 2778   4.590   1.524   6.299 -0.4996  0.7678  1.6328
    5MOL    H51 2779   4.628   1.693   6.311 -0.2176 -0.3010 -0.1307
    5MOL    H52 2780   4.661   1.513   6.070  0.3750  0.2182  1.4270
    5MOL    H53 2781   4.702   1.680   6.057  2.0676  0.1585  2.1156
    5MOL    H54 2782   4.470   1.592   5.983 -0.7446 -1.2312 -0.8275
    5MOL    H55 2783   4.415   1.567   6.137 -0.1362  1.2379  1.7578
    5MOL    H56 2784   4.479   1.823   6.187 -0.3975 -1.1902  0.5174
    5MOL    H57 2785   4.324   1.768   6.114 -0.1803 -2.0112 -1.8256
    5MOL    H58 2786   4.398   1.830   5.889  0.2705  2.2462 -0.7359
    5MOL    H59 2787   4.568   1.831   5.964 -0.7979  0.7876  0.1994
    5MOL    H60 2788   4.362   2.023   6.057 -0.2449 -0.4446  0.1806
    5MOL    H61 2789   4.528   2.022   6.089  1.5363  1.8816 -1.0682
    5MOL    H62 2790   4.417   2.109   5.814  0.8065 -2.1680 -1.8544
    5MOL    H63 2791   4.584   2.068   5.835 -0.1440 -0.9291  0.0252
    5MOL    H64 2792   4.563   2.230   6.040 -2.7151 -0.5455  1.9326
    5MOL    H65 2793   4.600   2.301   5.889  0.2544  1.1346  1.6789
    5MOL    H66 2794   4.328   2.273   6.026  1.1338  0.3938  0.5839
    5MOL    H67 2795   4.352   2.345   5.867 -1.5033  3.7284  0.0192
    5MOL    H68 2796   4.451   2.442   6.149 -0.4115 -0.6277  0.8773
    5MOL    H69 2797   4.321   2.503   6.045  1.2753  1.9408  1.4545
    5MOL    N70 2798   4.640   2.567   6.033  0.1740  0.1299 -0.4841
    5MOL    C71 2799   4.745   2.637   5.968  0.5556 -0.4602  0.2272
    5MOL    C72 2800   4.841   2.546   5.893  0.2384 -0.6100 -0.1938
    5MOL    C73 2801   4.915   2.460   5.997 -0.1003  0.3565  0.1621
    5MOL    C74 2802   5.033   2.529   6.067  0.0073 -0.2993  0.0319
    5MOL    C75 2803   5.157   2.448   6.099  0.2790  0.3917  0.7290
    5MOL    C76 2804   5.280   2.536   6.129 -0.2196  0.7723  0.4192
    5MOL    C77 2805   5.406   2.438   6.143  0.0247 -0.0459  0.2188
    5MOL    C78 2806   5.545   2.510   6.141  0.0903  0.1309  0.1016
    5MOL    C79 2807   5.648   2.402   6.147 -0.1594  0.5056  0.6645
    5MOL    C80 2808   5.792   2.458   6.144 -0.4202  0.4161  0.7693
    5MOL    C81 2809   5.845   2.499   6.011 -0.4194  0.7803  0.2018
    5MOL    O82 2810   5.775   2.478   5.908 -0.0357  0.3145 -0.0936
    5MOL    H83 2811   4.660   2.536   6.127  2.6717 -0.8096 -1.3062
    5MOL    H84 2812   4.706   2.713   5.901 -1.3234 -0.6189  1.0974
    5MOL    H85 2813   4.804   2.686   6.046  2.2003 -0.5714 -0.9201
    5MOL    H86 2814   4.912   2.595   5.827  0.0396 -2.8846 -2.1684
    5MOL    H87 2815   4.792   2.484   5.818 -0.5080  0.5063 -0.6337
    5MOL    H88 2816   4.842   2.421   6.068 -0.8076 -0.4850 -1.0281
    5MOL    H89 2817   4.958   2.384   5.932  2.0498  0.0063  1.9171
    5MOL    H90 2818   5.001   2.576   6.160  2.2651  0.8086  0.2659
    5MOL    H91 2819   5.066   2.617   6.011  1.7375 -1.4942 -0.8376
    5MOL    H92 2820   5.175   2.388   6.009  1.3264  0.2409  1.0333
    5MOL    H93 2821   5.134   2.372   6.174  0.7168  1.0660  1.5433
    5MOL    H94 2822   5.287   2.615   6.055  1.1852  0.8853  0.6529
    5MOL    H95 2823   5.255   2.574   6.228  1.2097  0.4671  0.9117
    5MOL    H96 2824   5.414   2.392   6.044  0.6385  0.5061  0.0020
    5MOL    H97 2825   5.398   2.373   6.229 -1.1688  1.5430  1.3422
    5MOL    H98 2826   5.551   2.583   6.060 -0.5291  1.7487  1.4765
    5MOL    H99 2827   5.545   2.573   6.230 -0.1708 -0.3253  0.4288
    5MOL   H100 2828   5.630   2.334   6.064 -0.1349  0.3998  0.7464
    5MOL   H101 2829   5.632   2.339   6.234  1.6174 -0.1609  0.5288
    5MOL   H102 2830   5.858   2.380   6.181  1.1112  0.8258 -1.0064
    5MOL   H103 2831   5.799   2.539   6.216  0.4117  0.3923  0.7209
    5MOL   N104 2832   5.975   2.531   6.017  0.6220  0.1806 -0.2654
    5MOL   C105 2833   6.056   2.565   5.901  0.0291  0.8207  0.5021
    5MOL   C106 2834   6.184   2.631   5.956  0.4025  1.0031 -0.1609
    5MOL   C107 2835   6.284   2.684   5.846  0.1412 -0.2404 -0.2564
    5MOL   C108 2836   6.379   2.575   5.795 -0.0061 -0.2887  0.1255
    5MOL   C109 2837   6.473   2.621   5.682  0.0923 -0.4311 -0.9103
    5MOL   C110 2838   6.415   2.648   5.541 -0.3736  0.4029  0.9526
    5MOL   C111 2839   6.518   2.649   5.427  0.5617  0.1743 -0.7370
    5MOL   C112 2840   6.444   2.644   5.293  0.1474  0.1265 -0.0874
    5MOL   C113 2841   6.529   2.688   5.172 -0.6954  0.1953 -0.1638
    5MOL   C114 2842   6.479   2.648   5.033 -0.6430 -0.2504 -0.2781
    5MOL   C115 2843   6.360   2.737   4.997  0.0253  0.4588  0.7406
    5MOL   O116 2844   6.249   2.692   5.017  0.0799  0.0910  0.1027
    5MOL   H117 2845   6.022   2.507   6.102  0.0910  0.1015  0.0061
    5MOL   H118 2846   6.061   2.473   5.843 -3.5410 -0.2626  1.7586
    5MOL   H119 2847   5.997   2.640   5.848 -1.4142 -2.0255 -2.0503
    5MOL   H120 2848   6.237   2.568   6.028 -1.1328  3.0796  2.8887
    5MOL   H121 2849   6.160   2.716   6.019 -2.2965 -0.2703  0.5902
    5MOL   H122 2850   6.227   2.717   5.759 -0.4258 -1.2408 -0.2677
    5MOL   H123 2851   6.352   2.763   5.877 -0.6666  0.5746 -0.5476
    5MOL   H124 2852   6.320   2.500   5.743  1.6015 -0.5631 -1.3290
    5MOL   H125 2853   6.434   2.533   5.879 -1.6795  0.9376  1.8907
    5MOL   H126 2854   6.560   2.554   5.682  1.5649  1.4177  0.6098
    5MOL   H127 2855   6.519   2.716   5.708  0.8162 -0.6522 -1.3873
    5MOL   H128 2856   6.348   2.567   5.512  0.5916 -0.3185  0.6897
    5MOL   H129 2857   6.362   2.743   5.543 -2.4342 -0.7464  1.7888
    5MOL   H130 2858   6.591   2.570   5.446  1.5846  0.7433 -2.2331
    5MOL   H131 2859   6.577   2.740   5.430  1.9901 -0.7831  0.8285
    5MOL   H132 2860   6.409   2.542   5.274 -0.7142 -0.0715  2.3309
    5MOL   H133 2861   6.353   2.704   5.292  1.0841  1.5518 -0.0746
    5MOL   H134 2862   6.626   2.639   5.177 -0.3359  0.9055 -0.1309
    5MOL   H135 2863   6.544   2.796   5.183 -1.7283  0.4545 -1.1605
    5MOL   H136 2864   6.456   2.542   5.026  0.7041 -0.4211 -2.9487
    5MOL   H137 2865   6.563   2.654   4.964 -1.2308 -0.2777 -1.0045
    5MOL   N138 2866   6.394   2.854   4.941 -0.1877  0.3185  0.0472
    5MOL   C139 2867   6.303   2.966   4.912  0.0747  0.1959  0.1822
    5MOL   C140 2868   6.300   3.073   5.018  0.2048  0.6390  0.5677
    5MOL   C141 2869   6.219   3.195   4.982 -0.7992  0.8249  0.5751
    5MOL   C142 2870   6.198   3.296   5.096 -0.2660  0.5306 -0.2402
    5MOL   C143 2871   6.104   3.418   5.056 -0.3046  0.4569  0.4079
    5MOL   C144 2872   6.066   3.503   5.181  0.0502  0.2265 -0.2241
    5MOL   C145 2873   5.962   3.616   5.150 -0.5816  0.3697  0.8227
    5MOL   C146 2874   5.822   3.580   5.106 -0.3520  0.5693  0.4874
    5MOL   C147 2875   5.738   3.692   5.061  0.4392 -0.1549 -0.6203
    5MOL   C148 2876   5.587   3.662   5.083 -0.3812 -0.0222  0.6226
    5MOL   C149 2877   5.538   3.541   5.006 -0.6780  0.4158  0.6909
    5MOL   O150 2878   5.577   3.426   5.027  0.2473 -0.6142 -0.8142
    5MOL   H151 2879   6.495   2.857   4.929  0.1815 -2.1098  2.2867
    5MOL   H152 2880   6.330   3.008   4.815  0.9335 -2.6764 -0.8489
    5MOL   H153 2881   6.200   2.935   4.893 -0.1025 -0.1310  1.5881
    5MOL   H154 2882   6.399   3.118   5.023  0.6114 -0.0523 -0.8444
    5MOL   H155 2883   6.274   3.028   5.114  1.0769  0.6639  0.8199
    5MOL   H156 2884   6.283   3.248   4.911  3.5514 -0.5763  3.2644
    5MOL   H157 2885   6.124   3.164   4.939 -0.4945 -0.2930  0.6746
    5MOL   H158 2886   6.296   3.319   5.136 -0.5653  1.0064  0.2189
    5MOL   H159 2887   6.133   3.244   5.166  1.1064 -1.9458 -0.7123
    5MOL   H160 2888   6.012   3.382   5.011  0.8041 -2.6813  0.4825
    5MOL   H161 2889   6.156   3.478   4.982 -0.0322 -0.7998 -0.4271
    5MOL   H162 2890   6.023   3.426   5.245  1.0918 -0.7579 -0.7086
    5MOL   H163 2891   6.150   3.537   5.240  0.0573 -0.8859  0.4134
    5MOL   H164 2892   6.000   3.686   5.075 -2.2670  2.5857  1.9585
    5MOL   H165 2893   5.958   3.673   5.243 -0.0358 -0.2273  1.2111
    5MOL   H166 2894   5.829   3.497   5.036 -0.7810  1.6565 -0.8656
    5MOL   H167 2895   5.771   3.545   5.196 -0.8077 -1.6355 -0.5987
    5MOL   H168 2896   5.760   3.710   4.955 -2.3821 -0.0927 -1.2448
    5MOL   H169 2897   5.772   3.778   5.118  2.5797 -1.3679 -0.0139
    5MOL   H170 2898   5.528   3.748   5.054 -0.8013 -0.0801  1.3165
    5MOL   H171 2899   5.566   3.647   5.189  1.2898 -0.9364  0.8435
    5MOL   N172 2900   5.443   3.569   4.917  0.5163 -0.3623  0.2901
    5MOL   C173 2901   5.375   3.474   4.831  0.0980  0.4476  0.4190
    5MOL   C174 2902   5.286   3.542   4.724  1.3832  0.9782  0.3668
    5MOL   C175 2903   5.355   3.602   4.595 -0.0616  0.4668 -1.1125
    5MOL   C176 2904   5.273   3.710   4.518 -0.2484 -0.1656 -0.0286
    5MOL   C177 2905   5.361   3.789   4.417 -0.0358 -0.0666  0.4387
    5MOL   C178 2906   5.265   3.888   4.346 -0.3623 -0.0419  0.1049
    5MOL   C179 2907   5.347   3.997   4.278  0.1954 -0.3351  0.1327
    5MOL   C180 2908   5.474   3.953   4.201 -0.8886  0.5458  0.1954
    5MOL   C181 2909   5.502   4.036   4.077  0.1683 -0.1901 -0.3071
    5MOL   C182 2910   5.634   3.998   4.005 -0.0857 -0.1190 -0.8177
    5MOL   C183 2911   5.622   3.930   3.873 -0.3440  0.1977  0.2195
    5MOL   O184 2912   5.561   3.994   3.785 -0.4778  1.1519 -0.1524
    5MOL   H185 2913   5.408   3.663   4.906  0.8499 -0.2590  0.0935
    5MOL   H186 2914   5.431   3.395   4.780 -1.8251 -1.0556  0.5695
    5MOL   H187 2915   5.314   3.414   4.898 -0.2039 -1.0047 -1.1210
    5MOL   H188 2916   5.226   3.619   4.771  1.5181  1.8561 -0.8680
    5MOL   H189 2917   5.220   3.465   4.686  0.0018  1.1679  2.2859
    5MOL   H190 2918   5.449   3.654   4.615 -0.0931 -0.0332  0.3644
    5MOL   H191 2919   5.380   3.528   4.519 -1.8209 -1.8145  0.4675
    5MOL   H192 2920   5.224   3.779   4.587 -1.0812 -2.3228  1.6048
    5MOL   H193 2921   5.191   3.661   4.466  0.3330 -0.0455 -1.0714
    5MOL   H194 2922   5.402   3.724   4.339 -0.4530  0.2368 -0.0391
    5MOL   H195 2923   5.436   3.846   4.471 -0.6665 -0.5512  1.8592
    5MOL   H196 2924   5.209   3.832   4.271  1.5755 -0.5210 -1.0293
    5MOL   H197 2925   5.191   3.929   4.414  0.9386 -0.6614  1.9396
    5MOL   H198 2926   5.381   4.066   4.355 -3.3534  1.1128  0.5086
    5MOL   H199 2927   5.283   4.054   4.210 -1.3702  1.0490  2.6903
    5MOL   H200 2928   5.563   3.960   4.263 -0.3603 -1.8478 -0.2301
    5MOL   H201 2929   5.484   3.848   4.173  0.7705  0.4602  1.0988
    5MOL   H202 2930   5.498   4.143   4.099 -1.0223  0.1726 -2.2074
    5MOL   H203 2931   5.416   4.013   4.014 -1.3950  0.3857  1.5503
    5MOL   H204 2932   5.708   3.952   4.069 -2.0994  0.9420  2.3761
    5MOL   H205 2933   5.686   4.091   3.982 -1.3835  1.4308  2.2962
    5MOL   N206 2934   5.676   3.809   3.850  0.0525  0.0572  0.4206
    5MOL   C207 2935   5.684   3.747   3.718 -0.5235  0.7533  0.0272
    5MOL   C208 2936   5.833   3.745   3.666 -0.6311 -0.3726  0.1210
    5MOL   C209 2937   5.910   3.665   3.763 -0.4495 -0.2949 -0.1380
    5MOL   C210 2938   6.058   3.660   3.708  0.2057  0.5427  0.1285
    5MOL   C211 2939   6.148   3.561   3.786 -0.8927  0.3751 -0.2079
    5MOL   C212 2940   6.293   3.558   3.739  0.6756  0.7560  0.2743
    5MOL   C213 2941   6.373   3.445   3.803 -0.2977  0.2413  0.1985
    5MOL   C214 2942   6.522   3.449   3.774  0.0884  0.5293 -0.4007
    5MOL   C215 2943   6.552   3.436   3.625  0.3897  0.5349  0.0127
    5MOL   C216 2944   6.519   3.298   3.556  0.0430 -0.5030 -0.2674
    5MOL   C217 2945   6.607   3.185   3.592 -0.8102  0.6280  0.3740
    5MOL   O218 2946   6.668   3.178   3.693 -0.2090 -0.3351 -0.4351
    5MOL   H219 2947   5.716   3.749   3.921 -0.2685  1.6768  2.0085
    5MOL   H220 2948   5.637   3.794   3.632  1.4799 -0.3042 -1.7004
    5MOL   H221 2949   5.637   3.648   3.724  1.5273 -0.3282 -1.0682
    5MOL   H222 2950   5.863   3.850   3.657  1.4240 -0.7737  2.0285
    5MOL   H223 2951   5.850   3.706   3.565  1.0894 -1.7811  0.9523
    5MOL   H224 2952   5.927   3.714   3.859 -0.4757  0.5159 -0.5427
    5MOL   H225 2953   5.871   3.563   3.770 -0.3454 -0.4520 -1.6099
    5MOL   H226 2954   6.088   3.764   3.703 -1.9834  1.3397  2.3424
    5MOL   H227 2955   6.043   3.617   3.609  3.0607 -1.0093  0.3199
    5MOL   H228 2956   6.111   3.458   3.778 -0.9487  0.3779  0.0047
    5MOL   H229 2957   6.145   3.581   3.893  2.6719 -1.9887  0.4521
    5MOL   H230 2958   6.295   3.552   3.630 -1.4379 -1.3540  0.3214
    5MOL   H231 2959   6.329   3.656   3.772  0.3591  1.1400 -0.5210
    5MOL   H232 2960   6.343   3.345   3.775  3.6641 -0.9521 -0.0988
    5MOL   H233 2961   6.361   3.452   3.911  1.8681 -1.6493  0.5835
    5MOL   H234 2962   6.574   3.536   3.814 -0.8215  0.2411  1.4574
    5MOL   H235 2963   6.566   3.364   3.825  0.4293  1.3247  0.6406
    5MOL   H236 2964   6.660   3.443   3.626  0.4071  0.2676  0.2264
    5MOL   H237 2965   6.517   3.513   3.556  0.1485 -0.0604 -0.5408
    5MOL   H238 2966   6.537   3.318   3.450  0.3693 -1.3425 -0.3704
    5MOL   H239 2967   6.412   3.276   3.563 -0.2564  1.0839  0.3031
    5MOL   N240 2968   6.609   3.092   3.500 -0.2949 -0.4565  0.2929
    5MOL   C241 2969   6.670   2.961   3.508 -0.0828 -0.0532  0.2331
    5MOL   C242 2970   6.826   2.982   3.520 -0.0683  0.6157  0.0412
    5MOL   C243 2971   6.902   2.842   3.528  0.4083 -0.8864 -0.7386
    5MOL   C244 2972   7.048   2.865   3.565  0.3720  0.4418 -0.2799
    5MOL   C245 2973   7.121   2.731   3.584  0.3599 -1.0229  0.2546
    5MOL   C246 2974   7.262   2.744   3.639 -0.5366 -0.7232  0.0894
    5MOL   C247 2975   7.273   2.733   3.788 -0.5434  0.8648  0.6867
    5MOL   C248 2976   7.263   2.877   3.858  0.5456  0.3841  0.1355
    5MOL   C249 2977   7.322   2.886   3.998 -0.1383  0.6827 -0.2317
    5MOL   C250 2978   7.269   2.992   4.094  0.0405  0.2261 -0.3438
    5MOL   C251 2979   7.312   3.133   4.055  0.6573  0.0354  0.0112
    5MOL   O252 2980   7.291   3.172   3.938 -0.1401  0.0200  0.6326
    5MOL   H253 2981   6.563   3.119   3.414 -0.7257  1.4014  1.0803
    5MOL   H254 2982   6.654   2.907   3.415 -1.0117 -0.6123  0.7106
    5MOL   H255 2983   6.617   2.900   3.582 -1.9217 -1.2492 -2.0291
    5MOL   H256 2984   6.858   3.043   3.604  0.0568 -0.7704  1.0258
    5MOL   H257 2985   6.859   3.036   3.431  1.6996 -1.4758 -0.6349
    5MOL   H258 2986   6.864   2.786   3.614 -0.3276 -0.2168 -0.6231
    5MOL   H259 2987   6.905   2.780   3.439  1.9289 -0.9237 -0.6875
    5MOL   H260 2988   7.049   2.928   3.654  3.2334  1.6042 -1.0789
    5MOL   H261 2989   7.086   2.932   3.488  1.2668  2.3136  1.7188
    5MOL   H262 2990   7.128   2.677   3.489  1.6382  0.4762 -0.5186
    5MOL   H263 2991   7.063   2.668   3.652  0.1329  0.2687  1.2738
    5MOL   H264 2992   7.319   2.662   3.595  2.9356  1.5208  0.1646
    5MOL   H265 2993   7.311   2.827   3.588 -1.4186 -0.5384 -0.4628
    5MOL   H266 2994   7.375   2.697   3.800 -1.6619 -2.4104  1.0707
    5MOL   H267 2995   7.203   2.658   3.827 -0.6865 -0.6548 -2.3771
    5MOL   H268 2996   7.308   2.955   3.797  2.1733 -1.0424 -0.5205
    5MOL   H269 2997   7.157   2.902   3.870  0.6003 -0.1233  1.7672
    5MOL   H270 2998   7.428   2.897   3.978 -0.1287  0.2547 -0.4306
    5MOL   H271 2999   7.317   2.788   4.044  0.7310  0.8205  0.1590
    5MOL   H272 3000   7.313   2.976   4.192 -0.7581 -0.5473 -0.0947
    5MOL   H273 3001   7.162   2.995   4.116  0.6894 -0.3413  3.1763
    5MOL   N274 3002   7.341   3.218   4.156 -0.5090  0.0379  0.3081
    5MOL   C275 3003   7.376   3.358   4.151 -0.0528 -0.1922  0.4325
    5MOL   C276 3004   7.253   3.445   4.177 -0.2380 -0.3329  0.1623
    5MOL   C277 3005   7.285   3.597   4.166  0.2874  0.1425 -0.1865
    5MOL   C278 3006   7.346   3.656   4.033 -0.5841  0.2677 -0.8158
    5MOL   C279 3007   7.256   3.632   3.904 -0.7183  0.0246 -0.2424
    5MOL   C280 3008   7.328   3.614   3.765 -0.0144 -0.2516 -0.4410
    5MOL   C281 3009   7.397   3.479   3.729  0.2820  0.0207  0.8875
    5MOL   C282 3010   7.549   3.475   3.743 -0.1477 -0.1474  0.7319
    5MOL   C283 3011   7.623   3.586   3.680 -1.0212  0.3341  0.1524
    5MOL   C284 3012   0.059   3.562   3.652 -0.1696 -0.2084 -0.1697
    5MOL   C285 3013   0.151   3.547   3.777  0.2926 -0.1844 -0.1778
    5MOL   O286 3014   0.145   3.631   3.867  0.2029  0.1945  0.1882
    5MOL   H287 3015   7.337   3.171   4.246 -0.2205 -1.1914 -0.3046
    5MOL   H288 3016   7.419   3.397   4.059 -0.3316  0.0850  0.4181
    5MOL   H289 3017   7.450   3.385   4.226  0.8388  0.1188 -0.5496
    5MOL   H290 3018   7.220   3.422   4.279 -1.8686 -1.0943 -0.5215
    5MOL   H291 3019   7.171   3.419   4.111 -0.0602  0.8226 -0.5429
    5MOL   H292 3020   7.204   3.664   4.195  2.2157  1.9004  1.2792
    5MOL   H293 3021   7.353   3.623   4.247 -2.6344  2.0356  1.7709
    5MOL   H294 3022   7.446   3.618   4.016 -0.2951  0.1242  1.1198
    5MOL   H295 3023   7.361   3.762   4.050 -0.6937 -0.0231  1.2108
    5MOL   H296 3024   7.184   3.714   3.896 -0.9442 -0.0351  0.9343
    5MOL   H297 3025   7.209   3.534   3.903 -3.0741  1.0608  1.5266
    5MOL   H298 3026   7.249   3.618   3.689  0.2002  0.2712 -0.6417
    5MOL   H299 3027   7.389   3.703   3.746  0.3858 -0.4804 -0.2276
    5MOL   H300 3028   7.371   3.457   3.625 -1.0517 -1.0005  1.4227
    5MOL   H301 3029   7.344   3.394   3.774  0.4388 -1.1305 -1.0439
    5MOL   H302 3030   7.575   3.455   3.846  1.6772 -1.5431  0.0268
    5MOL   H303 3031   7.585   3.384   3.695  0.6647 -0.8613  2.6807
    5MOL   H304 3032   7.611   3.675   3.743 -0.8692 -0.0768  0.7677
    5MOL   H305 3033   7.581   3.607   3.582 -1.0088 -1.4232 -0.2387
    5MOL   H306 3034   0.101   3.636   3.584 -0.0394 -0.5121 -0.4214
    5MOL   H307 3035   0.074   3.470   3.595  2.2741  0.4839 -0.6955
    5MOL   N308 3036   0.238   3.445   3.768 -0.3905  0.3833 -0.4666
    5MOL   C309 3037   0.352   3.425   3.856 -0.4412  0.4504  0.3049
    5MOL   C310 3038   0.479   3.435   3.767  1.1654  0.1226  0.6682
    5MOL   C311 3039   0.616   3.409   3.834 -0.3189 -0.0160  0.6735
    5MOL   C312 3040   0.733   3.390   3.742  0.6821  0.2416  0.2742
    5MOL   C313 3041   0.726   3.294   3.621  0.3847 -0.2568  0.2520
    5MOL   C314 3042   0.704   3.141   3.650 -0.4256 -0.1221  0.3545
    5MOL   C315 3043   0.697   3.045   3.530 -0.2944  0.1898  0.0234
    5MOL   C316 3044   0.577   3.058   3.433 -0.1561 -0.1184 -0.0978
    5MOL   C317 3045   0.428   3.067   3.493 -0.2549  0.4404 -0.1426
    5MOL   C318 3046   0.321   3.105   3.388 -0.3146  0.2318 -0.4109
    5MOL   C319 3047   0.196   3.171   3.460 -0.0383  0.2117 -1.0170
    5MOL   O320 3048   0.206   3.249   3.555 -0.2410  0.2653  0.0094
    5MOL   H321 3049   0.228   3.396   3.681  0.2028 -0.7349  0.0912
    5MOL   H322 3050   0.333   3.333   3.911 -0.4015  0.6642  0.6790
    5MOL   H323 3051   0.374   3.508   3.924  0.6416 -1.4964  2.4067
    5MOL   H324 3052   0.477   3.527   3.708 -0.4716 -0.1601  0.2720
    5MOL   H325 3053   0.460   3.358   3.693  0.0200  0.1169  0.9628
    5MOL   H326 3054   0.626   3.492   3.904 -0.2708  0.9968 -0.5159
    5MOL   H327 3055   0.610   3.322   3.899  0.7610 -2.0548 -1.8646
    5MOL   H328 3056   0.809   3.369   3.818  0.5441 -0.7628  0.1387
    5MOL   H329 3057   0.766   3.478   3.687  0.2486  0.5357  0.4838
    5MOL   H330 3058   0.814   3.292   3.558  0.4108 -3.8802  0.2876
    5MOL   H331 3059   0.639   3.313   3.558  1.3691  0.4374 -0.9154
    5MOL   H332 3060   0.783   3.105   3.715 -0.6434 -2.3290 -0.5442
    5MOL   H333 3061   0.613   3.131   3.709  0.1671 -1.4006  1.0729
    5MOL   H334 3062   0.697   2.940   3.561  0.5394 -0.9609 -3.5816
    5MOL   H335 3063   0.783   3.068   3.466  0.6014 -1.8191  0.4602
    5MOL   H336 3064   0.593   3.143   3.367  0.4914 -0.1000  0.0822
    5MOL   H337 3065   0.589   2.976   3.361 -0.2820 -0.9517  0.8168
    5MOL   H338 3066   0.434   3.158   3.552 -0.9877  0.9386 -0.8332
    5MOL   H339 3067   0.406   2.982   3.558  0.1983  1.8440  1.9046
    5MOL   H340 3068   0.282   3.020   3.333 -0.5256 -1.4326  2.1866
    5MOL   H341 3069   0.367   3.167   3.311  1.7710 -0.6314  0.1147
    5MOL   N342 3070   0.082   3.142   3.407 -0.0706  0.5359  0.2522
    5MOL   C343 3071   7.677   3.211   3.442 -0.6125  0.7463  0.4922
    5MOL   C344 3072   7.549   3.165   3.355 -0.2628  0.1254 -0.6217
    5MOL   C345 3073   7.410   3.223   3.404  0.5028  0.7532  0.4945
    5MOL   C346 3074   7.294   3.153   3.332 -0.4447 -0.7417  0.0812
    5MOL   C347 3075   7.256   3.222   3.204  0.5153  0.2010  0.3499
    5MOL   C348 3076   7.144   3.143   3.129 -0.4720 -0.4034 -0.3441
    5MOL   C349 3077   7.005   3.176   3.178  0.1302  0.0174  0.1486
    5MOL   C350 3078   6.900   3.112   3.093  0.5985 -0.7604 -0.2257
    5MOL   C351 3079   6.764   3.182   3.119  0.2498  0.1613 -0.2628
    5MOL   C352 3080   6.646   3.119   3.038 -0.7543  0.1291  0.7248
    5MOL   C353 3081   6.509   3.137   3.104 -0.3823  0.9720 -0.4002
    5MOL   O354 3082   6.500   3.162   3.229 -0.4209  0.0534  0.3536
    5MOL   H355 3083   0.081   3.076   3.330 -3.0288  0.5935  0.1909
    5MOL   H356 3084   7.665   3.200   3.550  3.4241 -2.3190  0.7294
    5MOL   H357 3085   7.688   3.318   3.427 -0.0455  0.6856  0.4803
    5MOL   H358 3086   7.542   3.059   3.380  3.0190  0.3292  1.4152
    5MOL   H359 3087   7.563   3.181   3.248 -1.9205  2.2430 -0.5466
    5MOL   H360 3088   7.401   3.199   3.510  1.2082 -0.1492  0.3574
    5MOL   H361 3089   7.407   3.332   3.402  0.6818  0.8477  3.2711
    5MOL   H362 3090   7.205   3.159   3.395  0.4173 -1.0885  1.3560
    5MOL   H363 3091   7.323   3.049   3.314  1.7013 -0.1500 -0.0305
    5MOL   H364 3092   7.343   3.227   3.139 -0.6658  1.0368 -1.1938
    5MOL   H365 3093   7.232   3.328   3.219  0.9241  0.2360  0.7622
    5MOL   H366 3094   7.145   3.170   3.023  1.4074  0.2550 -0.1717
    5MOL   H367 3095   7.164   3.036   3.128  0.3984 -0.2609  1.1505
    5MOL   H368 3096   6.995   3.285   3.171 -2.0104 -0.0429  1.7369
    5MOL   H369 3097   6.990   3.147   3.282  1.8320  0.6453  0.5878
    5MOL   H370 3098   6.922   3.105   2.986 -1.4185  1.5883 -0.8349
    5MOL   H371 3099   6.891   3.007   3.121  1.7275 -0.2891  2.0012
    5MOL   H372 3100   6.772   3.287   3.091 -2.3251 -0.6907 -4.6917
    5MOL   H373 3101   6.737   3.177   3.224  0.4108 -0.9211 -0.2680
    5MOL   H374 3102   6.670   3.012   3.035 -0.6560  0.1591  0.4936
    5MOL   H375 3103   6.640   3.145   2.933 -0.2857  1.0377  0.9201
    5MOL   N376 3104   6.408   3.119   3.020  0.4475  0.6745 -0.2835
    5MOL   C377 3105   6.266   3.108   3.061 -0.2390  0.7987  0.1937
    5MOL   C378 3106   6.236   2.980   3.149  0.2701 -0.1693 -0.5059
    5MOL   C379 3107   6.267   2.848   3.083 -0.0629 -0.7646  0.2366
    5MOL   C380 3108   6.216   2.711   3.148  0.2882 -0.5221  0.3421
    5MOL   C381 3109   6.261   2.588   3.075 -0.8530  1.1441  0.1842
    5MOL   C382 3110   6.204   2.463   3.154 -0.0926  0.3564  0.2617
    5MOL   C383 3111   6.283   2.338   3.113  0.0574 -0.2898  0.0473
    5MOL   C384 3112   6.243   2.213   3.203 -0.8548  0.3487  0.2851
    5MOL   C385 3113   6.302   2.235   3.348  0.2004  0.0012 -0.0358
    5MOL   C386 3114   6.274   2.122   3.446 -0.2847 -0.1769 -0.9213
    5MOL   C387 3115   6.304   2.151   3.595  0.3715  0.3602 -0.3842
    5MOL   O388 3116   6.412   2.185   3.642 -0.0909 -0.2771  0.4157
    5MOL   H389 3117   6.430   3.081   2.930  0.2447  2.1728 -0.9878
    5MOL   H390 3118   6.231   3.186   3.128  0.8743  0.2661  1.4135
    5MOL   H391 3119   6.198   3.100   2.976  1.4074  1.7090 -1.2395
    5MOL   H392 3120   6.129   2.975   3.169 -0.1497 -2.7811 -3.1485
    5MOL   H393 3121   6.288   2.978   3.245 -1.2850 -1.6987  0.3360
    5MOL   H394 3122   6.222   2.839   2.984  1.3730 -1.1942 -0.3962
    5MOL   H395 3123   6.375   2.843   3.069 -0.0767  2.6639 -1.4597
    5MOL   H396 3124   6.109   2.708   3.167  0.2931 -0.4038  0.3831
    5MOL   H397 3125   6.265   2.715   3.245  1.2403 -3.3721  0.0391
    5MOL   H398 3126   6.369   2.574   3.078 -0.7217  2.0559 -0.1780
    5MOL   H399 3127   6.233   2.588   2.970  2.0341  1.5963 -0.6283
    5MOL   H400 3128   6.202   2.479   3.262  2.8611 -3.8388  1.0858
    5MOL   H401 3129   6.099   2.455   3.129  0.2309 -0.8721 -0.7672
    5MOL   H402 3130   6.392   2.352   3.113  0.2995 -2.0090  0.8902
    5MOL   H403 3131   6.261   2.332   3.007  0.4372  1.9281 -0.1843
    5MOL   H404 3132   6.135   2.198   3.214 -0.7197 -0.5008  0.4493
    5MOL   H405 3133   6.280   2.119   3.162 -2.1868 -0.0279 -0.0860
    5MOL   H406 3134   6.259   2.323   3.396  0.1119  1.7548 -3.1918
    5MOL   H407 3135   6.409   2.227   3.334  0.3188 -0.5427  1.1553
    5MOL   H408 3136   6.321   2.027   3.421  3.3246  1.0763  0.7240
    5MOL   H409 3137   6.166   2.111   3.441 -0.7964  3.0966  1.3049
    5MOL   N410 3138   6.203   2.125   3.674  0.7585  0.6439 -0.3762
    5MOL   C411 3139   6.184   2.157   3.812  0.5578  0.1916 -0.1759
    5MOL   C412 3140   6.064   2.081   3.859  0.2757  0.2625  0.1908
    5MOL   C413 3141   6.030   2.078   4.012  0.2969  0.9830 -0.1679
    5MOL   C414 3142   5.927   1.975   4.046 -0.0759  0.9945 -0.0584
    5MOL   C415 3143   5.922   1.943   4.195  0.5681 -0.7216 -0.1295
    5MOL   C416 3144   5.797   1.865   4.236  0.8306  0.7263  0.0985
    5MOL   C417 3145   5.815   1.714   4.205 -0.3541 -0.1705 -0.0168
    5MOL   C418 3146   5.704   1.630   4.241 -0.7293  0.3615  0.2846
    5MOL   C419 3147   5.575   1.648   4.157 -0.0413  0.3306  0.0000
    5MOL   C420 3148   5.591   1.630   4.004  0.3443 -0.0034  0.4413
    5MOL   C421 3149   5.453   1.615   3.935  0.3902  0.1273  0.5101
    5MOL   O422 3150   5.368   1.560   3.991  0.3900  0.2131 -0.5696
    5MOL   H423 3151   6.117   2.088   3.636  0.5933  0.6842 -0.0443
    5MOL   H424 3152   6.272   2.136   3.871 -0.3788  0.6278  1.4062
    5MOL   H425 3153   6.164   2.264   3.817 -1.9155 -0.2177 -0.5973
    5MOL   H426 3154   6.086   1.979   3.829  2.9656  0.3181  1.8092
    5MOL   H427 3155   5.978   2.113   3.800  1.6716  0.8393 -1.5645
    5MOL   H428 3156   6.127   2.048   4.051 -0.7298 -1.7539  0.4158
    5MOL   H429 3157   6.013   2.183   4.036 -0.5964  0.1321  3.3396
    5MOL   H430 3158   5.960   1.886   3.992  0.5980  1.8511 -1.0723
    5MOL   H431 3159   5.831   1.997   4.000 -1.9365 -0.0389  3.1186
    5MOL   H432 3160   5.922   2.037   4.251  1.5580 -1.2207  0.7244
    5MOL   H433 3161   6.005   1.880   4.227 -0.2898 -1.7377  0.1104
    5MOL   H434 3162   5.791   1.873   4.344 -2.4474 -1.1033  0.1348
    5MOL   H435 3163   5.713   1.914   4.187  0.7580  0.8393  0.3368
    5MOL   H436 3164   5.911   1.677   4.241  2.0359  1.9833 -3.8924
    5MOL   H437 3165   5.826   1.711   4.097 -0.5668  0.4295 -0.0569
    5MOL   H438 3166   5.729   1.524   4.232  1.4493  0.7970  0.7394
    5MOL   H439 3167   5.677   1.647   4.345  2.2256 -1.4382  1.4328
    5MOL   H440 3168   5.522   1.741   4.177 -1.9390 -0.2248 -2.2761
    5MOL   H441 3169   5.506   1.580   4.207 -0.7598  1.2468  0.2771
    5MOL   H442 3170   5.660   1.550   3.976 -0.8504 -1.2072  0.8826
    5MOL   H443 3171   5.643   1.715   3.960  0.5131 -0.8144 -0.9731
    5MOL   N444 3172   5.437   1.671   3.813  0.0689  0.5227  0.3765
    5MOL   C445 3173   5.313   1.672   3.735  0.3458  0.0525  0.0674
    5MOL   C446 3174   5.328   1.765   3.605  0.0937 -0.8146 -0.0971
    5MOL   C447 3175   5.221   1.731   3.498  0.0100  0.1495  0.0670
    5MOL   C448 3176   5.190   1.832   3.379 -0.3696 -0.0574 -0.9280
    5MOL   C449 3177   5.269   1.817   3.248 -0.1598  0.7431  0.2624
    5MOL   C450 3178   5.419   1.840   3.261  0.1389  0.0108 -0.5593
    5MOL   C451 3179   5.468   1.965   3.327  0.8007  0.0991 -0.0083
    5MOL   C452 3180   5.621   1.960   3.340  0.1669  0.3706  0.3970
    5MOL   C453 3181   5.676   2.078   3.401  0.4596 -0.5890  0.6239
    5MOL   C454 3182   5.828   2.110   3.368  0.0331  0.0182  0.1710
    5MOL   C455 3183   5.919   2.006   3.433 -0.0869  0.4052 -0.0940
    5MOL   O456 3184   5.933   1.994   3.555  0.1224  0.6521 -0.0490
    5MOL   H457 3185   5.514   1.725   3.777 -0.6289  0.6258 -0.9653
    5MOL   H458 3186   5.285   1.572   3.703 -1.9218  0.2373  1.3814
    5MOL   H459 3187   5.230   1.706   3.797 -2.1577 -1.6664 -2.2493
    5MOL   H460 3188   5.428   1.751   3.564  0.4832 -1.2175  0.9864
    5MOL   H461 3189   5.319   1.872   3.624 -2.3190 -0.9465 -0.3123
    5MOL   H462 3190   5.217   1.630   3.457 -0.5929 -0.1923  0.9335
    5MOL   H463 3191   5.136   1.722   3.567 -0.8485 -1.4935 -1.1857
    5MOL   H464 3192   5.186   1.932   3.421  2.5305 -1.2440  2.3951
    5MOL   H465 3193   5.086   1.813   3.353 -0.8582 -0.5642  1.2766
    5MOL   H466 3194   5.226   1.881   3.172 -0.4211 -0.6973 -0.8207
    5MOL   H467 3195   5.253   1.718   3.205 -1.9461  0.2108  2.0644
    5MOL   H468 3196   5.458   1.762   3.326  0.9142  1.1736  0.3871
    5MOL   H469 3197   5.467   1.829   3.164  0.9816 -0.7160 -0.0672
    5MOL   H470 3198   5.411   1.975   3.419 -1.7167  0.2663 -1.5210
    5MOL   H471 3199   5.437   2.048   3.263  1.7272  0.0736 -0.5105
    5MOL   H472 3200   5.643   1.876   3.406 -0.7626  0.6417  1.0655
    5MOL   H473 3201   5.668   1.957   3.242  0.0904  1.4815  0.3225
    5MOL   H474 3202   5.674   2.054   3.507  1.9129  0.0353  0.8147
    5MOL   H475 3203   5.616   2.166   3.378  0.0713 -1.4532 -1.8062
    5MOL   H476 3204   5.866   2.204   3.409  0.3183 -0.2907  0.6274
    5MOL   H477 3205   5.842   2.123   3.261 -1.5891 -2.3790 -0.3808
    5MOL   N478 3206   5.984   1.934   3.343  0.0535 -0.6628 -0.5910
    5MOL   C479 3207   6.070   1.820   3.370  0.1674  0.7202  0.3291
    5MOL   C480 3208   6.139   1.759   3.248 -0.4507 -0.7234  0.3897
    5MOL   C481 3209   6.191   1.618   3.283 -0.4653  0.2847 -0.2995
    5MOL   C482 3210   6.324   1.569   3.225 -0.0655 -0.4397  0.1169
    5MOL   C483 3211   6.387   1.452   3.307 -0.4641  0.6376 -0.7454
    5MOL   C484 3212   6.465   1.344   3.222 -0.3314 -0.2264  0.0989
    5MOL   C485 3213   6.532   1.246   3.317 -0.2735 -0.2405 -0.2557
    5MOL   C486 3214   6.558   1.116   3.246 -0.2414 -0.3262 -0.0635
    5MOL   C487 3215   6.658   1.022   3.316  0.1336  0.1931  0.2608
    5MOL   C488 3216   6.665   0.872   3.286  0.2448  0.1139 -0.5605
    5MOL   C489 3217   6.631   0.841   3.145 -0.0044 -0.3823  0.4708
    5MOL   O490 3218   6.661   0.920   3.050  0.4396 -0.7867  0.7126
    5MOL   H491 3219   5.963   1.950   3.246  0.0450  0.3504 -0.4243
    5MOL   H492 3220   6.151   1.847   3.438  1.5502  3.2070 -2.1948
    5MOL   H493 3221   6.010   1.739   3.411 -0.8467  0.8614 -0.8290
    5MOL   H494 3222   6.217   1.822   3.204 -0.6486  0.8083  2.1822
    5MOL   H495 3223   6.070   1.747   3.165 -0.6222  0.5793  0.3361
    5MOL   H496 3224   6.221   1.641   3.385 -2.6830  1.9980  0.0013
    5MOL   H497 3225   6.114   1.541   3.275 -0.2514  0.1760 -1.4269
    5MOL   H498 3226   6.392   1.654   3.213  0.4474 -0.3113  3.4078
    5MOL   H499 3227   6.296   1.531   3.127 -0.6092  0.4703 -0.0800
    5MOL   H500 3228   6.311   1.399   3.364 -0.3449 -0.3223 -1.4694
    5MOL   H501 3229   6.457   1.489   3.382 -0.7504  0.6386 -0.4753
    5MOL   H502 3230   6.389   1.301   3.157 -0.8147  0.2960  0.3106
    5MOL   H503 3231   6.544   1.384   3.159  1.1444 -3.0459  0.0539
    5MOL   H504 3232   6.472   1.224   3.406  0.0155 -1.6268 -0.3890
    5MOL   H505 3233   6.624   1.274   3.367 -2.2001  2.6560  1.8345
    5MOL   H506 3234   6.461   1.066   3.247  0.2048 -1.1851  0.8309
    5MOL   H507 3235   6.585   1.134   3.142 -1.8846 -3.1699 -1.0348
    5MOL   H508 3236   6.642   1.024   3.424  1.9473  2.2933  0.5354
    5MOL   H509 3237   6.756   1.064   3.294  1.9162 -2.5346  2.6410
    5MOL   H510 3238   6.583   0.833   3.346  1.5908 -0.8840  0.6818
    5MOL   H511 3239   6.755   0.819   3.318 -1.1592 -0.8421  1.9122
    5MOL   N512 3240   6.575   0.722   3.122  0.0187  0.7363  0.3187
    5MOL   C513 3241   6.514   0.668   3.003 -0.1341  1.0228  0.5474
    5MOL   C514 3242   6.404   0.561   3.034  0.1982  0.4971 -0.2088
    5MOL   C515 3243   6.355   0.490   2.911 -0.1198 -0.4876  0.3577
    5MOL   C516 3244   6.255   0.377   2.942  0.0564  0.5915 -0.1703
    5MOL   C517 3245   6.151   0.345   2.833 -0.3460 -0.2675 -1.0135
    5MOL   C518 3246   6.210   0.311   2.698  0.5440 -0.3716  0.5084
    5MOL   C519 3247   6.310   0.195   2.689 -0.4965  0.4340 -0.2827
    5MOL   C520 3248   6.357   0.160   2.546 -0.0862 -0.0842  0.5820
    5MOL   C521 3249   6.434   0.025   2.525 -0.1869  0.4708  0.2027
    5MOL   C522 3250   6.503   0.021   2.386  0.5679  0.4372  0.0443
    5MOL   C523 3251   6.394   0.007   2.279 -0.4082  0.6159 -0.0821
    5MOL   O524 3252   6.306   7.635   2.291  0.5955  0.0812  0.0067
    5MOL   H525 3253   6.585   0.668   3.207 -0.2884 -1.1640 -0.8151
    5MOL   H526 3254   6.471   0.751   2.947 -0.9409 -0.8540 -1.6821
    5MOL   H527 3255   6.588   0.622   2.937 -1.3189 -1.5375  0.9267
    5MOL   H528 3256   6.313   0.607   3.072  0.1558  0.4396 -0.2403
    5MOL   H529 3257   6.434   0.491   3.112 -0.9272 -2.2473 -2.1635
    5MOL   H530 3258   6.330   0.569   2.840 -2.0369 -1.0523  0.3943
    5MOL   H531 3259   6.443   0.454   2.857  1.3777 -0.9134  3.0327
    5MOL   H532 3260   6.199   0.409   3.030 -1.6867 -0.3203 -0.9049
    5MOL   H533 3261   6.319   0.294   2.970 -1.3174 -1.0361 -1.7004
    5MOL   H534 3262   6.077   0.423   2.816  0.2498 -0.2098 -3.5163
    5MOL   H535 3263   6.100   0.253   2.862 -2.1117  1.5618  2.0291
    5MOL   H536 3264   6.126   0.298   2.630 -0.1598  0.5023  1.1975
    5MOL   H537 3265   6.249   0.409   2.672 -0.7270  0.1155  0.4015
    5MOL   H538 3266   6.262   0.109   2.735 -1.2041  1.3737  0.7556
    5MOL   H539 3267   6.404   0.221   2.738 -0.3499 -2.4521  1.0589
    5MOL   H540 3268   6.265   0.165   2.487 -0.5499  0.6488  1.3601
    5MOL   H541 3269   6.409   0.245   2.501 -1.4846  0.2377 -0.4609
    5MOL   H542 3270   6.381   7.649   2.549 -0.4705  0.8841  1.1477
    5MOL   H543 3271   6.514   0.021   2.599  1.1337 -2.4844 -1.2913
    5MOL   H544 3272   6.571   7.651   2.386 -1.5958 -1.3392 -1.0183
    5MOL   H545 3273   6.563   0.110   2.367  0.1329  0.8403  0.5721
    5MOL   N546 3274   6.401   0.094   2.180 -0.4411 -0.2342  0.3242
    5MOL   C547 3275   6.301   0.106   2.078  0.1869  0.1750 -0.0587
    5MOL   C548 3276   6.204   0.228   2.099 -0.2272 -0.1549 -0.1392
    5MOL   C549 3277   6.120   0.253   1.974 -0.2539  0.0934 -0.4165
    5MOL   C550 3278   5.996   0.160   1.963  0.4814  0.3812  0.4691
    5MOL   C551 3279   5.925   0.175   1.828 -0.0675 -0.0053  0.9676
    5MOL   C552 3280   6.005   0.120   1.704  0.0449 -0.8416 -0.4512
    5MOL   C553 3281   6.069   7.698   1.730 -0.3128  0.0695 -0.0924
    5MOL   C554 3282   6.140   7.646   1.605  0.1191  0.4670  0.1216
    5MOL   C555 3283   6.161   7.494   1.606  0.4301 -0.9364  0.5148
    5MOL   C556 3284   6.258   7.449   1.490 -0.5422 -0.4334 -0.1944
    5MOL   C557 3285   6.403   7.479   1.522  0.4258  0.1875 -0.3772
    5MOL   O558 3286   6.436   7.553   1.618  0.3861 -0.0279  0.8017
    5MOL   H559 3287   6.483   0.152   2.169 -0.2069  0.0040  2.9676
    5MOL   H560 3288   6.346   0.127   1.981  1.3592  1.6274  0.7837
    5MOL   H561 3289   6.248   0.011   2.064 -0.8878  0.5673  1.2702
    5MOL   H562 3290   6.268   0.315   2.117 -0.6250  0.1500 -0.1981
    5MOL   H563 3291   6.139   0.222   2.186 -0.4277  0.0237 -0.2754
    5MOL   H564 3292   6.094   0.359   1.967 -0.4359 -0.0342 -1.6667
    5MOL   H565 3293   6.187   0.229   1.892 -0.6720 -1.8100 -0.2269
    5MOL   H566 3294   5.933   0.169   2.052 -1.7994 -2.5708 -0.7469
    5MOL   H567 3295   6.032   0.059   1.982  0.7977  0.5406  0.7241
    5MOL   H568 3296   5.894   0.278   1.806  1.3996  0.2163 -0.1401
    5MOL   H569 3297   5.829   0.124   1.829  0.3180 -0.8487 -1.7855
    5MOL   H570 3298   5.938   0.120   1.619  1.2516  3.4545 -1.5255
    5MOL   H571 3299   6.090   0.183   1.678 -1.8179  2.6185  1.5245
    5MOL   H572 3300   5.992   7.624   1.754  0.2247 -0.8364 -1.1250
    5MOL   H573 3301   6.138   7.702   1.814  0.4852  0.7405 -0.7845
    5MOL   H574 3302   6.075   7.665   1.520 -0.6074 -0.3835  0.4852
    5MOL   H575 3303   6.230   7.706   1.588  0.5846 -0.1926  0.2297
    5MOL   H576 3304   6.059   7.456   1.597  0.2237 -0.4351  0.7103
    5MOL   H577 3305   6.193   7.450   1.700  1.7112  0.3409  0.6798
    5MOL   H578 3306   6.228   7.500   1.399 -3.9924 -0.3703  0.8959
    5MOL   H579 3307   6.249   7.342   1.471  0.1458 -0.6984  0.8961
    5MOL   N580 3308   6.490   7.435   1.434 -0.1832 -0.0862  0.2256
    5MOL   C581 3309   6.621   7.489   1.409  0.1702  0.2344 -0.2311
    5MOL   C582 3310   6.727   7.450   1.515 -0.0988  0.3094 -0.6857
    5MOL   C583 3311   6.867   7.495   1.481  0.2211  0.0476 -0.5522
    5MOL   C584 3312   6.963   7.491   1.598 -0.1766 -0.2094  0.1746
    5MOL   C585 3313   7.025   7.350   1.621 -0.2391  0.4812  0.3117
    5MOL   C586 3314   7.122   7.361   1.742  0.1511 -0.4852  0.0554
    5MOL   C587 3315   7.205   7.245   1.777  0.8859  0.4281  0.3631
    5MOL   C588 3316   7.273   7.255   1.912 -0.2528 -0.5785  0.1594
    5MOL   C589 3317   7.426   7.311   1.899 -0.1789 -0.2959 -0.2176
    5MOL   C590 3318   7.493   7.330   2.033  0.0577 -0.7826  1.0835
    5MOL   C591 3319   7.639   7.373   2.023 -0.2858 -0.0661  0.1578
    5MOL   O592 3320   7.666   7.471   1.950  0.4079 -0.1731 -0.2658
    5MOL   H593 3321   6.444   7.391   1.355  0.4123  0.6802 -0.5513
    5MOL   H594 3322   6.646   7.470   1.305 -0.3756  1.6116 -0.6275
    5MOL   H595 3323   6.614   7.597   1.416  0.0365  0.2603 -0.7413
    5MOL   H596 3324   6.721   7.342   1.526  0.6603  0.1047 -2.1170
    5MOL   H597 3325   6.693   7.489   1.611  0.7417  0.8172 -0.5895
    5MOL   H598 3326   6.906   7.445   1.392 -0.4711 -0.9156 -0.3236
    5MOL   H599 3327   6.861   7.602   1.458  0.0004 -0.0846 -1.1179
    5MOL   H600 3328   6.913   7.535   1.684 -0.0093 -1.1598  0.7620
    5MOL   H601 3329   7.049   7.554   1.575 -0.6051  0.1986 -0.3165
    5MOL   H602 3330   7.059   7.299   1.531  1.4491 -0.1306  1.2713
    5MOL   H603 3331   6.944   7.286   1.658 -2.2228  1.8916 -1.4865
    5MOL   H604 3332   7.190   7.446   1.727 -0.8784  0.2939 -0.2453
    5MOL   H605 3333   7.060   7.397   1.824 -1.1030 -0.3300 -0.9526
    5MOL   H606 3334   7.281   7.229   1.701  2.1191  1.1338  1.4143
    5MOL   H607 3335   7.143   7.156   1.768  1.6446  0.0511 -1.1768
    5MOL   H608 3336   7.206   7.316   1.972  0.5442  0.8641 -0.3983
    5MOL   H609 3337   7.265   7.157   1.959 -0.8155 -0.8136 -0.4161
    5MOL   H610 3338   7.419   7.414   1.862 -0.4481  0.0553  0.7817
    5MOL   H611 3339   7.471   7.250   1.820 -1.3977  0.7876 -1.7917
    5MOL   H612 3340   7.482   7.236   2.087  1.5908 -1.2901  0.5572
    5MOL   H613 3341   7.435   7.396   2.097  0.6967  1.1453 -0.2710
    5MOL   N614 3342   0.016   7.297   2.085  0.5664 -0.4261  0.8666
    5MOL   C615 3343   0.161   7.317   2.077  0.0101  0.3004  0.3753
    5MOL   C616 3344   0.224   7.308   2.219  0.0958 -0.5875  0.6012
    5MOL   C617 3345   0.376   7.334   2.230  0.1553 -0.0295  0.0926
    5MOL   C618 3346   0.421   7.477   2.228  0.2814  0.4584 -0.5916
    5MOL   C619 3347   0.570   7.491   2.190 -0.1225 -0.2300  0.6377
    5MOL   C620 3348   0.629   7.629   2.214  0.3075 -0.1288  0.2249
    5MOL   C621 3349   0.755   7.665   2.127 -0.4509 -0.2629 -0.3464
    5MOL   C622 3350   0.728   0.010   1.987 -0.3773  0.5936  0.0598
    5MOL   C623 3351   0.705   0.161   1.993 -0.4562 -0.4414 -0.1058
    5MOL   C624 3352   0.594   0.217   1.907  0.2917  0.0956  0.6418
    5MOL   C625 3353   0.621   0.212   1.749  0.2196  0.5511  0.3988
    5MOL   O626 3354   0.719   0.262   1.695 -0.1792 -0.3189 -0.2624
    5MOL   H627 3355   7.692   7.219   2.135  0.6332 -0.8507  0.2636
    5MOL   H628 3356   0.201   7.413   2.044  0.3811  0.7545  2.1008
    5MOL   H629 3357   0.184   7.237   2.005  0.7258  1.9275 -1.2516
    5MOL   H630 3358   0.203   7.209   2.259 -0.0165 -0.0915  1.7915
    5MOL   H631 3359   0.169   7.369   2.291 -0.8089  0.0445 -0.6046
    5MOL   H632 3360   0.401   7.284   2.323 -2.4465  1.8087  1.8538
    5MOL   H633 3361   0.432   7.271   2.161  0.7951  0.5893  0.0444
    5MOL   H634 3362   0.406   7.519   2.328  0.4805 -4.3252  1.5440
    5MOL   H635 3363   0.358   7.538   2.163  4.6609  3.7140 -2.0195
    5MOL   H636 3364   0.574   7.478   2.082 -0.2848 -0.0506  0.6109
    5MOL   H637 3365   0.633   7.417   2.240  0.0187 -0.0338  0.7511
    5MOL   H638 3366   0.557   7.710   2.220 -0.1539 -0.4196 -1.2772
    5MOL   H639 3367   0.651   7.626   2.321 -1.3211  3.2252  0.7168
    5MOL   H640 3368   0.812   7.572   2.121  1.8288  1.1825 -1.5842
    5MOL   H641 3369   0.819   0.018   2.182  0.4118 -0.1174 -1.5085
    5MOL   H642 3370   0.817   7.708   1.926 -1.4142 -2.1931 -0.7121
    5MOL   H643 3371   0.644   7.677   1.938 -0.6857  0.4743  0.7046
    5MOL   H644 3372   0.802   0.209   1.979 -1.9306  2.2425 -1.4058
    5MOL   H645 3373   0.699   0.200   2.095  0.2845 -0.1082 -0.1886
    5MOL   H646 3374   0.580   0.322   1.932 -1.4127 -0.1862  0.9234
    5MOL   H647 3375   0.506   0.155   1.920 -0.0129  0.6140  1.0710
    5MOL   N648 3376   0.525   0.150   1.675  0.4128 -0.2371 -0.6260
    5MOL   C649 3377   0.533   0.084   1.546 -0.7850 -0.2392 -0.3303
    5MOL   C650 3378   0.521   0.182   1.432 -0.3467  0.3951  0.2451
    5MOL   C651 3379   0.534   0.112   1.295  0.0316  0.2728 -0.2385
    5MOL   C652 3380   0.492   0.196   1.175 -0.4162  0.1115 -0.0483
    5MOL   C653 3381   0.568   0.328   1.153  0.0425 -0.0502  0.0475
    5MOL   C654 3382   0.570   0.388   1.013 -0.0447  0.7586 -0.5327
    5MOL   C655 3383   0.672   0.322   0.918 -0.2688  0.0325  0.4109
    5MOL   C656 3384   0.810   0.402   0.910  0.1256  0.1447 -0.2275
    5MOL   C657 3385   0.812   0.548   0.859  0.7437  0.2484  1.0347
    5MOL   C658 3386   0.953   0.604   0.848  0.4204 -0.4520 -0.1464
    5MOL   C659 3387   1.014   0.648   0.983 -0.6707  0.5969 -0.3323
    5MOL   O660 3388   0.979   0.745   1.042  0.7099 -0.3260  0.1709
    5MOL   H661 3389   0.438   0.128   1.722 -0.5735  0.0265 -2.2968
    5MOL   H662 3390   0.464   0.000   1.536 -0.7222 -0.1593 -1.4758
    5MOL   H663 3391   0.627   0.030   1.542 -0.8411 -0.3400 -0.2816
    5MOL   H664 3392   0.578   0.275   1.429 -2.4847  1.8163  1.3310
    5MOL   H665 3393   0.425   0.232   1.447 -2.0864 -3.1524  1.4542
    5MOL   H666 3394   0.637   0.074   1.291  0.8222  2.2483  0.6939
    5MOL   H667 3395   0.474   0.021   1.286 -0.9023  0.9583 -0.9985
    5MOL   H668 3396   0.391   0.226   1.203 -0.3984 -0.6756  0.8681
    5MOL   H669 3397   0.493   0.134   1.085 -0.8597 -1.1033  0.7707
    5MOL   H670 3398   0.665   0.314   1.200 -0.2394  1.5427  1.1163
    5MOL   H671 3399   0.521   0.405   1.214  0.1974  0.1517 -0.0884
    5MOL   H672 3400   0.476   0.349   0.972  0.0032  1.7475 -1.6279
    5MOL   H673 3401   0.580   0.496   1.023 -1.0528  0.8501 -0.3973
    5MOL   H674 3402   0.630   0.327   0.818 -0.6821  0.3409  0.6002
    5MOL   H675 3403   0.691   0.220   0.950 -1.5925 -0.0793  0.8798
    5MOL   H676 3404   0.854   0.409   1.009  0.9158  0.0579 -0.5725
    5MOL   H677 3405   0.883   0.347   0.851  0.0885 -0.2402  0.0883
    5MOL   H678 3406   0.754   0.620   0.916  1.5692  2.1242 -0.4238
    5MOL   H679 3407   0.779   0.551   0.756  0.6989 -1.1564  0.9997
    5MOL   H680 3408   0.948   0.698   0.792  2.0035 -0.3379 -0.1253
    5MOL   H681 3409   1.014   0.540   0.785 -1.1200 -2.3785  0.2790
    5MOL   H682 3410   1.100   0.592   1.019 -0.3607  2.2486  1.6159
    6MOL     N1 3411   4.027   0.243   1.223  0.1036  0.2923 -0.2078
    6MOL     C2 3412   3.950   0.158   1.315  0.2372  0.1179 -0.9361
    6MOL     C3 3413   3.802   0.209   1.336  0.6731 -0.2823  0.5520
    6MOL     C4 3414   3.687   0.157   1.246 -0.0332 -0.3769 -0.7749
    6MOL     C5 3415   3.554   0.229   1.265 -0.2526 -0.1950 -0.2999
    6MOL     C6 3416   3.443   0.159   1.178  0.5477  0.1415  0.0658
    6MOL     C7 3417   3.420   0.207   1.035  0.2676  0.2758 -1.2444
    6MOL     C8 3418   3.304   0.135   0.972  0.4120 -0.8632  0.5729
    6MOL     C9 3419   3.282   0.175   0.818  0.0713 -0.3520 -0.3719
    6MOL    C10 3420   3.157   0.115   0.747  0.0922  0.2605 -0.2493
    6MOL    C11 3421   3.148   0.150   0.604 -0.0671  0.2116 -0.4956
    6MOL    C12 3422   3.263   0.092   0.520 -0.4509  0.0646 -0.8111
    6MOL    O13 3423   3.262   7.685   0.516 -0.1303  0.2719  0.6296
    6MOL    H14 3424   3.966   0.257   1.143  0.6779  0.7499 -0.5762
    6MOL    H15 3425   3.997   0.156   1.413  0.7495 -1.7054 -1.1989
    6MOL    H16 3426   3.947   0.056   1.277  0.0590  0.2939 -1.3970
    6MOL    H17 3427   3.800   0.318   1.325  0.1661 -0.3610 -0.1178
    6MOL    H18 3428   3.762   0.202   1.438  0.9707  1.7227  0.8312
    6MOL    H19 3429   3.720   0.172   1.143  1.1121  0.3818 -0.3124
    6MOL    H20 3430   3.681   0.048   1.249  1.4702 -0.4542  0.1360
    6MOL    H21 3431   3.561   0.337   1.253  1.7421 -0.1872  0.6469
    6MOL    H22 3432   3.534   0.228   1.372  0.9018  0.8785 -0.0578
    6MOL    H23 3433   3.346   0.172   1.226  0.9953 -1.4075  1.4178
    6MOL    H24 3434   3.448   0.050   1.177 -0.3622  0.0961 -0.0798
    6MOL    H25 3435   3.387   0.310   1.045 -0.8371 -0.1921 -0.0568
    6MOL    H26 3436   3.511   0.192   0.975 -0.7913 -0.5383 -2.6750
    6MOL    H27 3437   3.212   0.175   1.013 -0.3542  0.0491 -1.9231
    6MOL    H28 3438   3.308   0.029   0.997  0.1555 -0.9988  0.0417
    6MOL    H29 3439   3.269   0.283   0.812  0.4263 -0.3121 -0.4105
    6MOL    H30 3440   3.371   0.143   0.764 -0.1252  2.1566 -2.2781
    6MOL    H31 3441   3.066   0.146   0.798  0.1211  0.5884 -0.4003
    6MOL    H32 3442   3.157   0.008   0.766 -2.2956  0.4974  1.2449
    6MOL    H33 3443   3.143   0.258   0.590  3.4872  0.8149  2.0063
    6MOL    H34 3444   3.059   0.104   0.562 -0.4432  1.2208 -0.7999
    6MOL    H35 3445   4.095   0.183   1.178  0.5355 -0.0024  0.8328
    6MOL    N36 3446   3.347   0.167   0.452  0.1582  0.3810 -0.4995
    6MOL    C37 3447   3.432   0.111   0.349 -0.1029 -0.0206 -0.4537
    6MOL    C38 3448   3.512   0.227   0.299 -0.1580 -0.2746 -0.2934
    6MOL    C39 3449   3.609   0.179   0.184 -1.0935 -0.2052 -0.4214
    6MOL    C40 3450   3.725   0.100   0.250 -0.1288 -1.4858 -0.4204
    6MOL    C41 3451   3.857   0.102   0.153 -0.0012 -0.5934 -0.3023
    6MOL    C42 3452   3.985   0.053   0.215  0.2816 -0.0444  0.0878
    6MOL    C43 3453   4.110   0.049   0.127  0.2257  0.8742  0.6297
    6MOL    C44 3454   4.122   7.636   0.036 -0.0301  0.0268 -0.0751
    6MOL    C45 3455   4.269   7.625   7.682 -0.0369  0.3774 -0.6988
    6MOL    C46 3456   4.377   7.583   0.067 -0.6458  0.3493 -0.1948
    6MOL    C47 3457   4.370   7.448   0.135  1.1758 -0.4481  0.6796
    6MOL    O48 3458   4.337   7.351   0.075  0.4084 -0.4303 -0.6881
    6MOL    H49 3459   3.344   0.267   0.465 -1.3765  0.0122  2.5796
    6MOL    H50 3460   3.485   0.023   0.386  1.4090  1.9393  2.2184
    6MOL    H51 3461   3.375   0.071   0.265  0.6967 -0.0872 -0.9766
    6MOL    H52 3462   3.562   0.279   0.380  0.3657 -1.6411  0.2883
    6MOL    H53 3463   3.443   0.296   0.250 -0.9836 -1.6662 -1.1368
    6MOL    H54 3464   3.565   0.114   0.109 -2.0398 -1.5886  1.2990
    6MOL    H55 3465   3.645   0.263   0.125  0.6962  0.0356  0.9682
    6MOL    H56 3466   3.687   7.714   0.263 -0.4903 -1.0918  1.6849
    6MOL    H57 3467   3.755   0.142   0.346 -1.5336 -0.6799 -0.3221
    6MOL    H58 3468   3.863   0.203   0.112 -3.6543  0.2051  0.9190
    6MOL    H59 3469   3.832   0.039   0.067  2.7667 -0.0444 -1.5618
    6MOL    H60 3470   3.995   0.114   0.305 -0.2249 -1.1890  0.9216
    6MOL    H61 3471   3.972   7.666   0.248  1.4868  0.3317  1.7781
    6MOL    H62 3472   4.187   0.045   0.204  2.3125 -1.5212 -1.5193
    6MOL    H63 3473   4.136   0.143   0.078 -0.6309 -0.9847 -3.6245
    6MOL    H64 3474   4.113   7.538   0.084  0.0267  0.1245  0.1326
    6MOL    H65 3475   4.049   7.638   7.671 -0.7725 -0.3643  0.5751
    6MOL    H66 3476   4.292   0.009   7.646 -0.5125 -0.4613 -3.4187
    6MOL    H67 3477   4.272   7.560   7.594 -0.3758 -1.0163  0.2923
    6MOL    H68 3478   4.365   7.653   0.150 -0.6462 -0.4166  0.4631
    6MOL    H69 3479   4.474   7.594   0.017 -0.8591  1.2078 -0.4316
    6MOL    N70 3480   4.388   7.443   0.264  0.2242 -0.0367 -0.2337
    6MOL    C71 3481   4.354   7.327   0.347 -0.4819  0.4590 -0.2301
    6MOL    C72 3482   4.216   7.351   0.408  0.1269 -0.4336  0.8218
    6MOL    C73 3483   4.084   7.327   0.329  0.5885 -0.1102  0.0402
    6MOL    C74 3484   3.954   7.347   0.414  0.0549 -0.1349 -0.8065
    6MOL    C75 3485   3.825   7.298   0.351  0.2988  0.1011 -0.3059
    6MOL    C76 3486   3.694   7.326   0.429 -0.4643 -0.6448 -0.1830
    6MOL    C77 3487   3.570   7.263   0.367  0.2960  0.1555  0.6695
    6MOL    C78 3488   3.439   7.309   0.416  0.0107 -0.5276  0.6731
    6MOL    C79 3489   3.316   7.225   0.353  0.3132 -0.1656 -0.1932
    6MOL    C80 3490   3.183   7.289   0.390  0.3575 -0.4038  0.1516
    6MOL    C81 3491   3.166   7.271   0.540 -0.6181 -0.0458 -0.1583
    6MOL    O82 3492   3.141   7.160   0.591 -0.0099  0.0014 -0.5623
    6MOL    H83 3493   4.409   7.527   0.316 -1.1117 -0.3355  0.8041
    6MOL    H84 3494   4.353   7.237   0.286 -1.8268  0.4225 -0.1599
    6MOL    H85 3495   4.436   7.308   0.416  0.5814 -2.8862 -2.3153
    6MOL    H86 3496   4.214   7.450   0.454 -1.0223  0.0483 -0.2269
    6MOL    H87 3497   4.201   7.289   0.496 -0.3182 -0.0461  1.0261
    6MOL    H88 3498   4.080   7.408   0.256  1.8021  0.9767  1.1647
    6MOL    H89 3499   4.077   7.234   0.273 -0.8010  0.9325 -1.5673
    6MOL    H90 3500   3.952   7.453   0.440  1.4677 -0.5223  1.0290
    6MOL    H91 3501   3.964   7.294   0.509 -0.8381 -1.6271 -1.5324
    6MOL    H92 3502   3.841   7.191   0.342  2.2353  0.3932 -0.7544
    6MOL    H93 3503   3.837   7.337   0.250  2.3468 -0.4549 -0.3052
    6MOL    H94 3504   3.708   7.293   0.533  0.8106 -0.4557 -0.2872
    6MOL    H95 3505   3.685   7.432   0.449 -1.6732 -0.5844 -1.0675
    6MOL    H96 3506   3.566   7.156   0.388  0.4273 -0.0290 -0.2447
    6MOL    H97 3507   3.574   7.276   0.259 -3.8417  1.8104  0.6284
    6MOL    H98 3508   3.435   7.305   0.525 -1.8546 -1.2797  0.5873
    6MOL    H99 3509   3.423   7.412   0.385  2.8394 -0.4792 -0.8454
    6MOL   H100 3510   3.323   7.121   0.385 -0.1879 -0.2603 -0.3903
    6MOL   H101 3511   3.307   7.226   0.244  1.2703 -2.8081 -0.3375
    6MOL   H102 3512   3.091   7.243   0.354 -0.8631  2.6200 -0.7669
    6MOL   H103 3513   3.176   7.396   0.370 -0.7513  0.0358  2.7333
    6MOL   N104 3514   3.181   7.385   0.616  0.3952  0.1897  0.6789
    6MOL   C105 3515   3.135   7.385   0.754 -1.0085  0.2010  0.6042
    6MOL   C106 3516   3.254   7.352   0.847 -0.0747 -0.7367 -0.5562
    6MOL   C107 3517   3.370   7.457   0.832  0.2684 -0.3068  0.5680
    6MOL   C108 3518   3.492   7.440   0.928  0.1877 -0.0394  0.2879
    6MOL   C109 3519   3.605   7.546   0.904 -0.4404  0.1581  0.2026
    6MOL   C110 3520   3.720   7.516   1.008 -0.1715 -0.7526  0.4713
    6MOL   C111 3521   3.861   7.578   0.987 -0.3404 -0.0017  0.3461
    6MOL   C112 3522   3.943   7.516   0.871 -0.3810 -0.1643  0.9281
    6MOL   C113 3523   4.095   7.552   0.864  0.1981  0.1502 -0.1817
    6MOL   C114 3524   4.170   7.480   0.743  0.1974  0.1377  0.2036
    6MOL   C115 3525   4.215   7.340   0.768  0.0931 -0.3367  0.0751
    6MOL   O116 3526   4.130   7.260   0.796 -0.6020 -0.1198 -0.2265
    6MOL   H117 3527   3.215   7.467   0.569  2.3358 -0.6350  0.5807
    6MOL   H118 3528   3.097   7.483   0.785 -1.1153  0.7365 -1.1560
    6MOL   H119 3529   3.052   7.316   0.770 -0.0520 -0.4566  2.9024
    6MOL   H120 3530   3.296   7.252   0.841  1.6770 -0.1836  1.5611
    6MOL   H121 3531   3.219   7.350   0.950 -0.9585 -0.9964 -0.8574
    6MOL   H122 3532   3.407   7.451   0.729 -0.2800  0.3915  0.3285
    6MOL   H123 3533   3.325   7.554   0.851  0.8658  0.1220 -0.1921
    6MOL   H124 3534   3.510   7.332   0.919  0.2106  0.0569 -0.9129
    6MOL   H125 3535   3.464   7.462   1.031  0.5213  2.2782 -0.1071
    6MOL   H126 3536   3.569   7.648   0.912  0.4325  0.5853 -1.2433
    6MOL   H127 3537   3.636   7.523   0.802 -1.2272 -0.2011  0.0383
    6MOL   H128 3538   3.688   7.557   1.104  1.1061  2.7423 -0.5149
    6MOL   H129 3539   3.733   7.408   1.004 -0.1709 -0.7045 -1.7827
    6MOL   H130 3540   3.919   7.565   1.079 -1.7885 -1.8313  1.0347
    6MOL   H131 3541   3.851   7.686   0.971 -0.9649  0.3389  2.7953
    6MOL   H132 3542   3.936   7.408   0.884 -1.3907 -0.1173  0.7983
    6MOL   H133 3543   3.887   7.528   0.778 -1.3314 -0.5554  1.4457
    6MOL   H134 3544   4.151   7.526   0.954 -0.7336 -1.1268  0.0373
    6MOL   H135 3545   4.093   7.660   0.850  1.7670  0.0820 -1.0518
    6MOL   H136 3546   4.258   7.535   0.709 -2.3066  2.7362 -2.2616
    6MOL   H137 3547   4.102   7.471   0.659  0.9549 -1.1742 -0.2891
    6MOL   N138 3548   4.352   7.312   0.776  0.0436 -0.0487  0.4481
    6MOL   C139 3549   4.395   7.173   0.808 -0.9891  0.5042 -0.1089
    6MOL   C140 3550   4.386   7.146   0.952  0.2422  0.2695 -0.1120
    6MOL   C141 3551   4.378   6.995   0.993  0.7341  0.6949  0.4375
    6MOL   C142 3552   4.351   6.959   1.139  0.4815 -0.4889 -0.1591
    6MOL   C143 3553   4.449   7.016   1.244  0.0796 -0.4571  0.1155
    6MOL   C144 3554   4.432   6.979   1.389 -0.1459  0.8007 -0.7056
    6MOL   C145 3555   4.296   6.992   1.449 -0.2999  0.1863 -0.6272
    6MOL   C146 3556   4.316   6.940   1.594  0.4073 -0.0316  0.0353
    6MOL   C147 3557   4.179   6.923   1.663 -0.0564  0.0805  1.0496
    6MOL   C148 3558   4.194   6.870   1.808 -1.2306  0.1924 -0.7228
    6MOL   C149 3559   4.223   6.986   1.906 -0.1172  0.2998  0.3438
    6MOL   O150 3560   4.311   7.067   1.887  0.3720  0.8162 -0.0375
    6MOL   H151 3561   4.410   7.377   0.724 -2.2933  1.6567 -0.1301
    6MOL   H152 3562   4.341   7.096   0.754 -0.0538 -1.0157  1.0803
    6MOL   H153 3563   4.503   7.171   0.789 -1.1226  1.4544 -1.0231
    6MOL   H154 3564   4.293   7.189   0.991  0.9057  0.2322  1.5264
    6MOL   H155 3565   4.463   7.201   1.005 -1.0418  0.5824  1.5047
    6MOL   H156 3566   4.305   6.944   0.930  3.2819 -3.9712  1.0425
    6MOL   H157 3567   4.472   6.946   0.968  0.0786  0.0337 -0.7484
    6MOL   H158 3568   4.365   6.851   1.138 -0.4730 -0.6329  0.6940
    6MOL   H159 3569   4.249   6.976   1.173  0.1001 -2.3709 -0.2984
    6MOL   H160 3570   4.449   7.125   1.237  2.6572 -0.4087  0.4007
    6MOL   H161 3571   4.554   7.002   1.218 -0.0885 -0.3007 -0.6621
    6MOL   H162 3572   4.466   6.875   1.394 -1.6844  0.3313  0.2732
    6MOL   H163 3573   4.507   7.030   1.449 -0.5073 -1.4944  1.7698
    6MOL   H164 3574   4.232   6.923   1.396 -0.1233  0.0940 -0.7210
    6MOL   H165 3575   4.252   7.088   1.422  0.4277  0.1869 -1.8468
    6MOL   H166 3576   4.354   6.838   1.589  1.6300  0.4442 -0.4565
    6MOL   H167 3577   4.381   7.008   1.649  0.0467  1.9927 -1.9479
    6MOL   H168 3578   4.121   6.851   1.606  2.0131 -1.1828  0.4567
    6MOL   H169 3579   4.129   7.019   1.663  0.0245  0.1692 -1.7102
    6MOL   H170 3580   4.263   6.786   1.819 -0.9349  0.5690  0.4144
    6MOL   H171 3581   4.098   6.835   1.846 -1.6270  3.3742  1.4249
    6MOL   N172 3582   4.137   6.995   2.008 -0.2940 -0.1451 -0.8789
    6MOL   C173 3583   4.131   7.106   2.100 -0.7621  0.3562 -0.3779
    6MOL   C174 3584   4.056   7.082   2.233 -0.4163 -0.1502  0.4394
    6MOL   C175 3585   4.028   7.211   2.310 -0.5055  0.0265 -0.0185
    6MOL   C176 3586   3.948   7.183   2.435 -0.0578 -0.0413 -0.0262
    6MOL   C177 3587   4.009   7.095   2.546 -0.6841  0.0829  0.0328
    6MOL   C178 3588   4.155   7.123   2.604  0.1084 -0.6098  0.6440
    6MOL   C179 3589   4.149   7.196   2.742 -0.0900 -0.0390 -0.3090
    6MOL   C180 3590   4.093   7.344   2.734 -0.3703 -0.6763 -0.3022
    6MOL   C181 3591   4.180   7.451   2.657 -0.0862 -0.6294 -0.1449
    6MOL   C182 3592   4.316   7.480   2.728 -0.2715 -0.6051  0.8263
    6MOL   C183 3593   4.289   7.554   2.858 -0.1565 -0.1441 -0.1751
    6MOL   O184 3594   4.224   7.656   2.862 -0.4318  0.3748  0.9010
    6MOL   H185 3595   4.059   6.931   2.017 -0.4607 -0.1830 -2.6052
    6MOL   H186 3596   4.232   7.135   2.130  0.2998 -2.2937 -1.2968
    6MOL   H187 3597   4.104   7.187   2.032 -1.1822 -0.7405 -1.5242
    6MOL   H188 3598   4.112   7.010   2.292  1.2672  0.8399  0.0976
    6MOL   H189 3599   3.962   7.042   2.196 -1.2789  0.4717  1.9189
    6MOL   H190 3600   4.114   7.277   2.310 -2.9241  3.3169  0.3568
    6MOL   H191 3601   3.956   7.263   2.246 -1.5157 -0.2603  0.8604
    6MOL   H192 3602   3.848   7.150   2.404 -0.5121  0.7845  0.5667
    6MOL   H193 3603   3.925   7.284   2.470  0.7644  0.4723 -0.9549
    6MOL   H194 3604   4.005   6.995   2.502  3.6412 -1.4221  2.7464
    6MOL   H195 3605   3.934   7.079   2.624 -2.7755 -0.4652 -2.0241
    6MOL   H196 3606   4.193   7.021   2.605  0.7912 -0.3962 -1.4349
    6MOL   H197 3607   4.216   7.167   2.525  0.1375 -0.8021  0.5582
    6MOL   H198 3608   4.250   7.203   2.782 -0.1091 -0.9973 -0.0676
    6MOL   H199 3609   4.091   7.142   2.817  0.7742 -2.1593 -1.1100
    6MOL   H200 3610   3.996   7.352   2.685 -1.2090  1.1148  1.5905
    6MOL   H201 3611   4.057   7.376   2.832  0.9895  0.8711 -0.2994
    6MOL   H202 3612   4.120   7.542   2.658  0.0990 -0.4700 -1.7724
    6MOL   H203 3613   4.190   7.429   2.551 -1.9673  0.4993 -0.5796
    6MOL   H204 3614   4.381   7.550   2.675 -0.6342 -0.6723  0.2881
    6MOL   H205 3615   4.365   7.383   2.739  0.7571  0.0268  1.9082
    6MOL   N206 3616   4.334   7.492   2.973  0.1495 -0.1972  0.2657
    6MOL   C207 3617   4.306   7.535   3.108  0.7246  0.6334  0.0158
    6MOL   C208 3618   4.429   7.564   3.193 -0.0618  0.1360 -0.3831
    6MOL   C209 3619   4.385   7.589   3.343  0.7656  0.8079 -0.5849
    6MOL   C210 3620   4.501   7.586   3.435 -0.4353 -0.5123 -0.5934
    6MOL   C211 3621   4.557   7.450   3.454 -0.0606  0.1902  0.1347
    6MOL   C212 3622   4.631   7.430   3.581  0.1346 -0.7232  0.7159
    6MOL   C213 3623   4.757   7.504   3.600 -0.3928  0.1363 -0.0068
    6MOL   C214 3624   4.840   7.457   3.719 -0.3616  0.3702  0.8217
    6MOL   C215 3625   4.944   7.563   3.772 -0.7884 -0.5463 -0.8350
    6MOL   C216 3626   4.894   7.619   3.903  0.2195  0.3403 -0.6558
    6MOL   C217 3627   4.852   0.048   3.895  0.5511 -0.1119  0.2004
    6MOL   O218 3628   4.771   0.085   3.811  0.1163 -0.0307  0.6816
    6MOL   H219 3629   4.367   7.399   2.951 -0.9182 -0.4304 -0.4374
    6MOL   H220 3630   4.247   7.454   3.152  3.1801  0.0402  2.3593
    6MOL   H221 3631   4.245   7.625   3.110 -3.3779 -2.0278  1.6202
    6MOL   H222 3632   4.467   7.663   3.165 -0.8581  0.6638  0.3851
    6MOL   H223 3633   4.514   7.497   3.183  0.3950  0.5236  0.8093
    6MOL   H224 3634   4.318   7.675   3.350 -0.0068  0.5447 -3.8698
    6MOL   H225 3635   4.319   7.505   3.365  1.4909 -0.3095 -2.5327
    6MOL   H226 3636   4.474   7.629   3.531 -1.7054  1.2793 -1.7040
    6MOL   H227 3637   4.572   7.663   3.405 -1.6925  0.6657 -0.6160
    6MOL   H228 3638   4.608   7.413   3.365  0.4568  1.0703  0.0669
    6MOL   H229 3639   4.473   7.380   3.451  0.2615 -0.1528 -2.5743
    6MOL   H230 3640   4.565   7.445   3.667 -0.0586  2.3470  0.0880
    6MOL   H231 3641   4.655   7.323   3.582 -2.4425 -1.3516  0.3551
    6MOL   H232 3642   4.740   7.611   3.608 -2.2131 -0.1681  0.3718
    6MOL   H233 3643   4.824   7.487   3.515 -1.0455 -1.7622 -0.1664
    6MOL   H234 3644   4.774   7.418   3.796  2.1699 -1.0042  2.3957
    6MOL   H235 3645   4.896   7.372   3.679  0.0578  1.5480 -1.1787
    6MOL   H236 3646   4.977   7.635   3.697 -0.7003 -2.4531 -2.6673
    6MOL   H237 3647   5.036   7.510   3.797 -0.5153  0.2734 -0.0775
    6MOL   H238 3648   4.961   7.613   3.989 -2.8342  0.0370  1.8027
    6MOL   H239 3649   4.809   7.562   3.942  0.3066  0.0420 -0.9102
    6MOL   N240 3650   4.916   0.139   3.966  0.0333  0.1304  0.3700
    6MOL   C241 3651   4.893   0.283   3.974  0.6929  0.4644 -0.0417
    6MOL   C242 3652   4.747   0.316   4.027  0.3750  0.1996  0.2022
    6MOL   C243 3653   4.737   0.463   4.062 -0.0847 -0.1106 -0.3644
    6MOL   C244 3654   4.604   0.509   4.113  0.1350 -0.0200  0.2350
    6MOL   C245 3655   4.589   0.657   4.155  0.2164 -0.5574 -0.1551
    6MOL   C246 3656   4.686   0.700   4.272  0.1753  0.1082  0.1639
    6MOL   C247 3657   4.654   0.844   4.306 -0.2377 -0.1411  0.1892
    6MOL   C248 3658   4.698   0.881   4.448  0.1828 -0.8504 -0.3167
    6MOL   C249 3659   4.633   1.016   4.490 -0.3039 -0.3537 -0.5842
    6MOL   C250 3660   4.670   1.072   4.625 -0.1667  0.3393 -0.2596
    6MOL   C251 3661   4.562   1.060   4.729 -0.0803 -0.5623  0.2540
    6MOL   O252 3662   4.453   1.114   4.711 -0.0553 -0.1386 -0.4071
    6MOL   H253 3663   4.986   0.103   4.030  0.8524  0.5748 -0.2606
    6MOL   H254 3664   4.907   0.317   3.872 -2.1950  0.2763 -0.5500
    6MOL   H255 3665   4.972   0.326   4.035  0.8778  0.0836 -0.0100
    6MOL   H256 3666   4.733   0.252   4.114 -0.4156 -1.3441 -1.0410
    6MOL   H257 3667   4.663   0.293   3.962 -2.0895 -2.0301  3.9859
    6MOL   H258 3668   4.811   0.494   4.136  0.6373 -2.2847 -0.1383
    6MOL   H259 3669   4.762   0.524   3.975 -1.9900 -1.0660 -1.6018
    6MOL   H260 3670   4.587   0.454   4.206  1.6371  2.2294  1.9253
    6MOL   H261 3671   4.520   0.487   4.047  0.9089 -1.3136 -0.3383
    6MOL   H262 3672   4.484   0.670   4.182  0.7089 -0.3413  1.7190
    6MOL   H263 3673   4.592   0.718   4.065 -0.0193 -2.1244 -1.2540
    6MOL   H264 3674   4.667   0.639   4.361 -0.1172 -0.2734 -0.1586
    6MOL   H265 3675   4.792   0.696   4.250  0.1387  0.3467 -0.0529
    6MOL   H266 3676   4.547   0.866   4.302 -0.4426 -0.8983  1.3086
    6MOL   H267 3677   4.697   0.918   4.238  0.7978 -0.8037  0.1142
    6MOL   H268 3678   4.654   0.810   4.518 -1.4583  0.6969  0.2733
    6MOL   H269 3679   4.807   0.875   4.454  0.2397 -0.6127 -1.0311
    6MOL   H270 3680   4.524   1.024   4.489 -0.2421  0.7917  0.0786
    6MOL   H271 3681   4.662   1.079   4.406 -1.4150 -0.1823 -0.8500
    6MOL   H272 3682   4.693   1.177   4.606 -2.2999  0.5822 -1.6543
    6MOL   H273 3683   4.762   1.027   4.663  0.2914  0.6726 -0.9478
    6MOL   N274 3684   4.588   0.979   4.832  0.5839 -0.1617 -0.3765
    6MOL   C275 3685   4.494   0.940   4.934 -0.5716 -0.8946 -0.3852
    6MOL   C276 3686   4.369   0.865   4.893  0.5455  0.0883  0.5862
    6MOL   C277 3687   4.288   0.801   5.011  0.5977  0.3899 -0.0366
    6MOL   C278 3688   4.160   0.738   4.963  0.2795 -0.2936  0.3454
    6MOL   C279 3689   4.083   0.657   5.060  0.4168 -0.9089  0.6485
    6MOL   C280 3690   3.963   0.584   4.983  0.0220 -0.1966  0.0651
    6MOL   C281 3691   3.884   0.490   5.075 -0.7100  0.8767  0.1201
    6MOL   C282 3692   3.760   0.432   5.005  0.2884 -0.3933  0.3395
    6MOL   C283 3693   3.808   0.325   4.904  0.7670  0.4667  0.0393
    6MOL   C284 3694   3.684   0.261   4.832 -0.1327 -0.2616 -0.0867
    6MOL   C285 3695   3.637   0.322   4.704 -0.8714 -0.4406 -0.4111
    6MOL   O286 3696   3.541   0.389   4.702  0.1782 -0.3281  0.5350
    6MOL   H287 3697   4.680   0.941   4.850 -0.0984 -0.9067  1.7411
    6MOL   H288 3698   4.460   1.018   5.002  1.4625 -2.4382  2.5322
    6MOL   H289 3699   4.550   0.876   5.003  2.2127  1.3603 -0.4665
    6MOL   H290 3700   4.400   0.784   4.827  0.5933  0.2897  0.3634
    6MOL   H291 3701   4.307   0.924   4.825  0.2243 -0.2486  0.5849
    6MOL   H292 3702   4.341   0.723   5.066  0.3696 -0.0322 -0.4088
    6MOL   H293 3703   4.254   0.883   5.073  1.5102  0.1678  0.7814
    6MOL   H294 3704   4.176   0.667   4.881  2.3720  0.2299  0.2612
    6MOL   H295 3705   4.100   0.815   4.914  1.9471 -0.3175 -1.8333
    6MOL   H296 3706   4.037   0.716   5.139  1.0178 -0.5359  0.7198
    6MOL   H297 3707   4.141   0.581   5.111  0.0134 -1.0145  0.9594
    6MOL   H298 3708   3.888   0.657   4.956  0.0826  0.1941  0.9149
    6MOL   H299 3709   3.987   0.534   4.890  6.3689  1.5488  0.4796
    6MOL   H300 3710   3.852   0.537   5.168  0.3891 -0.1927  1.0554
    6MOL   H301 3711   3.952   0.411   5.106  1.5472  2.7256  0.0020
    6MOL   H302 3712   3.699   0.389   5.085  0.0517 -0.3539  0.1814
    6MOL   H303 3713   3.707   0.516   4.961 -0.6285  0.1586  2.4171
    6MOL   H304 3714   3.847   0.246   4.969  1.4658  0.2517 -0.6322
    6MOL   H305 3715   3.892   0.346   4.837  0.2291  0.8947 -0.5009
    6MOL   H306 3716   3.593   0.243   4.891 -1.7948  0.8069 -2.2482
    6MOL   H307 3717   3.709   0.157   4.813  0.7376  0.2166 -1.6233
    6MOL   N308 3718   3.721   0.296   4.598 -0.1659 -0.4814  0.4473
    6MOL   C309 3719   3.677   0.316   4.460  0.2217  0.5830 -0.2371
    6MOL   C310 3720   3.699   0.458   4.409 -0.2337  0.1148 -0.2112
    6MOL   C311 3721   3.842   0.511   4.401 -0.5071 -0.0646 -0.0591
    6MOL   C312 3722   3.867   0.606   4.290  0.0666 -0.1976  0.5094
    6MOL   C313 3723   4.017   0.616   4.257  0.1960  0.6097 -0.3500
    6MOL   C314 3724   4.030   0.685   4.119  0.1563 -0.3511  0.2703
    6MOL   C315 3725   4.171   0.688   4.061  0.3235  0.5602 -0.0126
    6MOL   C316 3726   4.173   0.759   3.921  0.4083  0.0978 -0.2512
    6MOL   C317 3727   4.308   0.812   3.891 -1.0122  0.1937 -0.1563
    6MOL   C318 3728   4.329   0.879   3.754 -0.0675  0.8164  0.4043
    6MOL   C319 3729   4.303   0.778   3.643  0.9684  0.3323  0.6819
    6MOL   O320 3730   4.324   0.655   3.649  0.2851  0.2372 -0.0968
    6MOL   H321 3731   3.797   0.230   4.597 -0.8016 -1.2199 -0.5322
    6MOL   H322 3732   3.574   0.283   4.445  0.9140 -2.9225  1.8489
    6MOL   H323 3733   3.735   0.243   4.404 -3.4388 -2.7241  0.0263
    6MOL   H324 3734   3.636   0.529   4.464 -1.1301  0.3538 -1.5153
    6MOL   H325 3735   3.666   0.449   4.305 -1.2203 -1.7843  0.2327
    6MOL   H326 3736   3.874   0.559   4.493 -0.1721 -2.1482  0.9370
    6MOL   H327 3737   3.900   0.421   4.385 -0.4559 -0.2797  1.2829
    6MOL   H328 3738   3.818   0.703   4.296  1.8089  0.8612 -1.5570
    6MOL   H329 3739   3.812   0.566   4.204  0.1113  2.3114 -0.7103
    6MOL   H330 3740   4.047   0.511   4.252  0.3023  0.6003  0.4152
    6MOL   H331 3741   4.074   0.673   4.330 -0.5488  1.2800 -0.2900
    6MOL   H332 3742   3.967   0.642   4.041  2.0322  2.0101 -2.6356
    6MOL   H333 3743   3.996   0.788   4.121  3.1601  0.7183 -0.6020
    6MOL   H334 3744   4.212   0.590   4.035 -1.1198  0.4865 -2.1077
    6MOL   H335 3745   4.237   0.736   4.133  0.0481 -0.6342  1.0594
    6MOL   H336 3746   4.137   0.705   3.834  0.1887 -0.2182  0.0304
    6MOL   H337 3747   4.105   0.844   3.927 -1.2414 -1.3052  1.9322
    6MOL   H338 3748   4.377   0.727   3.892  0.6592  1.5356  0.2138
    6MOL   H339 3749   4.341   0.872   3.976  0.6859 -1.5754  0.4835
    6MOL   H340 3750   4.432   0.906   3.731  0.6751 -2.1715  0.0077
    6MOL   H341 3751   4.273   0.971   3.742 -1.0699  0.4750  2.1876
    6MOL   N342 3752   4.256   0.829   3.529 -0.1674 -0.1095  0.1752
    6MOL   C343 3753   4.236   0.755   3.406  0.4427 -0.6223 -0.3408
    6MOL   C344 3754   4.363   0.727   3.326 -0.4331  0.1767  0.4336
    6MOL   C345 3755   4.451   0.851   3.297 -0.0943 -0.5829 -0.0720
    6MOL   C346 3756   4.570   0.813   3.212  0.5203 -0.1553 -0.6679
    6MOL   C347 3757   4.638   0.936   3.153  0.4987 -0.0612 -0.2325
    6MOL   C348 3758   4.728   1.013   3.248  0.0168 -0.2958  0.1349
    6MOL   C349 3759   4.753   1.160   3.210 -0.6341 -0.0212  0.2263
    6MOL   C350 3760   4.852   1.243   3.297 -0.4878 -0.6225  0.3826
    6MOL   C351 3761   4.846   1.399   3.264  0.0085  0.1297  0.4828
    6MOL   C352 3762   4.943   1.495   3.337  0.1464 -0.5646  0.3045
    6MOL   C353 3763   4.906   1.500   3.488  0.2169  0.0322  0.0619
    6MOL   O354 3764   4.799   1.556   3.519  0.1319 -0.2961 -0.1596
    6MOL   H355 3765   4.244   0.928   3.516 -3.2521 -0.5528 -0.7179
    6MOL   H356 3766   4.185   0.665   3.440 -0.1206 -0.0586  0.3381
    6MOL   H357 3767   4.165   0.815   3.349  1.0151 -0.2051 -0.6224
    6MOL   H358 3768   4.338   0.680   3.231 -0.7900  0.3718  0.4310
    6MOL   H359 3769   4.425   0.657   3.382 -0.5783 -0.1233  0.2246
    6MOL   H360 3770   4.396   0.918   3.231  2.2382 -0.5348 -2.0445
    6MOL   H361 3771   4.474   0.903   3.390 -0.3347 -0.0494 -0.3092
    6MOL   H362 3772   4.540   0.757   3.123  4.4301  0.1365 -2.2870
    6MOL   H363 3773   4.644   0.749   3.260  0.1115 -0.2379 -0.1422
    6MOL   H364 3774   4.557   1.000   3.118 -1.0558 -1.0534  1.4804
    6MOL   H365 3775   4.696   0.904   3.066  1.7338 -0.9469  0.8932
    6MOL   H366 3776   4.694   0.996   3.351 -0.3837 -0.4678 -0.0258
    6MOL   H367 3777   4.818   0.954   3.233  0.9261  1.3012 -0.7881
    6MOL   H368 3778   4.654   1.207   3.214  0.8988  3.3431  0.1557
    6MOL   H369 3779   4.792   1.158   3.108 -1.7294 -0.7548 -0.1983
    6MOL   H370 3780   4.817   1.215   3.396  1.5990  0.2039  1.3851
    6MOL   H371 3781   4.950   1.200   3.274 -0.0777  0.5056 -0.0541
    6MOL   H372 3782   4.744   1.437   3.269 -0.2109 -0.3463 -0.3166
    6MOL   H373 3783   4.869   1.401   3.158  2.1550  1.7729  0.9242
    6MOL   H374 3784   4.923   1.594   3.297 -2.5821 -1.1713  0.0578
    6MOL   H375 3785   5.045   1.471   3.310 -0.3331 -0.5075 -1.6697
    6MOL   N376 3786   4.975   1.433   3.582 -0.3685  0.0704  0.8201
    6MOL   C377 3787   4.946   1.441   3.726  0.7313  0.0484  0.0012
    6MOL   C378 3788   5.019   1.330   3.802 -0.4793  0.3712  0.0971
    6MOL   C379 3789   5.009   1.342   3.959 -0.2225 -0.1831  0.0661
    6MOL   C380 3790   5.084   1.224   4.032 -0.1068 -0.3208 -0.5742
    6MOL   C381 3791   5.040   1.232   4.185  0.0949 -0.1116 -0.2158
    6MOL   C382 3792   5.064   1.104   4.262  0.1492 -0.3552 -0.0985
    6MOL   C383 3793   5.064   1.126   4.417 -0.3007 -0.0607 -0.5070
    6MOL   C384 3794   5.112   1.000   4.503  0.2831  0.8696  0.1526
    6MOL   C385 3795   5.082   1.002   4.657 -0.0968 -0.1755  0.2467
    6MOL   C386 3796   5.117   0.882   4.739 -0.0046  0.0098 -0.1531
    6MOL   C387 3797   4.993   0.799   4.777 -0.2589  0.0714 -0.2924
    6MOL   O388 3798   4.913   0.856   4.850  0.1948 -0.0792 -0.3766
    6MOL   H389 3799   5.054   1.374   3.561 -0.4783  0.2118 -0.0438
    6MOL   H390 3800   4.977   1.537   3.767 -0.4808  0.4143  0.0868
    6MOL   H391 3801   4.839   1.432   3.744  0.7281 -1.1114 -0.5337
    6MOL   H392 3802   5.126   1.330   3.783 -0.7988  0.0721 -1.7847
    6MOL   H393 3803   4.968   1.238   3.772 -2.0242  0.8443  1.1615
    6MOL   H394 3804   5.033   1.444   3.988  1.8463 -0.2182 -1.4177
    6MOL   H395 3805   4.902   1.342   3.981 -0.3820 -0.8982 -0.6445
    6MOL   H396 3806   5.190   1.243   4.015 -0.1700 -1.5516 -2.4457
    6MOL   H397 3807   5.071   1.128   3.984  0.6547 -1.3295  1.1965
    6MOL   H398 3808   4.940   1.271   4.201  0.6494  0.6093  1.6756
    6MOL   H399 3809   5.103   1.315   4.216  0.7495 -0.2419 -1.1869
    6MOL   H400 3810   4.981   1.041   4.231 -0.4072  1.1355 -1.7181
    6MOL   H401 3811   5.157   1.066   4.220  0.4608 -1.1832  1.3209
    6MOL   H402 3812   4.964   1.148   4.454  0.1071  0.3015  0.3855
    6MOL   H403 3813   5.124   1.213   4.443  1.8935 -1.4863 -0.7177
    6MOL   H404 3814   5.053   0.911   4.482  1.3986  0.0659  0.3583
    6MOL   H405 3815   5.214   0.971   4.478 -0.3482  0.3707 -1.9228
    6MOL   H406 3816   4.986   1.047   4.680  1.3077  1.9983  1.9933
    6MOL   H407 3817   5.145   1.085   4.687 -1.1615  2.0604 -3.3520
    6MOL   H408 3818   5.157   0.919   4.833 -1.5651  0.3037  0.4033
    6MOL   H409 3819   5.191   0.821   4.687 -0.6893  0.0241 -1.1670
    6MOL   N410 3820   4.977   0.679   4.720 -0.1316  0.0912  0.4116
    6MOL   C411 3821   4.863   0.594   4.742 -0.5595 -0.2754 -0.1827
    6MOL   C412 3822   4.883   0.460   4.674  0.3574  0.1608  0.0878
    6MOL   C413 3823   4.902   0.471   4.520 -0.6211  0.5567  0.5244
    6MOL   C414 3824   4.949   0.338   4.448 -0.2855  0.5739  0.2986
    6MOL   C415 3825   4.834   0.236   4.438  0.4146 -0.0596 -0.1272
    6MOL   C416 3826   4.883   0.116   4.356  1.0539  0.4181 -1.0188
    6MOL   C417 3827   4.790   7.711   4.340  0.2386  0.2070 -0.6861
    6MOL   C418 3828   4.851   7.580   4.285  0.1466  0.0656 -0.3349
    6MOL   C419 3829   4.738   7.479   4.249  0.4256 -0.1155 -0.5482
    6MOL   C420 3830   4.782   7.341   4.199  0.0955  0.5687 -0.4469
    6MOL   C421 3831   4.671   7.230   4.214  0.0205  0.1880  0.0981
    6MOL   O422 3832   4.551   7.264   4.239 -0.2867 -0.1806 -0.5505
    6MOL   H423 3833   5.048   0.652   4.654 -0.1162  0.1350  0.4104
    6MOL   H424 3834   4.857   0.587   4.850  1.6216  0.5606  0.0143
    6MOL   H425 3835   4.771   0.639   4.705 -0.1951  1.7013  1.2253
    6MOL   H426 3836   4.803   0.388   4.693 -0.4697  0.9264 -0.4586
    6MOL   H427 3837   4.971   0.409   4.714  0.2009  0.4771  0.8358
    6MOL   H428 3838   4.802   0.500   4.486 -0.6551 -1.0488 -0.8253
    6MOL   H429 3839   4.973   0.546   4.487  0.4431 -0.8882 -0.4988
    6MOL   H430 3840   5.041   0.294   4.486  0.1140  0.3729 -0.9091
    6MOL   H431 3841   4.986   0.365   4.350 -0.0576  2.3714  0.8579
    6MOL   H432 3842   4.760   0.297   4.386 -0.7849 -0.7119  0.7889
    6MOL   H433 3843   4.787   0.196   4.529 -0.3257  0.9948 -0.0346
    6MOL   H434 3844   4.928   0.150   4.263 -0.8019 -0.3871 -2.2449
    6MOL   H435 3845   4.972   0.076   4.404  1.7651  1.9904 -1.0069
    6MOL   H436 3846   4.717   0.039   4.272 -0.2671  0.3037 -0.0814
    6MOL   H437 3847   4.747   7.697   4.439 -0.6657  0.1055 -1.0913
    6MOL   H438 3848   4.905   7.603   4.193 -1.0949 -1.1083 -1.3767
    6MOL   H439 3849   4.915   7.536   4.362 -0.1017 -0.9599 -0.7067
    6MOL   H440 3850   4.672   7.528   4.176 -1.2642 -2.0636 -0.3753
    6MOL   H441 3851   4.675   7.459   4.336 -1.0830  2.6401 -0.9208
    6MOL   H442 3852   4.872   7.311   4.255 -0.0110 -1.5926 -1.3669
    6MOL   H443 3853   4.811   7.343   4.094 -2.0155 -3.8606 -1.2325
    6MOL   N444 3854   4.716   7.107   4.193 -0.1400 -0.7019  0.3736
    6MOL   C445 3855   4.650   6.982   4.203 -0.0201  1.1125 -0.4340
    6MOL   C446 3856   4.752   6.877   4.249  0.6311  0.2611 -0.3646
    6MOL   C447 3857   4.700   6.730   4.228 -0.4830 -0.1475  0.2406
    6MOL   C448 3858   4.771   6.627   4.313 -0.2388 -0.4049 -0.6263
    6MOL   C449 3859   4.905   6.581   4.249  0.8020  0.1576 -0.1332
    6MOL   C450 3860   4.871   6.490   4.133 -0.4565 -0.4157 -0.2119
    6MOL   C451 3861   4.996   6.427   4.081  0.0400 -0.0939 -0.3522
    6MOL   C452 3862   4.973   6.326   3.969  1.1463 -0.8973 -0.0499
    6MOL   C453 3863   5.097   6.249   3.916 -0.0279 -0.2162  0.0735
    6MOL   C454 3864   5.103   6.231   3.762  0.2296  0.4279 -0.1318
    6MOL   C455 3865   4.990   6.143   3.698 -0.0954 -0.4393  0.4148
    6MOL   O456 3866   4.895   6.098   3.766  0.0968  0.6363  0.0053
    6MOL   H457 3867   4.810   7.110   4.156  0.5483 -0.1520  2.0955
    6MOL   H458 3868   4.569   6.998   4.274  2.0780  2.5793  1.7117
    6MOL   H459 3869   4.618   6.965   4.100 -0.5067  0.4362 -0.1772
    6MOL   H460 3870   4.776   6.893   4.354 -0.5139 -2.3718  0.3431
    6MOL   H461 3871   4.841   6.887   4.188  1.0036  0.1642  0.1638
    6MOL   H462 3872   4.591   6.720   4.234 -0.6179  0.3513 -1.1492
    6MOL   H463 3873   4.704   6.706   4.122  0.7877  0.3383  0.1815
    6MOL   H464 3874   4.714   6.536   4.334  0.7050 -1.5778 -2.9593
    6MOL   H465 3875   4.799   6.676   4.407 -0.6932 -0.5493 -0.4135
    6MOL   H466 3876   4.963   6.527   4.325  1.1061 -0.8414 -1.0534
    6MOL   H467 3877   4.969   6.658   4.207  2.1633 -2.1068 -2.3611
    6MOL   H468 3878   4.813   6.409   4.176 -1.5778 -0.6570 -2.1265
    6MOL   H469 3879   4.819   6.536   4.049 -0.4246 -1.1485 -0.6431
    6MOL   H470 3880   5.044   6.379   4.166 -3.0219 -0.2029  1.4205
    6MOL   H471 3881   5.061   6.510   4.052 -0.3844  0.5923  0.6047
    6MOL   H472 3882   4.899   6.253   4.001  0.7681 -0.8508 -0.8133
    6MOL   H473 3883   4.920   6.376   3.887  1.2359  0.6913  0.8467
    6MOL   H474 3884   5.106   6.149   3.958 -0.9242 -0.4621 -0.3034
    6MOL   H475 3885   5.183   6.312   3.940 -0.5141  0.3606  0.3363
    6MOL   H476 3886   5.198   6.183   3.738 -1.4981 -1.2438 -3.9501
    6MOL   H477 3887   5.102   6.329   3.715 -2.0086  0.1425 -0.7445
    6MOL   N478 3888   5.003   6.113   3.568 -0.3043  0.2300  0.5576
    6MOL   C479 3889   4.899   6.044   3.492 -0.1508  0.7985  0.0700
    6MOL   C480 3890   4.960   5.931   3.402  0.5664 -0.0696  0.2829
    6MOL   C481 3891   5.006   5.810   3.485 -0.7201 -0.1860 -0.3132
    6MOL   C482 3892   4.904   5.711   3.535  0.1082  0.9607 -0.3644
    6MOL   C483 3893   4.961   5.587   3.604  0.5359  0.1873  0.1227
    6MOL   C484 3894   5.045   5.616   3.728 -0.0546  0.9809  0.3565
    6MOL   C485 3895   4.985   5.687   3.853 -0.0434  0.5388  0.0798
    6MOL   C486 3896   4.847   5.637   3.904  1.2941 -0.3812 -0.0056
    6MOL   C487 3897   4.805   5.704   4.034  0.4966  0.0434  0.4660
    6MOL   C488 3898   4.773   5.852   4.029 -0.4813 -0.9898  0.4618
    6MOL   C489 3899   4.635   5.869   3.959 -0.7027  0.3158  0.0551
    6MOL   O490 3900   4.536   5.800   3.992  0.3544 -0.2014 -0.0630
    6MOL   H491 3901   5.077   6.161   3.519 -0.8292 -0.2841 -0.7466
    6MOL   H492 3902   4.828   5.999   3.562  0.2868  0.4248  0.2758
    6MOL   H493 3903   4.856   6.124   3.432 -0.4100 -0.1838 -1.0585
    6MOL   H494 3904   5.032   5.981   3.337  2.0727 -1.7279  0.6312
    6MOL   H495 3905   4.881   5.910   3.329  0.5529  0.3461  0.1809
    6MOL   H496 3906   5.075   5.756   3.419 -0.8456  0.2208 -0.7813
    6MOL   H497 3907   5.063   5.836   3.574 -1.0638 -0.1161 -0.1128
    6MOL   H498 3908   4.841   5.674   3.453 -0.5093  0.7049  0.2257
    6MOL   H499 3909   4.837   5.762   3.603  1.4931  2.6449 -0.2520
    6MOL   H500 3910   5.011   5.525   3.530 -0.1230 -1.6743  1.2202
    6MOL   H501 3911   4.878   5.527   3.642  0.4860  0.7447  0.9161
    6MOL   H502 3912   5.059   5.513   3.763 -1.1054  1.3887  2.0327
    6MOL   H503 3913   5.137   5.669   3.706 -0.6476  2.0181  0.3510
    6MOL   H504 3914   4.984   5.796   3.851 -1.4061  0.5097 -1.8356
    6MOL   H505 3915   5.059   5.678   3.933  0.1411  0.3850 -0.1061
    6MOL   H506 3916   4.770   5.646   3.827 -1.0008 -2.4434  1.9988
    6MOL   H507 3917   4.851   5.531   3.929  1.5032 -0.4685 -0.4074
    6MOL   H508 3918   4.888   5.695   4.105  1.1999 -0.4158 -0.4071
    6MOL   H509 3919   4.732   5.635   4.076  1.7434 -0.5683  1.6883
    6MOL   H510 3920   4.847   5.903   3.968 -1.9936 -0.7608 -1.2262
    6MOL   H511 3921   4.778   5.891   4.131 -0.2476 -1.2671  0.5566
    6MOL   N512 3922   4.634   5.960   3.860  0.1073 -0.1774  0.3719
    6MOL   C513 3923   4.514   6.015   3.791 -0.5623  0.2096  0.1753
    6MOL   C514 3924   4.555   6.057   3.646 -0.2380  0.1945 -0.1711
    6MOL   C515 3925   4.449   6.144   3.571  0.5038 -0.1811 -0.0570
    6MOL   C516 3926   4.482   6.147   3.422  0.4809 -0.5302 -0.4498
    6MOL   C517 3927   4.586   6.250   3.373 -0.0741  0.6889  0.0122
    6MOL   C518 3928   4.644   6.242   3.223  0.2771 -0.5373  0.8554
    6MOL   C519 3929   4.766   6.339   3.223 -1.2204 -0.5682  0.3601
    6MOL   C520 3930   4.844   6.317   3.091  0.1174 -0.2614 -0.7404
    6MOL   C521 3931   4.976   6.394   3.089 -0.1346 -0.4422  0.4383
    6MOL   C522 3932   5.092   6.333   3.165 -0.0873 -0.0565 -0.4940
    6MOL   C523 3933   5.138   6.207   3.102 -0.7265 -0.5430 -0.7649
    6MOL   O524 3934   5.111   6.185   2.982 -0.4141 -1.4072  0.3425
    6MOL   H525 3935   4.724   6.003   3.849 -0.5604  0.4197 -3.6828
    6MOL   H526 3936   4.439   5.937   3.785 -2.6426  1.9627  2.5503
    6MOL   H527 3937   4.465   6.096   3.844 -0.5017  1.5486 -1.7396
    6MOL   H528 3938   4.588   5.975   3.583 -1.1997 -1.2351  1.1571
    6MOL   H529 3939   4.646   6.115   3.657 -1.1953  1.3814  1.8273
    6MOL   H530 3940   4.354   6.092   3.582 -0.1445  0.5850 -1.7952
    6MOL   H531 3941   4.439   6.243   3.616  1.3667 -0.2959  0.3870
    6MOL   H532 3942   4.397   6.148   3.353  2.0187  1.7893 -2.3816
    6MOL   H533 3943   4.526   6.052   3.392 -1.2126 -1.4724 -0.0452
    6MOL   H534 3944   4.676   6.254   3.433  0.0737 -1.5662 -0.0272
    6MOL   H535 3945   4.554   6.353   3.392 -2.1288  0.5000 -2.1884
    6MOL   H536 3946   4.666   6.137   3.205 -1.4591 -0.9164  0.8494
    6MOL   H537 3947   4.566   6.270   3.151  2.0920 -0.6271 -1.2022
    6MOL   H538 3948   4.843   6.316   3.296  0.1756  0.0294 -0.9168
    6MOL   H539 3949   4.749   6.446   3.234  0.8238 -0.2782  0.7484
    6MOL   H540 3950   4.849   6.210   3.067  1.8825 -0.2374 -0.5552
    6MOL   H541 3951   4.775   6.357   3.017  0.7150  1.3626 -0.4367
    6MOL   H542 3952   4.958   6.493   3.132 -1.1060 -0.6886  0.6268
    6MOL   H543 3953   5.006   6.403   2.985  0.5063 -2.0106  0.4788
    6MOL   H544 3954   5.055   6.324   3.267  2.5294  2.0092  0.6810
    6MOL   H545 3955   5.171   6.407   3.162 -1.0397  1.0068  0.1619
    6MOL   N546 3956   5.211   6.129   3.178  0.0907 -0.7223  0.0556
    6MOL   C547 3957   5.277   6.012   3.126  0.3713  0.2040 -0.6505
    6MOL   C548 3958   5.187   5.891   3.081 -0.3348  0.6751 -0.3658
    6MOL   C549 3959   5.280   5.778   3.026 -0.5839 -0.0699 -0.1520
    6MOL   C550 3960   5.204   5.650   2.989  0.4496  1.4744  0.2972
    6MOL   C551 3961   5.291   5.529   2.954  0.0425  0.0392  0.8781
    6MOL   C552 3962   5.332   5.523   2.808  0.1952 -0.6524 -0.7552
    6MOL   C553 3963   5.482   5.552   2.770  0.0401 -0.1392 -0.3282
    6MOL   C554 3964   5.574   5.440   2.822  0.1378 -0.0238 -0.3497
    6MOL   C555 3965   5.697   5.425   2.728 -0.0578  0.0954  0.1266
    6MOL   C556 3966   5.788   5.554   2.725  0.1361 -0.4205 -0.2483
    6MOL   C557 3967   5.844   5.581   2.861  0.2651  0.5656  1.0149
    6MOL   O558 3968   5.922   5.501   2.906 -0.4379  0.1304  0.5012
    6MOL   H559 3969   5.231   6.163   3.271  3.5813 -0.0862 -0.8350
    6MOL   H560 3970   5.335   6.043   3.039  0.4655 -0.2875 -0.7668
    6MOL   H561 3971   5.344   5.977   3.204  0.2862  1.2409 -0.1029
    6MOL   H562 3972   5.107   5.915   3.011 -0.0770  2.4180 -0.0873
    6MOL   H563 3973   5.143   5.847   3.172 -0.4379  0.8334 -0.3381
    6MOL   H564 3974   5.336   5.805   2.936 -0.9223  0.3952 -0.2255
    6MOL   H565 3975   5.357   5.757   3.101 -1.4645 -2.2275  0.1810
    6MOL   H566 3976   5.131   5.676   2.913  0.5500  0.1626 -0.2541
    6MOL   H567 3977   5.155   5.618   3.081  2.1235  0.7596  0.9735
    6MOL   H568 3978   5.230   5.441   2.975  2.1800 -1.5433  0.5422
    6MOL   H569 3979   5.379   5.515   3.016 -0.4857  1.9897  2.1108
    6MOL   H570 3980   5.311   5.421   2.779 -5.0951 -0.7605  2.7736
    6MOL   H571 3981   5.262   5.580   2.746  2.2543 -0.4365 -2.9488
    6MOL   H572 3982   5.507   5.647   2.817 -0.5577  0.0478 -0.3742
    6MOL   H573 3983   5.492   5.563   2.662  1.2055  0.0440 -0.2054
    6MOL   H574 3984   5.599   5.469   2.924  1.1875 -0.3312 -0.5204
    6MOL   H575 3985   5.522   5.344   2.828 -0.7034  0.4110 -0.5250
    6MOL   H576 3986   5.670   5.403   2.624  0.2205  0.4897 -0.0305
    6MOL   H577 3987   5.755   5.335   2.749 -2.3894 -2.0032 -2.1519
    6MOL   H578 3988   5.729   5.640   2.693 -0.2256 -1.4596 -2.4927
    6MOL   H579 3989   5.877   5.549   2.661 -0.8925 -2.2384 -1.5949
    6MOL   N580 3990   5.809   5.697   2.921 -0.2773 -0.0894 -0.4647
    6MOL   C581 3991   5.826   5.725   3.060  0.5656 -1.0414  0.3005
    6MOL   C582 3992   5.694   5.772   3.123 -0.0029 -0.1875  0.2405
    6MOL   C583 3993   5.657   5.915   3.088 -0.3470 -0.6130  0.4614
    6MOL   C584 3994   5.714   6.030   3.162 -0.6700 -0.0124  0.1185
    6MOL   C585 3995   5.632   6.155   3.147  0.0061 -0.2315 -0.4234
    6MOL   C586 3996   5.631   6.214   2.999  0.3591  0.2395 -0.2880
    6MOL   C587 3997   5.537   6.343   2.988 -0.5742  0.2771  0.1383
    6MOL   C588 3998   5.523   6.392   2.837 -0.3183  0.0936 -0.4814
    6MOL   C589 3999   5.448   6.525   2.817 -0.2515  0.3513  0.2717
    6MOL   C590 4000   5.296   6.524   2.834  0.6008 -0.2830  0.1006
    6MOL   C591 4001   5.218   6.471   2.711 -0.2706 -0.0870 -0.1335
    6MOL   O592 4002   5.243   6.519   2.605 -0.4274 -0.0458 -1.4917
    6MOL   H593 4003   5.767   5.772   2.867  1.5275  2.5415  1.6745
    6MOL   H594 4004   5.874   5.651   3.124 -1.5911 -1.9425  0.9133
    6MOL   H595 4005   5.901   5.804   3.054 -1.7642  1.2411  0.0683
    6MOL   H596 4006   5.711   5.779   3.230 -0.5519 -1.1850  0.4040
    6MOL   H597 4007   5.625   5.690   3.105 -0.8342  1.2180 -3.3539
    6MOL   H598 4008   5.670   5.926   2.980  0.4054 -0.4403  0.5721
    6MOL   H599 4009   5.548   5.919   3.097 -0.4340 -1.4345 -0.1198
    6MOL   H600 4010   5.814   6.041   3.120  0.3586 -0.1974  2.4635
    6MOL   H601 4011   5.732   6.004   3.266  2.7936 -0.6911 -0.5716
    6MOL   H602 4012   5.661   6.238   3.211  2.2676 -2.2364  1.2403
    6MOL   H603 4013   5.528   6.133   3.167 -0.0088  0.6931  0.5735
    6MOL   H604 4014   5.734   6.237   2.971  0.1642 -0.0192 -1.2359
    6MOL   H605 4015   5.601   6.138   2.927 -1.6706  0.4396  0.3206
    6MOL   H606 4016   5.568   6.420   3.059  3.8702 -1.0850 -0.1771
    6MOL   H607 4017   5.436   6.321   3.022 -1.8047 -0.2055 -3.6091
    6MOL   H608 4018   5.622   6.392   2.791 -0.2731  1.4277 -0.3944
    6MOL   H609 4019   5.472   6.320   2.772 -1.7711  1.3334 -0.7333
    6MOL   H610 4020   5.472   6.559   2.716 -2.1622 -0.0574 -0.3393
    6MOL   H611 4021   5.493   6.593   2.889 -1.1380  1.7834 -0.5181
    6MOL   H612 4022   5.259   6.626   2.843 -2.1356 -1.4231  2.8610
    6MOL   H613 4023   5.265   6.471   2.925  1.8388 -2.4722 -0.7077
    6MOL   N614 4024   5.131   6.372   2.731  0.5447 -0.4875  0.0234
    6MOL   C615 4025   5.034   6.323   2.631 -0.6178  0.4478 -0.3969
    6MOL   C616 4026   4.892   6.304   2.682 -0.4405  0.1941  0.2999
    6MOL   C617 4027   4.806   6.271   2.560  0.0088  1.0518  0.1470
    6MOL   C618 4028   4.779   6.379   2.450 -0.1175 -1.3920  0.1094
    6MOL   C619 4029   4.725   6.325   2.316 -0.2419  0.0460 -0.5724
    6MOL   C620 4030   4.737   6.420   2.192  0.1250  0.1794 -0.3283
    6MOL   C621 4031   4.696   6.345   2.065 -0.3002 -0.1426 -0.4225
    6MOL   C622 4032   4.543   6.330   2.058  0.3625  0.6205 -0.3824
    6MOL   C623 4033   4.499   6.266   1.921  0.5078 -0.7353 -0.1065
    6MOL   C624 4034   4.361   6.318   1.875  0.4928 -0.0936  0.4196
    6MOL   C625 4035   4.326   6.299   1.726 -1.0174 -0.0362 -0.3276
    6MOL   O626 4036   4.388   6.216   1.656 -0.1039  0.3929 -0.0954
    6MOL   H627 4037   5.123   6.335   2.825 -0.4690  0.5819  0.3811
    6MOL   H628 4038   5.076   6.228   2.597 -2.2321 -0.1445 -0.7801
    6MOL   H629 4039   5.044   6.387   2.543 -1.4710  1.7638  0.4468
    6MOL   H630 4040   4.851   6.387   2.741  1.0650  1.8209 -0.8964
    6MOL   H631 4041   4.879   6.225   2.756  1.9712 -1.2740 -0.7947
    6MOL   H632 4042   4.846   6.175   2.529  1.9988  1.5562  1.1002
    6MOL   H633 4043   4.703   6.248   2.587  0.4031 -1.5384 -0.4793
    6MOL   H634 4044   4.880   6.415   2.429 -0.3299  0.5904  2.2809
    6MOL   H635 4045   4.721   6.458   2.498 -0.2424 -2.0031  0.9628
    6MOL   H636 4046   4.622   6.297   2.339 -0.2860  1.5762  1.2346
    6MOL   H637 4047   4.782   6.233   2.300 -1.0597 -0.7515  0.9495
    6MOL   H638 4048   4.678   6.510   2.208 -0.2130 -0.5497  3.0305
    6MOL   H639 4049   4.844   6.434   2.181  0.5125 -3.8629 -2.5885
    6MOL   H640 4050   4.753   6.254   2.048 -1.4652 -0.9184 -0.1917
    6MOL   H641 4051   4.725   6.409   1.982  2.2074  0.1232  0.5925
    6MOL   H642 4052   4.502   6.280   2.146 -0.2084  0.5089 -0.7082
    6MOL   H643 4053   4.506   6.432   2.053 -1.1599  0.1181  0.2267
    6MOL   H644 4054   4.500   6.158   1.934  2.9871 -0.5973  1.0314
    6MOL   H645 4055   4.573   6.290   1.844  1.7998 -1.7418  0.8065
    6MOL   H646 4056   4.351   6.425   1.897 -0.0788 -0.0067 -0.2365
    6MOL   H647 4057   4.286   6.262   1.932 -1.4829  0.6422 -1.3780
    6MOL   N648 4058   4.229   6.377   1.679 -0.0850 -0.0160  0.2215
    6MOL   C649 4059   4.180   6.380   1.537 -0.3470 -1.0373 -0.0026
    6MOL   C650 4060   4.105   6.514   1.531  0.5915 -0.3098  0.1177
    6MOL   C651 4061   4.031   6.528   1.398 -0.9243 -0.2877 -1.0693
    6MOL   C652 4062   3.953   6.652   1.379 -0.0177  0.5008  0.3475
    6MOL   C653 4063   3.834   6.676   1.471  0.2960 -0.2735 -0.1210
    6MOL   C654 4064   3.737   6.793   1.437  0.6329 -0.6689 -0.6286
    6MOL   C655 4065   3.816   6.914   1.413  0.3504 -0.4332  0.6976
    6MOL   C656 4066   3.744   7.046   1.444 -0.4704  0.9791  0.5190
    6MOL   C657 4067   3.640   7.081   1.331  0.1714 -0.3030 -0.0462
    6MOL   C658 4068   3.571   7.217   1.332 -0.1480 -0.5750 -0.0408
    6MOL   C659 4069   3.672   7.326   1.350  0.4999 -0.2079  0.2052
    6MOL   O660 4070   3.692   7.384   1.461 -0.2494 -0.4146  0.5943
    6MOL   H661 4071   4.184   6.440   1.744 -2.3823 -0.6796 -0.6550
    6MOL   H662 4072   4.107   6.306   1.506 -0.7180 -1.5445  1.9873
    6MOL   H663 4073   4.258   6.377   1.461 -0.1323  0.3953  0.1454
    6MOL   H664 4074   4.187   6.585   1.523 -0.3337  0.8429  0.7736
    6MOL   H665 4075   4.027   6.528   1.605  1.5933  2.2716  0.7110
    6MOL   H666 4076   4.103   6.533   1.316 -0.9189 -0.2888 -1.0646
    6MOL   H667 4077   3.964   6.442   1.392 -0.2510 -0.8842 -0.2344
    6MOL   H668 4078   3.926   6.656   1.273  1.5885 -0.5487 -0.1122
    6MOL   H669 4079   4.027   6.730   1.396  2.4475 -1.4770 -0.8938
    6MOL   H670 4080   3.856   6.696   1.576  1.8750  2.6150 -0.9537
    6MOL   H671 4081   3.772   6.586   1.476 -0.4880  0.3181  1.4054
    6MOL   H672 4082   3.692   6.766   1.341 -2.1208 -2.5638  1.1416
    6MOL   H673 4083   3.653   6.819   1.501  1.9256  3.2412 -0.3666
    6MOL   H674 4084   3.860   6.909   1.313 -1.6861 -0.0927 -0.2456
    6MOL   H675 4085   3.897   6.907   1.486  0.8591 -1.6891  0.0336
    6MOL   H676 4086   3.695   7.035   1.541 -0.7235 -0.6650  0.2243
    6MOL   H677 4087   3.816   7.127   1.446 -0.1788  0.7448 -0.5114
    6MOL   H678 4088   3.562   7.005   1.331 -0.5270  0.4082  0.1294
    6MOL   H679 4089   3.687   7.067   1.234  0.8706 -2.6505  0.5982
    6MOL   H680 4090   3.503   7.213   1.418 -1.6293  1.9484 -1.0540
    6MOL   H681 4091   3.505   7.242   1.250 -0.0536 -1.0828 -0.2711
    6MOL   H682 4092   3.722   7.350   1.256 -2.3025  2.2064 -0.7482
    7MOL     N1 4093   1.255   1.231   3.559 -0.5596  0.2745 -0.2535
    7MOL     C2 4094   1.274   1.265   3.702 -0.2380  0.1617  0.1748
    7MOL     C3 4095   1.245   1.151   3.800 -0.0911 -0.7760 -0.1721
    7MOL     C4 4096   1.275   1.194   3.947 -0.2126 -1.0447 -0.4788
    7MOL     C5 4097   1.291   1.084   4.052 -0.7179 -0.0077 -0.4471
    7MOL     C6 4098   1.321   1.135   4.188  0.6304  0.5504 -0.4651
    7MOL     C7 4099   1.308   1.023   4.293 -0.1519  0.7652 -0.1113
    7MOL     C8 4100   1.423   0.942   4.325  0.1887  0.5276  0.0462
    7MOL     C9 4101   1.402   0.836   4.433  0.3041 -0.4768 -0.6346
    7MOL    C10 4102   1.334   0.704   4.387  0.1084  0.1119 -0.0933
    7MOL    C11 4103   1.300   0.603   4.503  0.3014  0.5925 -0.6315
    7MOL    C12 4104   1.164   0.613   4.564 -0.7755  1.2996 -0.7019
    7MOL    O13 4105   1.071   0.609   4.485 -0.0201  0.2476  0.6931
    7MOL    H14 4106   1.327   1.287   3.517 -0.2090  1.3743  1.7626
    7MOL    H15 4107   1.215   1.348   3.740 -0.4980  0.1746 -0.2536
    7MOL    H16 4108   1.375   1.298   3.725 -0.4006 -0.1920  1.4182
    7MOL    H17 4109   1.318   1.077   3.768 -0.0199 -0.4717 -0.7153
    7MOL    H18 4110   1.145   1.110   3.784 -0.5378  0.5166 -0.7746
    7MOL    H19 4111   1.368   1.251   3.952 -1.4440  0.8766  1.0799
    7MOL    H20 4112   1.196   1.262   3.977  0.7218  0.8737 -2.2457
    7MOL    H21 4113   1.372   1.014   4.032 -0.8242 -0.0184 -0.8603
    7MOL    H22 4114   1.198   1.026   4.048 -0.5194 -0.1916 -4.5060
    7MOL    H23 4115   1.244   1.208   4.214  1.1162  0.2436  1.9653
    7MOL    H24 4116   1.416   1.188   4.199  1.1413 -0.1543 -1.4301
    7MOL    H25 4117   1.267   1.078   4.377 -0.2555  1.6507 -0.7351
    7MOL    H26 4118   1.229   0.952   4.267  2.2169 -2.2800  0.7247
    7MOL    H27 4119   1.513   1.000   4.345  1.7462 -2.2249  1.3811
    7MOL    H28 4120   1.451   0.887   4.235  0.1188 -2.2414  1.6573
    7MOL    H29 4121   1.498   0.805   4.473  0.8069  1.8657  0.0727
    7MOL    H30 4122   1.339   0.886   4.507  0.0250  0.7867 -1.6970
    7MOL    H31 4123   1.403   0.648   4.324 -0.3902 -1.3219  0.6180
    7MOL    H32 4124   1.243   0.719   4.329 -2.0505 -2.5649  2.4670
    7MOL    H33 4125   1.379   0.621   4.577 -1.5254  1.0070  1.2629
    7MOL    H34 4126   1.312   0.499   4.471 -0.6523  0.2070  0.2260
    7MOL    H35 4127   1.164   1.261   3.525 -0.8898 -2.6134 -2.0817
    7MOL    N36 4128   1.148   0.611   4.697  0.3628  0.0132 -0.0472
    7MOL    C37 4129   1.026   0.639   4.767  0.3748 -0.3084 -0.1889
    7MOL    C38 4130   0.975   0.779   4.758 -0.6609  0.0255  0.0745
    7MOL    C39 4131   0.852   0.795   4.853  0.9238  0.0147 -0.4405
    7MOL    C40 4132   0.898   0.807   5.002 -0.3397  0.1560  0.0403
    7MOL    C41 4133   0.782   0.841   5.091  0.3530  0.2327  0.0439
    7MOL    C42 4134   0.817   0.905   5.224  0.4376 -0.3414  1.5172
    7MOL    C43 4135   0.919   0.839   5.318 -0.2830  0.6474 -0.7928
    7MOL    C44 4136   0.894   0.863   5.466  0.7040 -0.2348  0.4334
    7MOL    C45 4137   1.018   0.834   5.552 -0.0218 -0.2801 -0.6690
    7MOL    C46 4138   1.040   0.687   5.565 -0.6620 -0.2011 -0.6519
    7MOL    C47 4139   1.006   0.620   5.702 -0.5367  0.6473 -0.1070
    7MOL    O48 4140   0.936   0.685   5.781 -0.3641  0.0800 -0.0942
    7MOL    H49 4141   1.231   0.605   4.754  1.4791  1.5438 -1.4689
    7MOL    H50 4142   0.947   0.568   4.740  1.7103 -1.8252 -0.1412
    7MOL    H51 4143   1.038   0.611   4.872 -0.9156  1.1269  0.3577
    7MOL    H52 4144   0.945   0.808   4.658  0.0046 -0.5755 -0.3069
    7MOL    H53 4145   1.036   0.859   4.800 -1.8073  1.2201 -0.5157
    7MOL    H54 4146   0.797   0.886   4.830 -0.5853 -0.6782  0.3600
    7MOL    H55 4147   0.774   0.719   4.850 -0.6011  1.3839  2.1308
    7MOL    H56 4148   0.956   0.899   5.010  0.4112 -0.1275 -1.8898
    7MOL    H57 4149   0.958   0.720   5.027  0.1194 -0.1022 -1.8867
    7MOL    H58 4150   0.737   0.742   5.105  1.4121 -0.5492 -1.9799
    7MOL    H59 4151   0.714   0.903   5.033  1.7906  2.7203  0.9660
    7MOL    H60 4152   0.844   1.008   5.199 -0.5754 -0.6319 -0.8234
    7MOL    H61 4153   0.727   0.914   5.285  0.6661  1.7651  1.5902
    7MOL    H62 4154   1.021   0.860   5.287  0.5215 -2.7268 -0.5840
    7MOL    H63 4155   0.900   0.732   5.305 -1.8556  0.5510  1.8987
    7MOL    H64 4156   0.881   0.970   5.486  2.0061  0.3825 -1.8689
    7MOL    H65 4157   0.801   0.814   5.496  0.2552 -0.5998 -1.5166
    7MOL    H66 4158   1.004   0.882   5.648 -0.3606  2.9977 -2.2905
    7MOL    H67 4159   1.101   0.876   5.494 -0.5457  1.2036 -0.3659
    7MOL    H68 4160   1.148   0.671   5.554 -0.6177 -1.4600  1.3652
    7MOL    H69 4161   0.989   0.635   5.485  0.0244  2.1374 -2.6848
    7MOL    N70 4162   1.063   0.505   5.732 -0.3862  0.3162  0.3989
    7MOL    C71 4163   1.056   0.450   5.864 -0.3175  0.9460  0.3781
    7MOL    C72 4164   1.190   0.403   5.913  0.1082 -0.1114  1.0161
    7MOL    C73 4165   1.204   0.371   6.061 -0.5244 -0.2642  0.4067
    7MOL    C74 4166   1.347   0.313   6.089  0.1687  0.2815  0.0472
    7MOL    C75 4167   1.381   0.309   6.239  0.1162 -0.6370  0.4403
    7MOL    C76 4168   1.515   0.228   6.242  0.0850 -0.2180  0.0481
    7MOL    C77 4169   1.581   0.226   6.386  0.0839 -0.2957 -0.3872
    7MOL    C78 4170   1.686   0.123   6.411 -0.5391 -0.0165 -0.3039
    7MOL    C79 4171   1.810   0.123   6.318  0.2716  0.5497  0.0026
    7MOL    C80 4172   1.904   0.244   6.321 -0.0327  0.0300  0.0133
    7MOL    C81 4173   1.973   0.266   6.453 -0.2427  0.3505 -0.6023
    7MOL    O82 4174   2.050   0.180   6.493  0.8501 -0.2058  0.1038
    7MOL    H83 4175   1.128   0.470   5.663  0.8022  0.6917  1.3233
    7MOL    H84 4176   1.028   0.527   5.937 -0.8001  0.4450  0.7243
    7MOL    H85 4177   0.984   0.369   5.869  1.9831 -1.1342  0.5583
    7MOL    H86 4178   1.268   0.473   5.883 -1.3765  0.4932 -1.6301
    7MOL    H87 4179   1.211   0.307   5.866 -0.6041 -0.1378  0.7473
    7MOL    H88 4180   1.182   0.472   6.096  2.7163 -0.3244  2.8031
    7MOL    H89 4181   1.123   0.314   6.106  0.5569 -1.5819  0.7221
    7MOL    H90 4182   1.418   0.380   6.041 -0.0637 -0.0025 -0.6937
    7MOL    H91 4183   1.343   0.224   6.028 -0.9242  0.1936  0.2425
    7MOL    H92 4184   1.300   0.250   6.283 -0.4546 -0.9182 -0.9434
    7MOL    H93 4185   1.389   0.407   6.285 -0.0593 -0.6221  0.4394
    7MOL    H94 4186   1.494   0.122   6.227 -0.3731 -0.3533  1.5054
    7MOL    H95 4187   1.586   0.264   6.167 -2.0426  0.4606 -1.6859
    7MOL    H96 4188   1.507   0.214   6.465 -0.0511 -2.8384 -0.8541
    7MOL    H97 4189   1.622   0.326   6.396  0.5475 -0.5714  0.4980
    7MOL    H98 4190   1.721   0.146   6.511  0.1320  3.3226 -1.2453
    7MOL    H99 4191   1.647   0.022   6.422  1.0305 -0.5241  0.6965
    7MOL   H100 4192   1.766   0.111   6.219  1.3648  1.0573 -0.5600
    7MOL   H101 4193   1.881   0.042   6.334  0.8108  0.7238 -1.3779
    7MOL   H102 4194   1.854   0.338   6.296  0.6095  0.0631 -1.1669
    7MOL   H103 4195   1.980   0.225   6.245 -0.6628 -0.2621 -0.5435
    7MOL   N104 4196   1.961   0.389   6.510 -0.2578 -0.3749 -0.4630
    7MOL   C105 4197   2.017   0.442   6.634 -0.8444  0.3052  0.4723
    7MOL   C106 4198   1.924   0.407   6.752 -0.3771  0.5551 -0.4399
    7MOL   C107 4199   1.778   0.448   6.747  0.2052 -0.3131 -0.7280
    7MOL   C108 4200   1.686   0.362   6.840  0.4604  0.1810 -0.6132
    7MOL   C109 4201   1.546   0.419   6.836 -0.1631  0.0359  1.1226
    7MOL   C110 4202   1.461   0.386   6.706  0.3058  0.1457 -0.3247
    7MOL   C111 4203   1.337   0.473   6.690  1.0066  0.0647 -0.3044
    7MOL   C112 4204   1.366   0.629   6.669  0.7119 -0.2759 -0.1825
    7MOL   C113 4205   1.255   0.723   6.596 -0.0489  0.1897  0.4348
    7MOL   C114 4206   1.126   0.728   6.669  0.2230  0.3296 -0.2828
    7MOL   C115 4207   1.126   0.812   6.794 -0.6570 -0.9843 -0.2088
    7MOL   O116 4208   1.150   0.753   6.897 -0.1028 -0.4661  0.1397
    7MOL   H117 4209   1.890   0.447   6.468 -1.2940 -0.6434  0.9139
    7MOL   H118 4210   2.117   0.401   6.649 -0.9246  0.4397  1.3754
    7MOL   H119 4211   2.020   0.549   6.617  1.1538 -0.0269 -1.4591
    7MOL   H120 4212   1.957   0.443   6.849 -0.6268 -0.5316  0.0533
    7MOL   H121 4213   1.924   0.298   6.761 -1.2908  0.7597  2.4176
    7MOL   H122 4214   1.767   0.553   6.772 -0.0437 -0.1697 -1.4467
    7MOL   H123 4215   1.734   0.431   6.649 -0.0172 -0.6711 -0.5686
    7MOL   H124 4216   1.719   0.364   6.944 -0.8379  1.7557 -0.2070
    7MOL   H125 4217   1.695   0.259   6.805  2.1490 -1.5536  4.5234
    7MOL   H126 4218   1.537   0.527   6.844 -0.5207  0.1478 -0.6787
    7MOL   H127 4219   1.500   0.368   6.921  1.5364 -1.6487  1.0593
    7MOL   H128 4220   1.520   0.401   6.615 -0.2356  3.5687 -0.1664
    7MOL   H129 4221   1.429   0.282   6.704  0.6928  0.0256 -0.3354
    7MOL   H130 4222   1.268   0.454   6.772  0.4309 -0.4010 -0.8930
    7MOL   H131 4223   1.267   0.435   6.616  0.3213 -1.3804  1.0449
    7MOL   H132 4224   1.372   0.675   6.768  1.4321  1.3547 -0.9517
    7MOL   H133 4225   1.469   0.643   6.634  0.5204  1.0000 -0.2720
    7MOL   H134 4226   1.243   0.684   6.495  3.6063  0.6571 -0.2406
    7MOL   H135 4227   1.290   0.826   6.584  2.0334 -0.3902  1.2414
    7MOL   H136 4228   1.095   0.625   6.686  1.0673  0.0447 -0.4212
    7MOL   H137 4229   1.050   0.773   6.605 -0.3643 -0.7920 -0.3848
    7MOL   N138 4230   1.122   0.942   6.781  0.3668  0.5836 -0.1049
    7MOL   C139 4231   1.132   1.049   6.881  0.5320  0.1978 -0.3751
    7MOL   C140 4232   1.003   1.062   6.956 -0.5249 -0.1397  0.5745
    7MOL   C141 4233   1.016   1.188   7.038  0.0669 -0.3122 -1.0290
    7MOL   C142 4234   0.878   1.256   7.077  0.4209  0.5316 -0.0856
    7MOL   C143 4235   0.912   1.373   7.167  0.0219  0.7328 -0.2083
    7MOL   C144 4236   0.782   1.445   7.214  0.4865 -0.5813 -0.5750
    7MOL   C145 4237   0.690   1.513   7.113 -0.2208  0.1814  0.3108
    7MOL   C146 4238   0.606   1.621   7.185 -0.2688  0.7779  0.4785
    7MOL   C147 4239   0.514   1.692   7.079  0.1388  0.6043  0.4108
    7MOL   C148 4240   0.587   1.774   6.968 -0.1422 -0.2853 -0.2727
    7MOL   C149 4241   0.489   1.862   6.879  0.0394  0.1778  0.0378
    7MOL   O150 4242   0.374   1.876   6.913  0.5062 -0.2486 -0.2998
    7MOL   H151 4243   1.114   0.982   6.688  1.8142 -1.3932 -1.1093
    7MOL   H152 4244   1.227   1.035   6.933  0.3562  0.3798 -0.0014
    7MOL   H153 4245   1.135   1.141   6.824 -1.3102 -0.7305 -2.0288
    7MOL   H154 4246   0.982   0.982   7.027 -1.5186 -2.2459 -2.0137
    7MOL   H155 4247   0.908   1.071   6.902 -0.1014  0.6727 -0.0472
    7MOL   H156 4248   1.079   1.167   7.125 -1.0262  0.2085 -0.0867
    7MOL   H157 4249   1.071   1.264   6.983  1.7830 -1.0294 -0.3513
    7MOL   H158 4250   0.811   1.191   7.133  2.1474 -0.9510  0.3108
    7MOL   H159 4251   0.833   1.286   6.982 -0.5537  2.0110  0.8128
    7MOL   H160 4252   0.965   1.449   7.110  0.3039  1.1779  0.6440
    7MOL   H161 4253   0.977   1.342   7.248 -2.0279 -1.3853  0.6852
    7MOL   H162 4254   0.724   1.374   7.274 -0.0062  0.9278  0.7602
    7MOL   H163 4255   0.818   1.531   7.270 -0.3110  1.2922 -2.8441
    7MOL   H164 4256   0.635   1.435   7.061  1.7603 -0.0365 -1.5417
    7MOL   H165 4257   0.762   1.557   7.043 -0.2250  1.5413  1.1384
    7MOL   H166 4258   0.542   1.575   7.261 -0.1050 -1.2923 -0.5994
    7MOL   H167 4259   0.670   1.697   7.231  3.9287 -2.8919  1.0021
    7MOL   H168 4260   0.459   1.768   7.135 -0.1145  0.8253 -0.1247
    7MOL   H169 4261   0.447   1.632   7.018 -0.7870  2.2432 -0.2270
    7MOL   H170 4262   0.643   1.709   6.900 -0.5072 -1.6926  0.7391
    7MOL   H171 4263   0.659   1.839   7.017  0.2129 -1.2868  0.5716
    7MOL   N172 4264   0.538   1.905   6.762 -0.5450 -0.4299 -0.4861
    7MOL   C173 4265   0.462   1.946   6.650 -0.0741 -0.4674 -0.7972
    7MOL   C174 4266   0.527   1.911   6.515 -0.1929 -0.4898  0.0722
    7MOL   C175 4267   0.655   1.995   6.473  0.1682 -0.3863 -0.8139
    7MOL   C176 4268   0.731   1.961   6.350  0.2997  0.0488  0.8248
    7MOL   C177 4269   0.832   1.849   6.383 -0.0830  0.1716 -0.2848
    7MOL   C178 4270   0.913   1.804   6.259  0.5685 -0.4151  0.2422
    7MOL   C179 4271   1.019   1.705   6.305  0.0048 -0.0692  0.7197
    7MOL   C180 4272   1.115   1.650   6.195  0.1055 -0.5093  0.3335
    7MOL   C181 4273   1.199   1.526   6.245 -0.1157  0.0504 -0.4661
    7MOL   C182 4274   1.137   1.386   6.252 -0.3569  0.6400  0.9817
    7MOL   C183 4275   1.064   1.346   6.126 -0.3516  1.3394  0.0427
    7MOL   O184 4276   1.124   1.360   6.015 -0.8452 -0.2808 -0.0706
    7MOL   H185 4277   0.636   1.888   6.740 -0.4458 -0.8627  0.2860
    7MOL   H186 4278   0.358   1.912   6.662 -1.0590  2.5299 -0.5317
    7MOL   H187 4279   0.464   2.055   6.649  0.2476 -0.4653 -0.0925
    7MOL   H188 4280   0.449   1.924   6.441  1.1932  3.9168 -0.8121
    7MOL   H189 4281   0.543   1.804   6.528 -0.4253 -0.7290 -1.5142
    7MOL   H190 4282   0.618   2.097   6.463 -2.1391 -0.8523  2.0321
    7MOL   H191 4283   0.716   2.015   6.562 -0.4318  0.2472 -0.5429
    7MOL   H192 4284   0.769   2.052   6.304 -0.0719 -0.7539 -1.1155
    7MOL   H193 4285   0.644   1.924   6.296 -0.1796 -0.3849  1.8914
    7MOL   H194 4286   0.786   1.771   6.444  0.6231  0.3819  0.5311
    7MOL   H195 4287   0.905   1.890   6.453  0.9554  1.3599 -2.0518
    7MOL   H196 4288   0.855   1.749   6.186  0.6863  0.8330 -0.8055
    7MOL   H197 4289   0.955   1.881   6.195 -3.5541  2.0295  0.3016
    7MOL   H198 4290   0.989   1.620   6.366  0.0640 -1.1910 -0.7744
    7MOL   H199 4291   1.090   1.751   6.374  1.3902 -1.0232 -0.0385
    7MOL   H200 4292   1.058   1.620   6.107  3.1133 -2.5612 -0.9816
    7MOL   H201 4293   1.186   1.729   6.171 -1.6329  1.0718  0.2925
    7MOL   H202 4294   1.250   1.556   6.337 -1.8933 -0.9186  0.8546
    7MOL   H203 4295   1.273   1.509   6.166  1.5833 -0.5663  1.2148
    7MOL   H204 4296   1.076   1.369   6.340  0.9123 -1.1278  1.5567
    7MOL   H205 4297   1.215   1.310   6.257 -0.9806 -0.1585 -0.8905
    7MOL   N206 4298   0.946   1.297   6.133 -0.0125 -0.2898  0.2609
    7MOL   C207 4299   0.853   1.259   6.023  0.6001  0.2482  0.2859
    7MOL   C208 4300   0.728   1.354   6.010  0.1507  0.1486 -0.0148
    7MOL   C209 4301   0.687   1.433   6.129 -0.6450  0.5026  0.9118
    7MOL   C210 4302   0.583   1.543   6.099  0.3964  0.1258  0.2238
    7MOL   C211 4303   0.620   1.651   5.990  0.3996 -0.0452  0.0430
    7MOL   C212 4304   0.510   1.758   5.972 -0.2127 -0.2936  0.3641
    7MOL   C213 4305   0.532   1.863   5.858  0.3910  1.0517  0.0157
    7MOL   C214 4306   0.428   1.979   5.857  0.1399  0.0549 -0.1001
    7MOL   C215 4307   0.433   2.070   5.734  0.0249  0.1570  0.0453
    7MOL   C216 4308   0.358   2.005   5.616 -0.2402  0.4608 -0.3155
    7MOL   C217 4309   0.336   2.096   5.494  0.3642 -0.1084  0.0309
    7MOL   O218 4310   0.366   2.215   5.496  0.5834  0.1097 -0.2820
    7MOL   H219 4311   0.908   1.287   6.227  0.9380  1.1356  0.8087
    7MOL   H220 4312   0.804   1.171   6.064  0.9365 -0.5012 -0.8935
    7MOL   H221 4313   0.910   1.241   5.931  0.3378  1.0356 -0.0406
    7MOL   H222 4314   0.639   1.297   5.982  0.0335  1.3626 -2.2010
    7MOL   H223 4315   0.743   1.422   5.927 -0.7732  1.4325  0.8564
    7MOL   H224 4316   0.658   1.369   6.213 -0.9469 -0.3904  0.1315
    7MOL   H225 4317   0.766   1.494   6.173  2.2604 -1.0585 -1.8997
    7MOL   H226 4318   0.564   1.597   6.191  1.8032  0.1102  0.5377
    7MOL   H227 4319   0.479   1.515   6.085  0.5202 -0.0573 -0.3626
    7MOL   H228 4320   0.627   1.599   5.894  0.6040 -0.3135  0.2019
    7MOL   H229 4321   0.713   1.700   6.016 -0.4672  1.1529  0.9546
    7MOL   H230 4322   0.412   1.711   5.967  0.5410 -2.1069  1.9793
    7MOL   H231 4323   0.508   1.819   6.063 -2.7814  0.9353 -0.4592
    7MOL   H232 4324   0.540   1.812   5.762  0.5979 -1.5917  1.3652
    7MOL   H233 4325   0.630   1.904   5.882  1.6084 -1.4080 -0.5862
    7MOL   H234 4326   0.330   1.932   5.861  0.4866 -0.7857 -1.1670
    7MOL   H235 4327   0.430   2.037   5.949 -0.6040  3.0179 -1.8645
    7MOL   H236 4328   0.532   2.101   5.700 -0.5786  1.0033 -0.9605
    7MOL   H237 4329   0.381   2.165   5.750 -1.5102 -0.5447 -0.6955
    7MOL   H238 4330   0.260   1.971   5.649 -1.6849  2.3650 -2.5001
    7MOL   H239 4331   0.401   1.907   5.597  0.0136  0.1703  1.6882
    7MOL   N240 4332   0.287   2.036   5.385  0.0582  0.0961 -0.4395
    7MOL   C241 4333   0.254   2.108   5.261 -0.5762  0.5586 -0.1608
    7MOL   C242 4334   0.209   2.013   5.150 -0.1514  0.1208 -0.0510
    7MOL   C243 4335   0.060   1.985   5.130 -0.4876  0.3276 -0.1631
    7MOL   C244 4336   0.012   1.929   4.998 -0.0480  0.3644  0.1985
    7MOL   C245 4337   7.579   1.881   4.988  0.3029 -0.5731  0.9804
    7MOL   C246 4338   7.541   1.865   4.840 -0.4724  0.1872  0.4899
    7MOL   C247 4339   7.590   1.728   4.783  0.4278  1.2609  0.3531
    7MOL   C248 4340   7.544   1.713   4.633  0.2578 -0.1190 -0.4575
    7MOL   C249 4341   7.602   1.583   4.566 -0.1871  0.1574  0.5909
    7MOL   C250 4342   7.583   1.571   4.410  0.2927 -0.3039 -0.4895
    7MOL   C251 4343   7.429   1.561   4.366 -0.0662 -0.4377 -0.9133
    7MOL   O252 4344   7.351   1.485   4.424 -0.0057 -0.0479 -0.3465
    7MOL   H253 4345   0.265   1.938   5.390 -0.7999  0.2892 -0.2143
    7MOL   H254 4346   0.338   2.169   5.229  0.6248 -1.1785 -0.4120
    7MOL   H255 4347   0.180   2.187   5.273 -0.5453  0.1440  3.4843
    7MOL   H256 4348   0.265   1.920   5.159  0.8260  0.7307  0.2383
    7MOL   H257 4349   0.231   2.046   5.048  1.8384 -3.9003 -1.0184
    7MOL   H258 4350   0.022   1.920   5.208  1.8473 -1.8674 -0.7828
    7MOL   H259 4351   0.005   2.078   5.146  1.7331  1.7381 -0.4820
    7MOL   H260 4352   0.075   1.845   4.970 -1.7151 -0.7505 -0.2632
    7MOL   H261 4353   0.032   2.011   4.929 -0.5724 -0.1692 -0.5987
    7MOL   H262 4354   7.527   1.954   5.051  0.9190  0.8705 -0.1622
    7MOL   H263 4355   7.566   1.783   5.035  0.7905 -0.2747  1.7440
    7MOL   H264 4356   7.434   1.867   4.820  0.1405  1.9565 -3.0947
    7MOL   H265 4357   7.578   1.943   4.773  0.1407 -0.6677 -0.1851
    7MOL   H266 4358   7.533   1.667   4.852  0.4910 -0.1660 -0.8425
    7MOL   H267 4359   7.697   1.712   4.792  0.4013  0.5546 -0.4991
    7MOL   H268 4360   7.436   1.726   4.618  0.4806 -0.5768 -2.7113
    7MOL   H269 4361   7.592   1.792   4.575 -0.1331  0.1258 -0.4549
    7MOL   H270 4362   7.547   1.500   4.611 -0.1560 -0.5263 -0.6005
    7MOL   H271 4363   7.709   1.581   4.585  0.0402 -1.2138 -0.7342
    7MOL   H272 4364   7.625   1.482   4.363  1.8079 -0.2239  0.6919
    7MOL   H273 4365   7.630   1.653   4.356 -1.4379  0.9969 -0.0567
    7MOL   N274 4366   7.396   1.641   4.260 -0.5555  0.3622  0.1914
    7MOL   C275 4367   7.265   1.643   4.191  0.4510 -1.0072 -0.5973
    7MOL   C276 4368   7.191   1.774   4.228 -0.1935 -0.1179  0.0800
    7MOL   C277 4369   7.053   1.782   4.167 -0.0298 -0.3379  0.2981
    7MOL   C278 4370   6.968   1.906   4.212  0.5333  0.2594 -0.0237
    7MOL   C279 4371   6.833   1.902   4.146 -0.1443  0.0518  0.3128
    7MOL   C280 4372   6.756   2.038   4.174  0.5583  0.4850 -0.0431
    7MOL   C281 4373   6.615   2.032   4.106  0.2712 -0.8316 -0.1974
    7MOL   C282 4374   6.493   1.978   4.185  0.3001  0.1302  0.2217
    7MOL   C283 4375   6.453   1.835   4.148  0.2345 -0.7453  0.0147
    7MOL   C284 4376   6.308   1.809   4.198 -0.3758 -0.1794 -0.3695
    7MOL   C285 4377   6.276   1.664   4.223 -0.1772  0.4249  0.5008
    7MOL   O286 4378   6.334   1.576   4.156 -0.1720  0.0208 -0.2591
    7MOL   H287 4379   7.464   1.710   4.233  1.1706 -1.0037  0.9010
    7MOL   H288 4380   7.208   1.555   4.224 -0.2278  0.5049  2.4356
    7MOL   H289 4381   7.292   1.648   4.086  0.9319  0.0554 -0.4285
    7MOL   H290 4382   7.246   1.864   4.199  1.0300 -0.5810  0.9094
    7MOL   H291 4383   7.178   1.773   4.336 -1.6572 -0.8813 -0.0967
    7MOL   H292 4384   7.061   1.781   4.058  0.2491 -0.5318  0.3208
    7MOL   H293 4385   6.994   1.697   4.200  0.1893 -0.2579  0.8881
    7MOL   H294 4386   7.021   2.000   4.195 -0.5555  1.0325  0.8355
    7MOL   H295 4387   6.963   1.924   4.319  3.3912  0.2759  0.1268
    7MOL   H296 4388   6.768   1.821   4.179  1.0165 -1.7093 -1.5950
    7MOL   H297 4389   6.852   1.884   4.040 -0.5996  1.0270  0.0561
    7MOL   H298 4390   6.748   2.072   4.277 -2.3731  0.1817 -0.1213
    7MOL   H299 4391   6.818   2.107   4.117 -1.3976  1.0191 -1.5637
    7MOL   H300 4392   6.630   1.964   4.022  0.0460  0.7275 -1.5424
    7MOL   H301 4393   6.596   2.129   4.060  3.3176 -0.6026 -1.1464
    7MOL   H302 4394   6.498   1.977   4.294  0.5161 -0.6828  0.2121
    7MOL   H303 4395   6.412   2.047   4.162  0.1542  0.0776  0.5681
    7MOL   H304 4396   6.536   1.767   4.169  1.2225  0.6515  0.7091
    7MOL   H305 4397   6.443   1.844   4.040 -1.3622  0.3812  0.2320
    7MOL   H306 4398   6.240   1.833   4.116  1.3080  0.3204 -1.6533
    7MOL   H307 4399   6.280   1.881   4.275  2.7784 -0.3164  0.9668
    7MOL   N308 4400   6.186   1.636   4.319 -0.4274  0.2327  0.2346
    7MOL   C309 4401   6.163   1.500   4.367  0.1524 -0.6768  0.4085
    7MOL   C310 4402   6.045   1.492   4.464  0.0152  0.5465  0.2720
    7MOL   C311 4403   6.023   1.350   4.510  0.2887 -0.4759 -0.4884
    7MOL   C312 4404   5.899   1.342   4.610 -0.5789 -0.6576  0.2776
    7MOL   C313 4405   5.889   1.213   4.690 -0.1118  0.0871 -0.2708
    7MOL   C314 4406   6.012   1.166   4.764  0.2889 -0.1832  0.2395
    7MOL   C315 4407   5.976   1.063   4.874  0.2644  0.0209 -0.0183
    7MOL   C316 4408   6.096   0.999   4.950 -0.6722  0.5516  0.5971
    7MOL   C317 4409   6.043   0.891   5.048 -0.4609  0.1675 -0.2525
    7MOL   C318 4410   6.164   0.817   5.108 -0.0844 -0.6758  0.2705
    7MOL   C319 4411   6.249   0.907   5.200  0.0072  0.4371 -0.1882
    7MOL   O320 4412   6.194   0.966   5.297  0.5909  0.3028 -0.1613
    7MOL   H321 4413   6.148   1.715   4.369  1.6853  1.5802 -0.2226
    7MOL   H322 4414   6.262   1.471   4.402 -0.0550 -1.5087  0.3192
    7MOL   H323 4415   6.148   1.430   4.284  1.5000 -1.0956  0.5031
    7MOL   H324 4416   5.958   1.546   4.426 -0.4835 -0.0303  0.5917
    7MOL   H325 4417   6.075   1.547   4.553  0.7303  2.8860 -1.3466
    7MOL   H326 4418   6.008   1.285   4.424 -1.5463 -1.9342  0.8873
    7MOL   H327 4419   6.110   1.306   4.558 -0.9928 -0.9329  1.4898
    7MOL   H328 4420   5.808   1.360   4.552  0.5101  0.1801 -1.2288
    7MOL   H329 4421   5.911   1.429   4.674  1.8171 -0.6251 -0.1865
    7MOL   H330 4422   5.855   1.136   4.620  0.8228  0.5367 -1.2256
    7MOL   H331 4423   5.801   1.233   4.752 -0.5780 -0.2620 -0.8125
    7MOL   H332 4424   6.084   1.123   4.695 -0.7334 -0.5514 -0.6196
    7MOL   H333 4425   6.056   1.252   4.814 -1.2785  0.1925  1.0263
    7MOL   H334 4426   5.914   0.986   4.827 -0.0684  0.4005 -0.2022
    7MOL   H335 4427   5.914   1.112   4.948  1.3295  2.7364 -0.8704
    7MOL   H336 4428   6.166   0.963   4.874 -3.1678  0.5618 -1.7745
    7MOL   H337 4429   6.139   1.081   5.007  0.3393  0.9593 -0.7193
    7MOL   H338 4430   5.974   0.824   4.997 -0.6677  0.8179 -0.8366
    7MOL   H339 4431   5.988   0.948   5.122  0.8784  0.5235  0.4944
    7MOL   H340 4432   6.228   0.773   5.032  1.6605  0.7021  0.9010
    7MOL   H341 4433   6.133   0.736   5.173  1.0757 -1.5792 -0.2895
    7MOL   N342 4434   6.379   0.916   5.168 -0.9207 -0.1140 -0.8040
    7MOL   C343 4435   6.471   1.016   5.222 -0.2155  0.5835  0.1077
    7MOL   C344 4436   6.442   1.167   5.188 -0.3271  0.1932 -0.6714
    7MOL   C345 4437   6.423   1.177   5.040 -0.9914  0.0367  0.1192
    7MOL   C346 4438   6.409   1.324   4.997  0.7033 -0.8945  0.3043
    7MOL   C347 4439   6.399   1.328   4.836  1.0280 -0.3784  0.2702
    7MOL   C348 4440   6.373   1.475   4.775  0.5332  0.1015 -0.4908
    7MOL   C349 4441   6.239   1.546   4.822 -0.4294 -0.1432  0.3252
    7MOL   C350 4442   6.241   1.686   4.763 -0.1201  0.1870 -0.0161
    7MOL   C351 4443   6.108   1.761   4.794  0.2562 -0.3257  0.0291
    7MOL   C352 4444   6.119   1.906   4.748 -0.3324 -0.5060  0.6498
    7MOL   C353 4445   6.138   1.928   4.595  0.5113 -0.0217  0.0397
    7MOL   O354 4446   6.128   1.834   4.513  0.0457  0.4849  0.1261
    7MOL   H355 4447   6.409   0.866   5.085 -0.9648  0.9665 -1.4913
    7MOL   H356 4448   6.473   0.995   5.329 -1.8275  0.6839  0.1646
    7MOL   H357 4449   6.571   0.993   5.186  0.2587  0.8745  1.2020
    7MOL   H358 4450   6.503   1.245   5.235 -0.8006  0.2810 -0.1955
    7MOL   H359 4451   6.342   1.190   5.225 -0.3745 -0.9493 -0.0842
    7MOL   H360 4452   6.501   1.132   4.979 -0.5808 -1.0958  1.4598
    7MOL   H361 4453   6.326   1.138   5.011 -0.7507 -1.5868  1.4575
    7MOL   H362 4454   6.496   1.379   5.033  0.0696  0.9871 -0.9442
    7MOL   H363 4455   6.314   1.359   5.039  0.8466  0.7626 -0.6998
    7MOL   H364 4456   6.322   1.257   4.808  0.0650  1.1024 -0.9184
    7MOL   H365 4457   6.488   1.293   4.785  0.7517  1.5083 -1.5805
    7MOL   H366 4458   6.463   1.530   4.804  0.1105  1.0598 -0.9556
    7MOL   H367 4459   6.380   1.464   4.667  0.6637 -0.4437 -0.4266
    7MOL   H368 4460   6.224   1.552   4.929 -2.6535 -1.2508  0.0935
    7MOL   H369 4461   6.159   1.487   4.778  0.3002  1.1368 -2.8574
    7MOL   H370 4462   6.315   1.746   4.816 -0.0285  0.5851 -0.5969
    7MOL   H371 4463   6.268   1.684   4.658  0.7844 -0.8915  0.2324
    7MOL   H372 4464   6.084   1.764   4.900 -0.3642  2.5679 -0.1694
    7MOL   H373 4465   6.019   1.721   4.746 -0.0529  1.0476 -0.5674
    7MOL   H374 4466   6.203   1.951   4.801 -0.3162 -1.8852  1.8331
    7MOL   H375 4467   6.030   1.964   4.772 -0.5019  0.0666 -1.2692
    7MOL   N376 4468   6.156   2.059   4.563 -0.3875 -0.3329  0.0058
    7MOL   C377 4469   6.193   2.104   4.430  0.3621 -0.7441  0.7735
    7MOL   C378 4470   6.252   2.247   4.427  0.3998 -0.5783  0.1091
    7MOL   C379 4471   6.344   2.277   4.305 -0.2875 -0.2625  0.6774
    7MOL   C380 4472   6.404   2.417   4.307  0.0225 -0.3423 -0.6949
    7MOL   C381 4473   6.490   2.454   4.181 -0.1492  0.2895 -0.5027
    7MOL   C382 4474   6.537   2.604   4.186 -0.2114 -0.0655 -0.7180
    7MOL   C383 4475   6.632   2.630   4.069 -0.3239 -0.2210 -0.0836
    7MOL   C384 4476   6.650   2.779   4.027  0.1375  0.5820 -0.8141
    7MOL   C385 4477   6.771   2.787   3.932  0.0544  0.3944  0.4354
    7MOL   C386 4478   6.778   2.932   3.881  0.2746 -0.7109 -0.8399
    7MOL   C387 4479   6.835   3.033   3.979  0.0621  0.2714 -0.4426
    7MOL   O388 4480   6.878   3.012   4.092 -0.2247  0.4057  0.1252
    7MOL   H389 4481   6.152   2.126   4.639  1.6846  1.4946 -1.4460
    7MOL   H390 4482   6.279   2.044   4.403  0.8644  0.5143 -0.5068
    7MOL   H391 4483   6.117   2.104   4.352 -0.4499  0.8477  1.5251
    7MOL   H392 4484   6.314   2.263   4.516 -0.3530  1.2785  0.3251
    7MOL   H393 4485   6.183   2.330   4.420  2.4369  1.1260 -0.3321
    7MOL   H394 4486   6.429   2.210   4.295  1.7337  2.5663 -2.0112
    7MOL   H395 4487   6.290   2.258   4.212 -0.9736 -1.3795  1.2932
    7MOL   H396 4488   6.454   2.433   4.402 -1.9184 -1.9415  0.6243
    7MOL   H397 4489   6.321   2.488   4.310  0.5308  0.2350 -0.1496
    7MOL   H398 4490   6.439   2.435   4.086 -0.4116  0.8036 -0.4647
    7MOL   H399 4491   6.577   2.389   4.172  0.2592  1.0202 -1.9878
    7MOL   H400 4492   6.446   2.664   4.187  0.7306  1.4439  2.5739
    7MOL   H401 4493   6.588   2.614   4.282  0.8476  2.4365 -1.5132
    7MOL   H402 4494   6.593   2.573   3.985 -1.6783  0.5766 -0.0122
    7MOL   H403 4495   6.729   2.587   4.093  0.6361  0.8761 -1.9259
    7MOL   H404 4496   6.560   2.811   3.975  0.5007 -0.5022 -2.1275
    7MOL   H405 4497   6.657   2.846   4.112  2.6887 -2.1036  1.2017
    7MOL   H406 4498   6.756   2.726   3.843 -3.2224  1.3052  0.3124
    7MOL   H407 4499   6.856   2.744   3.985 -1.1068 -1.5245  0.7959
    7MOL   H408 4500   6.689   2.974   3.834 -1.9928 -0.2697  3.5760
    7MOL   H409 4501   6.853   2.928   3.802  0.6427 -0.2840 -0.5158
    7MOL   N410 4502   6.842   3.153   3.929  0.6601 -0.4566 -0.1887
    7MOL   C411 4503   6.933   3.258   3.977  0.2156 -0.4828 -0.3970
    7MOL   C412 4504   6.930   3.378   3.881  0.2704 -0.6048  0.0104
    7MOL   C413 4505   6.985   3.340   3.739  0.5976  0.1363  0.4843
    7MOL   C414 4506   6.973   3.443   3.626 -0.1919  0.3827  0.6577
    7MOL   C415 4507   6.952   3.376   3.491 -1.2451  0.6746 -0.0255
    7MOL   C416 4508   6.911   3.476   3.384  0.5646  0.1484 -0.0286
    7MOL   C417 4509   7.023   3.561   3.320 -0.7129  0.5125  0.3117
    7MOL   C418 4510   6.982   3.641   3.196 -0.2526 -0.2772  0.0562
    7MOL   C419 4511   7.094   3.712   3.105  0.0320 -0.0132  0.5031
    7MOL   C420 4512   7.175   3.820   3.174 -0.2325 -0.2137  0.3130
    7MOL   C421 4513   7.094   3.949   3.187  0.7220 -0.2862 -0.5145
    7MOL   O422 4514   6.966   3.953   3.202  0.3245 -0.0190  0.2301
    7MOL   H423 4515   6.793   3.173   3.843  0.6302  0.2007 -0.0238
    7MOL   H424 4516   6.916   3.300   4.076 -2.9327  1.3593 -1.6678
    7MOL   H425 4517   7.037   3.225   3.979  0.3884  0.0535 -0.3988
    7MOL   H426 4518   6.991   3.462   3.912  0.9684 -0.4669 -1.6995
    7MOL   H427 4519   6.825   3.408   3.881  0.3292 -0.3428  2.1261
    7MOL   H428 4520   7.079   3.285   3.736  0.2509 -0.5460  1.5593
    7MOL   H429 4521   6.927   3.251   3.713  0.8165  0.0634  0.2454
    7MOL   H430 4522   7.060   3.509   3.612 -0.5815  0.8002  0.1802
    7MOL   H431 4523   6.894   3.514   3.647 -0.1216  0.7245 -0.1863
    7MOL   H432 4524   6.882   3.293   3.500 -1.0984  0.6990  1.3545
    7MOL   H433 4525   7.043   3.327   3.454 -1.0969 -0.7738  2.1438
    7MOL   H434 4526   6.873   3.420   3.298  0.2653 -0.2934  0.3867
    7MOL   H435 4527   6.824   3.535   3.413  1.7528  1.0376  1.7990
    7MOL   H436 4528   7.100   3.487   3.300 -1.5252 -0.2047 -0.2116
    7MOL   H437 4529   7.047   3.625   3.405 -0.6893  1.3167 -0.2979
    7MOL   H438 4530   6.913   3.580   3.138  0.4492 -0.2344 -0.8399
    7MOL   H439 4531   6.920   3.722   3.234  1.5962  1.1963  0.0178
    7MOL   H440 4532   7.042   3.748   3.017 -0.1114 -0.6463  0.3286
    7MOL   H441 4533   7.161   3.633   3.072 -0.2229  0.1117 -0.3266
    7MOL   H442 4534   7.254   3.830   3.100 -0.5221  0.4746  0.0958
    7MOL   H443 4535   7.225   3.806   3.270  0.7765  2.4444  0.2276
    7MOL   N444 4536   7.162   4.064   3.182 -0.5292 -0.0864  0.5089
    7MOL   C445 4537   7.099   4.192   3.203  0.2274 -1.0160 -1.7051
    7MOL   C446 4538   7.077   4.222   3.354 -0.7234 -0.5228  0.5631
    7MOL   C447 4539   7.010   4.357   3.388 -0.0507  0.7419 -0.2158
    7MOL   C448 4540   6.999   4.391   3.533 -0.1714  0.0817  0.3239
    7MOL   C449 4541   6.895   4.507   3.567  0.9585  0.1469  0.0830
    7MOL   C450 4542   6.843   4.503   3.718 -0.3939  0.3384 -0.2650
    7MOL   C451 4543   6.771   4.365   3.756 -0.7469  0.1412 -0.8286
    7MOL   C452 4544   6.724   4.346   3.898  0.2225  0.7633 -0.2164
    7MOL   C453 4545   6.652   4.212   3.927 -0.1941  0.0575  0.4021
    7MOL   C454 4546   6.501   4.212   3.887 -0.1124 -0.2864 -0.5983
    7MOL   C455 4547   6.403   4.284   3.976  0.1226  1.1168 -0.4350
    7MOL   O456 4548   6.343   4.217   4.061 -0.4887  0.0174 -0.0051
    7MOL   H457 4549   7.263   4.064   3.181 -0.4691 -3.1824  0.3880
    7MOL   H458 4550   7.170   4.259   3.154 -0.2703  2.2558  1.8186
    7MOL   H459 4551   7.002   4.197   3.154 -1.1046  0.0661  0.9464
    7MOL   H460 4552   7.177   4.224   3.398 -0.8609  0.8003  0.8318
    7MOL   H461 4553   7.026   4.141   3.407 -1.9984  0.9362  1.5915
    7MOL   H462 4554   7.057   4.436   3.329  2.9809 -1.6066 -1.0836
    7MOL   H463 4555   6.912   4.356   3.341  0.0842  0.3738 -0.4909
    7MOL   H464 4556   7.099   4.414   3.569 -0.2446  0.7038  0.1476
    7MOL   H465 4557   6.969   4.294   3.574 -0.7207 -0.3305 -1.0209
    7MOL   H466 4558   6.807   4.502   3.503 -1.2173  0.9164  2.9424
    7MOL   H467 4559   6.944   4.602   3.549 -0.2055  0.4204 -1.7898
    7MOL   H468 4560   6.923   4.527   3.788 -0.0291 -2.6552  0.4388
    7MOL   H469 4561   6.777   4.586   3.739 -0.6081 -0.5462  2.7609
    7MOL   H470 4562   6.839   4.280   3.745  0.9379  1.2440  0.6699
    7MOL   H471 4563   6.688   4.352   3.688 -0.6441 -2.1013 -0.5649
    7MOL   H472 4564   6.812   4.358   3.960 -1.1773 -1.5136  2.3318
    7MOL   H473 4565   6.671   4.431   3.940 -0.7588  0.0284  0.0419
    7MOL   H474 4566   6.663   4.192   4.033  0.8985  1.9881  0.6859
    7MOL   H475 4567   6.704   4.128   3.881  0.1121  0.2795  0.3444
    7MOL   H476 4568   6.458   4.115   3.863 -1.8904  1.0949 -3.2279
    7MOL   H477 4569   6.492   4.259   3.790 -1.8715  0.2202 -0.2150
    7MOL   N478 4570   6.375   4.413   3.949  0.0109  0.4941  0.2344
    7MOL   C479 4571   6.263   4.485   4.004  0.3209  0.0205 -0.4830
    7MOL   C480 4572   6.319   4.587   4.104 -0.1757  0.3899 -0.0785
    7MOL   C481 4573   6.206   4.683   4.149  0.4786  0.4404  0.5073
    7MOL   C482 4574   6.131   4.623   4.270 -0.3791  0.3382 -0.3578
    7MOL   C483 4575   6.015   4.706   4.335 -0.4424 -0.0855  0.6264
    7MOL   C484 4576   6.052   4.823   4.428 -0.2485 -0.4345 -0.2826
    7MOL   C485 4577   5.932   4.904   4.480 -0.3600 -0.1378 -0.3272
    7MOL   C486 4578   5.977   5.021   4.562  0.0046 -0.1101 -0.0687
    7MOL   C487 4579   5.876   5.126   4.607 -0.2525  0.3046 -0.4816
    7MOL   C488 4580   5.780   5.086   4.733  0.1778 -0.0290  0.1300
    7MOL   C489 4581   5.847   5.059   4.861 -0.8999  0.4339  0.1713
    7MOL   O490 4582   5.952   5.123   4.885  0.2094 -0.7356  0.5635
    7MOL   H491 4583   6.418   4.454   3.868  1.4306 -1.0418  0.1939
    7MOL   H492 4584   6.211   4.528   3.918  0.3631  1.6812  0.3151
    7MOL   H493 4585   6.192   4.418   4.053 -0.6455 -0.4893 -2.5165
    7MOL   H494 4586   6.402   4.645   4.063 -0.2602  1.8316  1.7284
    7MOL   H495 4587   6.357   4.528   4.187  0.3040  0.6353 -0.1228
    7MOL   H496 4588   6.252   4.771   4.194 -0.5862  1.8372 -1.0698
    7MOL   H497 4589   6.139   4.710   4.068 -1.1644 -1.5743  1.1543
    7MOL   H498 4590   6.211   4.619   4.344  0.1365 -1.3759 -0.9692
    7MOL   H499 4591   6.111   4.517   4.254  2.0602 -0.2096  0.0345
    7MOL   H500 4592   5.958   4.639   4.399 -0.0684 -1.5133 -0.4861
    7MOL   H501 4593   5.949   4.729   4.251  1.3381  0.4735 -0.6423
    7MOL   H502 4594   6.120   4.809   4.512 -0.8079 -0.4781  0.1735
    7MOL   H503 4595   6.104   4.896   4.366  1.0923 -0.4210  0.8448
    7MOL   H504 4596   5.864   4.844   4.541 -1.5031  1.7882  0.3410
    7MOL   H505 4597   5.870   4.948   4.402 -0.8190 -0.3651 -0.0951
    7MOL   H506 4598   6.028   4.977   4.648  0.2940  2.2406  0.9930
    7MOL   H507 4599   6.046   5.075   4.497  0.3326  0.1671  0.5036
    7MOL   H508 4600   5.816   5.149   4.520 -3.4815  0.6444  1.7480
    7MOL   H509 4601   5.943   5.205   4.641  0.5738 -1.1686  1.4759
    7MOL   H510 4602   5.724   5.001   4.693  0.9012 -0.9807  1.0879
    7MOL   H511 4603   5.710   5.169   4.741  0.8127  0.8143 -2.4614
    7MOL   N512 4604   5.794   4.972   4.946 -1.0343  0.1602 -0.3066
    7MOL   C513 4605   5.862   4.931   5.071  0.6150  0.2447  0.5056
    7MOL   C514 4606   5.802   5.001   5.198  0.4314  0.3118 -0.0766
    7MOL   C515 4607   5.827   5.159   5.198 -0.6392  0.5323  0.3313
    7MOL   C516 4608   5.805   5.217   5.337  0.1161  0.6730  0.1092
    7MOL   C517 4609   5.873   5.357   5.345  0.0570  0.6841 -0.9623
    7MOL   C518 4610   5.768   5.467   5.320 -0.0721 -0.7768 -0.4449
    7MOL   C519 4611   5.826   5.607   5.301 -0.7411 -0.8092 -0.2713
    7MOL   C520 4612   5.723   5.717   5.318 -0.4470  0.1684 -0.4488
    7MOL   C521 4613   5.770   5.856   5.290 -0.1664  0.2483  0.2163
    7MOL   C522 4614   5.907   5.899   5.351 -0.0953  0.7469  0.1273
    7MOL   C523 4615   5.924   5.912   5.502 -0.3407 -0.2894 -0.0696
    7MOL   O524 4616   5.846   5.968   5.575 -0.4471 -0.2817  0.0220
    7MOL   H525 4617   5.723   4.910   4.910  0.6550 -0.9790 -1.8344
    7MOL   H526 4618   5.846   4.824   5.085 -0.1227  0.3312  0.3566
    7MOL   H527 4619   5.969   4.949   5.071  0.8878 -1.2555  2.6792
    7MOL   H528 4620   5.854   4.956   5.283  0.1226  0.0991 -0.0004
    7MOL   H529 4621   5.696   4.985   5.216  0.9860 -2.0496  1.2819
    7MOL   H530 4622   5.924   5.182   5.156 -0.6473  1.8796  1.0233
    7MOL   H531 4623   5.756   5.201   5.127 -0.5556 -0.7091 -0.5045
    7MOL   H532 4624   5.862   5.159   5.409 -1.8116 -0.9477  0.3567
    7MOL   H533 4625   5.702   5.214   5.373  0.9476  0.0251  2.4814
    7MOL   H534 4626   5.951   5.361   5.269  1.1162 -3.6965 -0.2439
    7MOL   H535 4627   5.917   5.377   5.443 -2.1522 -0.2931  0.2654
    7MOL   H536 4628   5.700   5.443   5.238  0.4914 -1.7649 -0.6414
    7MOL   H537 4629   5.691   5.476   5.396 -0.1909 -1.3479 -0.4938
    7MOL   H538 4630   5.880   5.615   5.207  1.8294  2.8649  1.3689
    7MOL   H539 4631   5.908   5.629   5.370 -1.0337 -0.7499  0.0574
    7MOL   H540 4632   5.644   5.690   5.248 -1.0390  1.6990 -0.3750
    7MOL   H541 4633   5.682   5.725   5.418 -0.2057  0.3642 -0.3653
    7MOL   H542 4634   5.693   5.929   5.318 -2.6206 -3.0585  2.5364
    7MOL   H543 4635   5.777   5.851   5.182  1.6218  2.7295  0.1737
    7MOL   H544 4636   5.926   5.996   5.305 -0.5823  0.1453 -1.3948
    7MOL   H545 4637   5.985   5.839   5.305 -0.4310  0.2200  0.2419
    7MOL   N546 4638   6.034   5.856   5.549  0.1248  0.6862  0.1459
    7MOL   C547 4639   6.078   5.838   5.687  0.3267 -0.1234 -0.0523
    7MOL   C548 4640   5.994   5.724   5.756  0.2593 -0.0101 -0.1795
    7MOL   C549 4641   6.039   5.582   5.714  0.5706 -0.1529 -0.2074
    7MOL   C550 4642   6.016   5.466   5.819 -0.8035  0.0385 -0.0627
    7MOL   C551 4643   5.864   5.440   5.848 -0.3644  0.3064 -0.5716
    7MOL   C552 4644   5.778   5.370   5.744  0.1406 -0.6347 -0.8755
    7MOL   C553 4645   5.633   5.370   5.792 -0.1242 -0.2238  0.5610
    7MOL   C554 4646   5.537   5.293   5.704 -0.0315  0.0155 -0.8570
    7MOL   C555 4647   5.392   5.300   5.747  0.1890  0.2631 -0.5740
    7MOL   C556 4648   5.341   5.448   5.730  0.1838  0.0712  0.7170
    7MOL   C557 4649   5.191   5.448   5.705 -0.4999  0.5506  0.0418
    7MOL   O558 4650   5.153   5.401   5.600 -0.2375  0.3210  0.3893
    7MOL   H559 4651   6.106   5.852   5.478  0.4262 -0.4550  0.5064
    7MOL   H560 4652   6.185   5.824   5.697  0.1480 -0.7296  1.1241
    7MOL   H561 4653   6.058   5.938   5.725 -0.6143 -0.8481  1.3989
    7MOL   H562 4654   5.894   5.734   5.713 -0.2884 -0.3981  0.9814
    7MOL   H563 4655   5.992   5.738   5.864 -1.1427 -1.7229  0.0313
    7MOL   H564 4656   5.986   5.552   5.624 -1.8440  2.3672  0.3160
    7MOL   H565 4657   6.144   5.587   5.687  0.6100  3.4988  0.4262
    7MOL   H566 4658   6.068   5.485   5.913 -0.0474  2.4838 -0.9557
    7MOL   H567 4659   6.062   5.376   5.778  0.0731 -0.1152  1.2194
    7MOL   H568 4660   5.816   5.531   5.882  0.1371  0.3082  0.1355
    7MOL   H569 4661   5.858   5.378   5.937 -0.5632  2.5188  0.9726
    7MOL   H570 4662   5.795   5.414   5.645  0.2319  0.5196 -0.3439
    7MOL   H571 4663   5.816   5.267   5.743  0.6818 -0.4374 -1.4318
    7MOL   H572 4664   5.601   5.474   5.802  1.9991  0.8222 -2.5701
    7MOL   H573 4665   5.641   5.320   5.888  1.7447 -0.1687  0.4578
    7MOL   H574 4666   5.549   5.323   5.600 -1.2839  0.2237 -0.9545
    7MOL   H575 4667   5.562   5.187   5.702 -2.2368 -0.6425  2.2885
    7MOL   H576 4668   5.377   5.264   5.848 -1.0458  0.1323 -0.7926
    7MOL   H577 4669   5.340   5.230   5.681 -0.1383 -0.3485  0.3259
    7MOL   H578 4670   5.385   5.496   5.643  0.4324 -2.1831 -0.4175
    7MOL   H579 4671   5.367   5.513   5.814  1.4147 -1.8534  1.8650
    7MOL   N580 4672   5.112   5.504   5.798 -0.4165  0.2653 -0.2312
    7MOL   C581 4673   4.966   5.518   5.785 -0.3420  0.0197  0.2692
    7MOL   C582 4674   4.903   5.585   5.908 -0.8906 -0.5345 -1.1097
    7MOL   C583 4675   4.755   5.561   5.928  0.9508  0.0678  0.2339
    7MOL   C584 4676   4.697   5.652   6.038  0.2097  0.1591 -0.1675
    7MOL   C585 4677   4.548   5.641   6.051 -0.5749  0.2523  0.1019
    7MOL   C586 4678   4.495   5.722   6.167 -0.7327 -0.4524  0.2560
    7MOL   C587 4679   4.352   5.683   6.202 -0.0949 -0.6779 -0.5452
    7MOL   C588 4680   4.301   5.775   6.311 -0.1607  0.1508  0.0767
    7MOL   C589 4681   4.161   5.751   6.359  0.1921  0.2441 -0.0252
    7MOL   C590 4682   4.131   5.599   6.388 -0.0874  0.0820 -0.1069
    7MOL   C591 4683   4.020   5.575   6.485 -0.4557 -0.2400 -0.2705
    7MOL   O592 4684   3.936   5.664   6.501 -0.8349  0.1436  0.0890
    7MOL   H593 4685   5.154   5.525   5.888 -0.6857 -0.8615  0.1634
    7MOL   H594 4686   4.922   5.557   5.693  0.6202 -0.4471 -0.3997
    7MOL   H595 4687   4.934   5.414   5.782 -0.2103  0.0094 -1.0331
    7MOL   H596 4688   4.924   5.692   5.898  1.8222 -1.0063 -0.9166
    7MOL   H597 4689   4.963   5.556   5.994 -0.5210 -1.4295 -1.6579
    7MOL   H598 4690   4.705   5.588   5.835  1.9969 -1.3215 -0.7524
    7MOL   H599 4691   4.735   5.456   5.950 -3.5802  0.9491  0.8400
    7MOL   H600 4692   4.730   5.753   6.014 -1.7162  1.0170  0.7497
    7MOL   H601 4693   4.744   5.622   6.132 -0.1845 -2.5014 -0.7649
    7MOL   H602 4694   4.536   5.535   6.073 -0.7033  0.3661  0.5829
    7MOL   H603 4695   4.496   5.662   5.958 -2.7198 -1.7518  0.8139
    7MOL   H604 4696   4.552   5.705   6.258 -0.4704  1.3109  0.4448
    7MOL   H605 4697   4.496   5.829   6.147  0.9032  0.0687  2.8997
    7MOL   H606 4698   4.356   5.583   6.246  1.9219  0.2417  1.4743
    7MOL   H607 4699   4.287   5.685   6.115 -0.0046 -0.2119 -0.6006
    7MOL   H608 4700   4.371   5.767   6.394 -0.1115  0.9038  0.1049
    7MOL   H609 4701   4.296   5.877   6.274  1.0659  0.5302  0.9335
    7MOL   H610 4702   4.090   5.784   6.283  0.9323 -1.2118 -1.3917
    7MOL   H611 4703   4.149   5.817   6.444 -2.1181 -0.4890  0.2500
    7MOL   H612 4704   4.214   5.553   6.443 -0.7518  0.1843  1.0059
    7MOL   H613 4705   4.123   5.547   6.292 -0.2684 -0.4201  0.1760
    7MOL   N614 4706   4.007   5.453   6.535  0.0958 -1.1405 -0.7049
    7MOL   C615 4707   3.882   5.418   6.607 -0.6990  0.2461  0.3453
    7MOL   C616 4708   3.911   5.304   6.702 -0.5510  0.2373  0.1605
    7MOL   C617 4709   4.017   5.349   6.809  0.0925 -0.5475 -0.0907
    7MOL   C618 4710   4.025   5.268   6.933 -0.0551  0.0774  0.0984
    7MOL   C619 4711   4.060   5.118   6.894  0.2533 -0.3220 -0.2981
    7MOL   C620 4712   4.186   5.105   6.808  0.2468 -0.4141  0.0037
    7MOL   C621 4713   4.233   4.959   6.797 -0.4279  0.3456  0.2429
    7MOL   C622 4714   4.375   4.953   6.740  0.7390  0.1487 -0.1449
    7MOL   C623 4715   4.411   4.821   6.669  0.2522 -0.2973 -0.1904
    7MOL   C624 4716   4.559   4.798   6.634 -0.2034  0.4102  0.4407
    7MOL   C625 4717   4.598   4.656   6.594  1.0949 -0.1602 -0.2365
    7MOL   O626 4718   4.521   4.563   6.619  0.5655 -0.3510 -0.6515
    7MOL   H627 4719   4.062   5.381   6.489  2.1731 -0.0760  0.0892
    7MOL   H628 4720   3.821   5.378   6.526 -3.3390  0.7910  2.0019
    7MOL   H629 4721   3.834   5.500   6.661 -0.0716 -0.2460  1.6751
    7MOL   H630 4722   3.945   5.217   6.645  0.9753 -0.1740  1.6679
    7MOL   H631 4723   3.817   5.269   6.745 -1.4732  0.9620 -1.1994
    7MOL   H632 4724   4.111   5.377   6.762  1.4881 -0.3934  2.6338
    7MOL   H633 4725   3.974   5.445   6.839 -0.1039 -0.9486  0.9465
    7MOL   H634 4726   3.935   5.280   6.993 -0.3990 -1.3889 -0.0920
    7MOL   H635 4727   4.109   5.299   6.994  0.2016  1.8464 -1.1139
    7MOL   H636 4728   3.971   5.072   6.852  0.3574  0.0365 -0.9229
    7MOL   H637 4729   4.076   5.073   6.992  1.3013 -2.3917 -1.3742
    7MOL   H638 4730   4.174   5.146   6.708  1.9079 -1.1832 -0.5227
    7MOL   H639 4731   4.266   5.165   6.852 -0.3517  0.9159 -0.7056
    7MOL   H640 4732   4.158   4.906   6.738 -0.0371 -0.7989  0.7555
    7MOL   H641 4733   4.236   4.908   6.893 -1.0545 -0.3250 -0.0888
    7MOL   H642 4734   4.383   5.034   6.669  3.2552 -0.9084 -1.1227
    7MOL   H643 4735   4.449   4.970   6.819 -0.4041 -1.3830  1.3021
    7MOL   H644 4736   4.349   4.805   6.580 -1.1150  1.4451  0.4320
    7MOL   H645 4737   4.369   4.741   6.730 -1.3767  2.0439  1.8279
    7MOL   H646 4738   4.624   4.815   6.720  0.9857  3.1689 -0.9438
    7MOL   H647 4739   4.571   4.875   6.558 -0.0636  2.2841  2.2883
    7MOL   N648 4740   4.710   4.625   6.533  0.5047  0.0413 -0.2249
    7MOL   C649 4741   4.804   4.723   6.473 -0.6957  0.2510 -0.2234
    7MOL   C650 4742   4.807   4.720   6.320  0.1916 -0.2757  0.7437
    7MOL   C651 4743   4.671   4.757   6.256 -0.0243  0.5555 -0.0628
    7MOL   C652 4744   4.696   4.774   6.100  0.0221  0.0275 -0.5834
    7MOL   C653 4745   4.640   4.668   6.004  0.7358 -0.8047  0.0572
    7MOL   C654 4746   4.737   4.553   5.970  0.6719  0.5860 -0.8619
    7MOL   C655 4747   4.859   4.597   5.898  0.0657  0.1893 -0.0228
    7MOL   C656 4748   4.929   4.484   5.812 -0.3434 -0.8384  0.2438
    7MOL   C657 4749   5.000   4.372   5.893 -0.0810 -0.8048  0.2009
    7MOL   C658 4750   5.068   4.258   5.814 -0.5367 -0.2632  0.4645
    7MOL   C659 4751   5.174   4.308   5.710  0.3860 -0.1313 -0.4590
    7MOL   O660 4752   5.259   4.401   5.726  0.1908  0.3904 -0.2766
    7MOL   H661 4753   4.745   4.530   6.525  0.4464 -0.1071  1.1303
    7MOL   H662 4754   4.905   4.690   6.497 -1.0748 -0.0910  0.9264
    7MOL   H663 4755   4.809   4.824   6.514 -0.6076  0.5400 -0.9362
    7MOL   H664 4756   4.835   4.620   6.286 -1.5954 -0.0929 -1.3779
    7MOL   H665 4757   4.881   4.794   6.290  0.1940 -0.1075  1.1601
    7MOL   H666 4758   4.604   4.676   6.283  1.2538 -1.4575 -2.6604
    7MOL   H667 4759   4.639   4.853   6.298  1.2982  1.9595 -2.1496
    7MOL   H668 4760   4.800   4.798   6.080  0.3763 -1.2800 -0.3670
    7MOL   H669 4761   4.629   4.858   6.080 -2.3581 -1.2653  1.6090
    7MOL   H670 4762   4.594   4.718   5.919  1.6536  1.9344  1.1132
    7MOL   H671 4763   4.561   4.614   6.057 -1.4739  0.4481 -1.8731
    7MOL   H672 4764   4.757   4.490   6.057 -0.3572 -0.0148 -1.0518
    7MOL   H673 4765   4.675   4.490   5.907 -0.0570 -0.6477  1.0297
    7MOL   H674 4766   4.930   4.638   5.969  1.3986 -1.1518 -0.5499
    7MOL   H675 4767   4.818   4.669   5.827 -1.4895  0.4092  1.0779
    7MOL   H676 4768   4.859   4.447   5.738  1.4342 -2.2803 -0.7579
    7MOL   H677 4769   5.003   4.531   5.747 -0.1742 -0.3900  0.7481
    7MOL   H678 4770   4.933   4.328   5.968 -0.2300 -0.5662  0.2096
    7MOL   H679 4771   5.072   4.428   5.953 -0.5183  0.7983 -0.7365
    7MOL   H680 4772   5.000   4.185   5.771  0.0761 -1.3758  1.3425
    7MOL   H681 4773   5.122   4.203   5.892  0.2633  1.2442  1.0145
    7MOL   H682 4774   5.168   4.251   5.617 -3.9278 -2.0926  0.8633
    8MOL     N1 4775   3.509   0.157   2.075 -0.1164 -0.6099  0.1945
    8MOL     C2 4776   3.371   0.110   2.051  0.1066  0.7474  0.3271
    8MOL     C3 4777   3.286   0.126   2.179  0.4749  0.3308 -0.3158
    8MOL     C4 4778   3.150   0.071   2.141 -1.1485 -0.6545  0.0964
    8MOL     C5 4779   3.051   0.092   2.253  0.0407  0.3160  0.1479
    8MOL     C6 4780   2.904   0.051   2.218  0.2707 -0.2994  0.1034
    8MOL     C7 4781   2.812   0.035   2.342  0.3412 -0.1908 -0.7561
    8MOL     C8 4782   2.657   0.038   2.313 -0.3088 -1.2253 -0.4449
    8MOL     C9 4783   2.608   7.640   2.230 -0.1515 -0.6220 -0.3405
    8MOL    C10 4784   2.465   7.624   2.258 -0.3992 -0.8619 -0.5408
    8MOL    C11 4785   2.403   7.499   2.185  0.5428 -0.5278  0.4265
    8MOL    C12 4786   2.380   7.528   2.036 -0.6022 -0.1455  0.0702
    8MOL    O13 4787   2.280   7.594   2.003 -0.5649 -0.1214 -0.0473
    8MOL    H14 4788   3.568   0.090   2.123  1.7789 -0.7848 -2.2547
    8MOL    H15 4789   3.378   0.009   2.013  4.0731  1.3059 -0.6316
    8MOL    H16 4790   3.332   0.175   1.972 -2.6894 -0.3908  0.6879
    8MOL    H17 4791   3.277   0.230   2.208  1.5336  0.0297  1.1543
    8MOL    H18 4792   3.327   0.064   2.259  1.1084 -1.2305 -1.8111
    8MOL    H19 4793   3.104   0.108   2.050 -0.9624 -0.6105  0.0209
    8MOL    H20 4794   3.149   7.679   2.125 -0.4320 -0.9899  2.1204
    8MOL    H21 4795   3.048   0.199   2.272  2.1648  0.4563 -0.1608
    8MOL    H22 4796   3.080   0.035   2.341  2.7037 -0.7646 -1.3428
    8MOL    H23 4797   2.907   7.671   2.166  2.4459 -1.2278  1.8676
    8MOL    H24 4798   2.870   0.124   2.144  1.2785  0.1458  0.0708
    8MOL    H25 4799   2.832   7.657   2.395  0.8201 -0.5520 -1.5656
    8MOL    H26 4800   2.844   0.111   2.413 -1.3909  0.7769 -0.9951
    8MOL    H27 4801   2.625   0.129   2.264 -0.6447 -0.6453  0.8440
    8MOL    H28 4802   2.597   0.043   2.404 -0.1303  2.6949 -0.4532
    8MOL    H29 4803   2.623   7.647   2.122 -0.0841  0.4081 -0.2728
    8MOL    H30 4804   2.658   7.550   2.265 -0.2748 -0.5108  0.1292
    8MOL    H31 4805   2.410   7.712   2.224  0.0963 -0.5486 -0.5348
    8MOL    H32 4806   2.447   7.612   2.364  0.4231 -0.4582 -0.3577
    8MOL    H33 4807   2.301   7.489   2.224 -0.1797 -0.6376 -1.4570
    8MOL    H34 4808   2.464   7.409   2.196  1.2631 -0.1187 -0.2000
    8MOL    H35 4809   3.554   0.151   1.985  0.4429 -0.6959  0.4748
    8MOL    N36 4810   2.471   7.481   1.947  0.1884 -0.1263 -0.2182
    8MOL    C37 4811   2.469   7.509   1.808  0.6580 -0.3916  0.4009
    8MOL    C38 4812   2.363   7.424   1.736 -0.0152  1.3903 -0.3598
    8MOL    C39 4813   2.372   7.417   1.588  0.0711 -0.0942 -0.1863
    8MOL    C40 4814   2.289   7.292   1.531 -0.0514 -0.4251 -0.4131
    8MOL    C41 4815   2.249   7.285   1.381  0.4715 -0.2473  0.1674
    8MOL    C42 4816   2.174   7.152   1.362 -0.1305 -0.1824  0.4678
    8MOL    C43 4817   2.260   7.037   1.312  0.1528 -0.1865 -0.7567
    8MOL    C44 4818   2.158   6.912   1.300  0.1574 -0.3670 -0.5123
    8MOL    C45 4819   2.219   6.791   1.227  0.1263  0.2697 -1.1553
    8MOL    C46 4820   2.105   6.705   1.176  0.2940 -0.5198  0.0220
    8MOL    C47 4821   2.144   6.562   1.139 -0.0845 -0.7585  0.0497
    8MOL    O48 4822   2.262   6.536   1.108  0.1421  0.6478 -0.0193
    8MOL    H49 4823   2.557   7.437   1.977  1.1981  2.7275  1.2532
    8MOL    H50 4824   2.465   7.617   1.790  4.0342 -0.1060  1.0781
    8MOL    H51 4825   2.564   7.473   1.770  0.5316  0.7838 -1.0895
    8MOL    H52 4826   2.267   7.462   1.769  0.3559  0.9303  1.2940
    8MOL    H53 4827   2.359   7.322   1.775 -1.6861  1.9689  1.0094
    8MOL    H54 4828   2.336   7.511   1.547 -2.9183 -0.9686  0.3081
    8MOL    H55 4829   2.476   7.421   1.556  0.2851 -1.2176  0.3503
    8MOL    H56 4830   2.192   7.290   1.583 -0.2763 -1.9600 -0.8772
    8MOL    H57 4831   2.338   7.197   1.547  2.3017  0.9360  0.6753
    8MOL    H58 4832   2.331   7.308   1.314 -0.1461  0.2867 -0.4024
    8MOL    H59 4833   2.176   7.355   1.341  0.7604 -0.8803 -1.4876
    8MOL    H60 4834   2.135   7.126   1.461  1.7552 -0.3356  1.1898
    8MOL    H61 4835   2.085   7.156   1.300  0.5677 -0.4491 -0.5669
    8MOL    H62 4836   2.337   7.008   1.383 -0.2928 -1.6228 -0.8380
    8MOL    H63 4837   2.292   7.055   1.210  0.3945 -0.4311 -0.7237
    8MOL    H64 4838   2.115   6.898   1.400  0.3906 -0.8314 -0.4758
    8MOL    H65 4839   2.068   6.942   1.246  0.2562 -0.2106 -0.5852
    8MOL    H66 4840   2.272   6.737   1.304  1.5591  3.2969  0.0652
    8MOL    H67 4841   2.287   6.821   1.147 -0.2646 -1.0773 -2.0040
    8MOL    H68 4842   2.073   6.755   1.085  1.9364  3.0591  1.3081
    8MOL    H69 4843   2.024   6.701   1.250 -0.0887  0.8711 -0.2987
    8MOL    N70 4844   2.052   6.468   1.152 -0.4358 -0.4632  0.4268
    8MOL    C71 4845   2.070   6.324   1.122  0.3319 -0.3391 -0.1482
    8MOL    C72 4846   1.951   6.237   1.144 -0.3448  0.7326 -0.0593
    8MOL    C73 4847   1.999   6.086   1.125 -1.2669 -0.1253 -0.1611
    8MOL    C74 4848   1.902   5.971   1.153 -0.4609  0.3469 -0.5364
    8MOL    C75 4849   1.945   5.830   1.091 -0.3781 -0.1867  0.3371
    8MOL    C76 4850   2.040   5.736   1.167  0.1592  0.4074  0.3217
    8MOL    C77 4851   2.186   5.790   1.193 -0.2335 -0.4819  0.1479
    8MOL    C78 4852   2.286   5.696   1.258  0.4368  0.3014 -0.1518
    8MOL    C79 4853   2.422   5.754   1.285  0.2518 -0.6821 -0.1636
    8MOL    C80 4854   2.470   5.806   1.156 -1.2186 -0.2836 -0.2129
    8MOL    C81 4855   2.622   5.816   1.160 -0.1975  1.2346  0.1146
    8MOL    O82 4856   2.697   5.734   1.224  0.4556  0.3628  0.1296
    8MOL    H83 4857   1.963   6.504   1.182 -1.4514 -0.9567 -1.8986
    8MOL    H84 4858   2.078   6.327   1.014  0.8744  0.3009 -0.0972
    8MOL    H85 4859   2.159   6.287   1.174 -0.6511  1.5961  3.0401
    8MOL    H86 4860   1.871   6.265   1.076 -0.4976  0.0295 -0.1713
    8MOL    H87 4861   1.920   6.255   1.247  0.3127 -2.0971  0.6980
    8MOL    H88 4862   2.042   6.078   1.025  1.2830  2.2075  0.6956
    8MOL    H89 4863   2.085   6.081   1.192  1.1047  1.9271 -2.8747
    8MOL    H90 4864   1.806   5.999   1.110 -0.9441 -3.1171 -1.8275
    8MOL    H91 4865   1.874   5.953   1.257 -1.8616  0.2287 -0.9271
    8MOL    H92 4866   1.967   5.832   0.985  2.4707 -2.3567  0.8078
    8MOL    H93 4867   1.848   5.780   1.093 -0.4837  0.0428  2.2165
    8MOL    H94 4868   1.981   5.690   1.246  0.3468 -1.9645 -0.8925
    8MOL    H95 4869   2.048   5.656   1.093 -0.3505  1.4683 -0.9133
    8MOL    H96 4870   2.183   5.879   1.254 -2.9456 -1.0709  0.9466
    8MOL    H97 4871   2.222   5.824   1.096  0.7491  0.6534  0.9048
    8MOL    H98 4872   2.245   5.652   1.349 -2.3985  1.8510 -0.6244
    8MOL    H99 4873   2.300   5.615   1.186  2.6259  1.3882 -0.9691
    8MOL   H100 4874   2.484   5.669   1.314  1.8434  0.8321  1.0433
    8MOL   H101 4875   2.411   5.830   1.363  1.3262 -0.0146 -0.6442
    8MOL   H102 4876   2.413   5.892   1.121  0.2358  1.0540  0.6434
    8MOL   H103 4877   2.445   5.731   1.080  0.1537 -0.9567 -0.0140
    8MOL   N104 4878   2.669   5.928   1.102  0.3129 -0.2949 -0.0886
    8MOL   C105 4879   2.812   5.952   1.086 -0.1699  0.1814 -0.6185
    8MOL   C106 4880   2.865   6.018   0.957  0.4438  0.2906  0.6130
    8MOL   C107 4881   3.002   6.087   0.968 -0.1145 -0.1931 -0.3121
    8MOL   C108 4882   3.025   6.175   0.837  0.8853 -0.0251 -0.1187
    8MOL   C109 4883   3.156   6.258   0.832 -0.4480 -0.2344  0.5798
    8MOL   C110 4884   3.140   6.397   0.901  0.0009  0.0644  0.4011
    8MOL   C111 4885   3.276   6.462   0.942  0.2718 -0.0642 -0.3398
    8MOL   C112 4886   3.340   6.423   1.077  0.2213  0.0601 -0.1577
    8MOL   C113 4887   3.454   6.524   1.121 -0.2879  0.4136 -0.3862
    8MOL   C114 4888   3.417   6.671   1.150  0.3769  0.0356  0.5488
    8MOL   C115 4889   3.332   6.669   1.276 -0.7769 -0.2993 -0.5934
    8MOL   O116 4890   3.397   6.681   1.384 -0.0247  0.3071 -0.4189
    8MOL   H117 4891   2.606   6.005   1.083 -0.9022 -0.5006  2.8994
    8MOL   H118 4892   2.831   6.026   1.164 -0.4113  0.8804 -1.2164
    8MOL   H119 4893   2.875   5.866   1.109  2.2223  1.5390 -1.9109
    8MOL   H120 4894   2.790   6.090   0.924  0.3183  0.4329  1.1939
    8MOL   H121 4895   2.869   5.948   0.874  1.1177  2.6658 -1.4359
    8MOL   H122 4896   3.019   6.154   1.052  1.2018 -0.8122 -0.0779
    8MOL   H123 4897   3.088   6.023   0.988  0.3238  0.6974  0.7307
    8MOL   H124 4898   2.941   6.240   0.815  0.9139  0.5146  1.2608
    8MOL   H125 4899   3.022   6.105   0.754  1.4006  0.9916 -0.9915
    8MOL   H126 4900   3.170   6.280   0.727  0.3693  0.6429  0.8628
    8MOL   H127 4901   3.241   6.200   0.869 -0.4905 -0.4221  0.3859
    8MOL   H128 4902   3.098   6.459   0.822  3.6994  2.4532  0.1909
    8MOL   H129 4903   3.077   6.421   0.987 -1.2849  3.2672 -1.3354
    8MOL   H130 4904   3.241   6.565   0.949  0.4016  0.2339 -3.4276
    8MOL   H131 4905   3.354   6.445   0.868  0.4697  0.3095 -0.2207
    8MOL   H132 4906   3.267   6.406   1.156  0.7647  0.5976  0.4680
    8MOL   H133 4907   3.383   6.324   1.064  0.3353  0.1631 -0.5770
    8MOL   H134 4908   3.531   6.525   1.044 -1.1346 -0.9982 -1.2650
    8MOL   H135 4909   3.505   6.480   1.207 -0.4613 -2.4765 -1.6957
    8MOL   H136 4910   3.357   6.700   1.065 -0.7831 -1.8157  0.7169
    8MOL   H137 4911   3.501   6.741   1.147  0.9167 -0.6715 -1.1794
    8MOL   N138 4912   3.207   6.637   1.262  0.7407 -0.5739 -0.1724
    8MOL   C139 4913   3.111   6.599   1.362  0.1893 -0.3316  0.2207
    8MOL   C140 4914   3.069   6.448   1.347  0.3301 -0.5756 -0.0685
    8MOL   C141 4915   2.954   6.406   1.442 -0.0052  0.2494 -0.1238
    8MOL   C142 4916   2.907   6.264   1.417 -0.1139  0.9650 -0.0325
    8MOL   C143 4917   2.778   6.228   1.491  0.2859  0.0524  0.5298
    8MOL   C144 4918   2.777   6.239   1.642  0.0084  0.4101  1.2193
    8MOL   C145 4919   2.643   6.207   1.708 -0.5163  0.5056  0.2892
    8MOL   C146 4920   2.652   6.234   1.861 -0.4499  0.0838 -0.3102
    8MOL   C147 4921   2.524   6.191   1.932  0.2463  0.2285  0.2872
    8MOL   C148 4922   2.416   6.308   1.930 -0.3297 -0.7257 -0.2993
    8MOL   C149 4923   2.307   6.283   2.034  0.0894  0.9078  0.8749
    8MOL   O150 4924   2.323   6.297   2.151  0.3895 -0.2796 -0.1904
    8MOL   H151 4925   3.177   6.657   1.168  0.9157  2.0707  0.2874
    8MOL   H152 4926   3.146   6.619   1.463  0.7657  1.2278 -0.2844
    8MOL   H153 4927   3.024   6.665   1.357  1.0242  0.7440 -0.3505
    8MOL   H154 4928   3.160   6.390   1.354  0.9382  0.2901 -0.6026
    8MOL   H155 4929   3.052   6.431   1.240 -0.1858 -1.3231  0.1301
    8MOL   H156 4930   2.983   6.417   1.547 -1.1215 -0.8053  0.3055
    8MOL   H157 4931   2.865   6.467   1.432 -0.4546 -0.6783 -1.8961
    8MOL   H158 4932   2.992   6.200   1.442 -0.9617 -0.7994 -1.5258
    8MOL   H159 4933   2.886   6.244   1.312 -0.0655 -4.8582  0.9097
    8MOL   H160 4934   2.742   6.130   1.460  0.5435 -0.1344  0.8165
    8MOL   H161 4935   2.706   6.301   1.454  0.8496  0.6477  0.5902
    8MOL   H162 4936   2.852   6.178   1.693  0.3718 -0.6980 -0.5952
    8MOL   H163 4937   2.783   6.347   1.660 -2.6268  1.1185 -1.6379
    8MOL   H164 4938   2.615   6.103   1.694 -0.9932 -0.0116  4.5048
    8MOL   H165 4939   2.568   6.269   1.658  0.2954  0.8638 -0.4871
    8MOL   H166 4940   2.739   6.183   1.905 -0.6266  1.1949  1.3871
    8MOL   H167 4941   2.664   6.341   1.880 -0.2064 -0.2247  1.3807
    8MOL   H168 4942   2.555   6.159   2.031  0.0045  1.8539  0.9046
    8MOL   H169 4943   2.484   6.101   1.886  0.3833  0.5747 -0.5093
    8MOL   H170 4944   2.386   6.322   1.826  0.3117  1.8787 -0.1499
    8MOL   H171 4945   2.473   6.398   1.952  0.2813 -0.9625 -0.9186
    8MOL   N172 4946   2.193   6.248   1.977  0.1167 -0.1083 -0.3622
    8MOL   C173 4947   2.067   6.226   2.044  0.5605 -0.5118  0.3801
    8MOL   C174 4948   2.004   6.364   2.074  0.4281 -0.4703  0.0458
    8MOL   C175 4949   1.853   6.353   2.106 -1.2865 -0.3836 -0.1521
    8MOL   C176 4950   1.794   6.477   2.185 -0.2022 -0.1656 -0.3062
    8MOL   C177 4951   1.640   6.463   2.190 -0.1967 -0.0048 -0.3743
    8MOL   C178 4952   1.579   6.562   2.290 -0.2176  0.2425 -0.1591
    8MOL   C179 4953   1.429   6.553   2.298  0.9317  0.3760 -0.0283
    8MOL   C180 4954   1.371   6.639   2.410  0.2771  0.1745  0.2093
    8MOL   C181 4955   1.214   6.628   2.407 -0.1823  0.0220 -0.0582
    8MOL   C182 4956   1.142   6.722   2.498 -0.1724  0.2042 -0.1407
    8MOL   C183 4957   1.165   6.868   2.471  0.2863  0.5065  0.5595
    8MOL   O184 4958   1.186   6.910   2.357 -0.0775 -0.2349  0.0234
    8MOL   H185 4959   2.179   6.288   1.885 -1.1446  0.2080 -0.0467
    8MOL   H186 4960   2.007   6.164   1.977  0.1310 -0.3472  0.6152
    8MOL   H187 4961   2.088   6.148   2.118  1.2221 -1.2982 -0.6107
    8MOL   H188 4962   2.018   6.435   1.993  0.0540  0.4155  0.7539
    8MOL   H189 4963   2.055   6.410   2.158  0.8538 -2.2093  0.7761
    8MOL   H190 4964   1.794   6.352   2.015 -1.2788  1.3697 -0.1977
    8MOL   H191 4965   1.831   6.262   2.162  2.4572 -2.0094 -1.1927
    8MOL   H192 4966   1.819   6.569   2.130 -0.6087 -0.5253 -1.1002
    8MOL   H193 4967   1.831   6.478   2.287 -2.9409 -0.5427  0.7141
    8MOL   H194 4968   1.610   6.360   2.209 -1.5317  0.6267  0.9564
    8MOL   H195 4969   1.604   6.484   2.089  0.2309  0.6352 -0.3987
    8MOL   H196 4970   1.617   6.551   2.391  0.6879  1.1685 -0.3939
    8MOL   H197 4971   1.603   6.666   2.270 -2.3313  0.5747 -1.0898
    8MOL   H198 4972   1.385   6.455   2.314 -0.7106  1.3696  1.8330
    8MOL   H199 4973   1.382   6.579   2.203 -1.1600  0.5618  1.0237
    8MOL   H200 4974   1.419   6.618   2.506 -0.5697 -0.5767  0.4785
    8MOL   H201 4975   1.397   6.742   2.386 -0.2620  0.0811 -0.8151
    8MOL   H202 4976   1.193   6.524   2.430  1.1924 -0.2477  0.0108
    8MOL   H203 4977   1.181   6.652   2.306  0.1236 -1.2194 -0.4606
    8MOL   H204 4978   1.181   6.697   2.597 -1.5914  0.9220  0.6051
    8MOL   H205 4979   1.036   6.699   2.492 -0.1322 -0.2342  0.8593
    8MOL   N206 4980   1.151   6.946   2.579 -0.0058  0.0489  0.1067
    8MOL   C207 4981   1.191   7.090   2.584  0.7191  0.3249 -0.0486
    8MOL   C208 4982   1.163   7.160   2.719  0.1777  0.3819  0.1523
    8MOL   C209 4983   1.219   7.301   2.724  0.8317 -1.2203 -0.3304
    8MOL   C210 4984   1.146   7.401   2.634  0.8801  0.5602 -0.0353
    8MOL   C211 4985   1.111   7.528   2.706 -0.2424  0.2821 -0.0151
    8MOL   C212 4986   1.219   7.617   2.745 -0.1405  0.4208 -0.1031
    8MOL   C213 4987   1.293   7.691   2.628  0.2009  0.0669  0.7870
    8MOL   C214 4988   1.428   0.043   2.664  0.0351  0.1272 -0.4583
    8MOL   C215 4989   1.543   7.648   2.687  0.2928  0.3113 -0.3013
    8MOL   C216 4990   1.683   7.699   2.716  0.4554 -0.2064  0.3896
    8MOL   C217 4991   1.726   0.075   2.608 -0.0628  0.1054  0.7153
    8MOL   O218 4992   1.799   0.032   2.515 -0.0202 -0.1443  0.1753
    8MOL   H219 4993   1.133   6.902   2.668  2.6318 -2.9341 -0.7577
    8MOL   H220 4994   1.138   7.143   2.505 -0.7816 -0.8114  0.1681
    8MOL   H221 4995   1.297   7.101   2.565  1.0975 -1.7018  0.7476
    8MOL   H222 4996   1.215   7.104   2.796  0.9446 -1.2677 -1.5200
    8MOL   H223 4997   1.058   7.166   2.745 -0.5441 -1.7528 -2.0241
    8MOL   H224 4998   1.231   7.338   2.826 -0.3433  2.2546 -1.3829
    8MOL   H225 4999   1.323   7.283   2.699  0.6790  0.2227 -2.1331
    8MOL   H226 5000   1.056   7.359   2.587  1.3953  0.3576 -0.8520
    8MOL   H227 5001   1.207   7.410   2.545 -0.3400 -2.0240 -1.2120
    8MOL   H228 5002   1.054   7.510   2.797 -0.4774 -0.7062 -0.3531
    8MOL   H229 5003   1.043   7.581   2.639 -1.3601 -1.7355 -0.5262
    8MOL   H230 5004   1.192   7.695   2.817 -3.5349 -0.4891 -0.3318
    8MOL   H231 5005   1.283   7.562   2.813 -0.8273  2.0739  1.9411
    8MOL   H232 5006   1.220   0.046   2.587 -2.1321 -0.9928  2.9791
    8MOL   H233 5007   1.309   7.614   2.553  1.8256 -0.9799  2.1921
    8MOL   H234 5008   1.445   0.118   2.587  3.1990 -0.1828 -0.1131
    8MOL   H235 5009   1.418   0.107   2.752 -0.3125 -1.8678  0.9854
    8MOL   H236 5010   1.543   7.591   2.594 -3.4213 -1.3438  0.6222
    8MOL   H237 5011   1.505   7.582   2.765  2.0719 -0.5252 -0.1373
    8MOL   H238 5012   1.755   7.622   2.745  0.3738  0.6258  2.9525
    8MOL   H239 5013   1.684   0.044   2.807  2.3776  2.3326 -1.2710
    8MOL   N240 5014   1.685   0.200   2.613 -0.5606  0.1145  0.1667
    8MOL   C241 5015   1.727   0.307   2.520 -0.0812 -0.1865  0.1371
    8MOL   C242 5016   1.611   0.407   2.503  0.0116  0.7569 -0.0842
    8MOL   C243 5017   1.634   0.529   2.409 -0.2996  0.7657  0.0937
    8MOL   C244 5018   1.649   0.503   2.263 -0.0376  0.0552 -0.1503
    8MOL   C245 5019   1.699   0.627   2.183  0.4893  0.0441 -0.2521
    8MOL   C246 5020   1.724   0.618   2.033  0.3839  0.7422  0.2862
    8MOL   C247 5021   1.604   0.601   1.934  0.7551  0.7877 -0.5283
    8MOL   C248 5022   1.499   0.718   1.926 -0.3125 -0.2822 -0.0104
    8MOL   C249 5023   1.359   0.681   1.871  0.5605 -0.7478 -0.6009
    8MOL   C250 5024   1.273   0.811   1.854  0.2329 -0.5679 -0.5244
    8MOL   C251 5025   1.294   0.877   1.717  0.4224 -0.2372  0.2199
    8MOL   O252 5026   1.402   0.932   1.691 -0.1858  0.7934  0.2806
    8MOL   H253 5027   1.629   0.226   2.692 -1.5207 -1.0426 -0.1169
    8MOL   H254 5028   1.769   0.281   2.423  2.6539  1.9743  0.6694
    8MOL   H255 5029   1.804   0.372   2.563 -2.6965  1.6315  2.2720
    8MOL   H256 5030   1.581   0.435   2.604 -0.1962 -0.2159  0.1220
    8MOL   H257 5031   1.530   0.347   2.461  0.3043  1.1304 -1.2021
    8MOL   H258 5032   1.550   0.598   2.421  0.7910  2.3758 -1.2569
    8MOL   H259 5033   1.725   0.574   2.448 -0.0499 -0.5865  1.0932
    8MOL   H260 5034   1.557   0.459   2.225  1.6309 -2.9114 -0.9012
    8MOL   H261 5035   1.730   0.434   2.239  1.0790  1.4020 -0.3250
    8MOL   H262 5036   1.794   0.664   2.223  1.8269 -0.4710 -2.8339
    8MOL   H263 5037   1.634   0.712   2.198 -1.8714 -1.2286 -2.8886
    8MOL   H264 5038   1.787   0.702   2.002  0.5144 -0.1828 -2.0720
    8MOL   H265 5039   1.776   0.524   2.013  1.4196  1.1565  0.9557
    8MOL   H266 5040   1.552   0.512   1.970  0.5047  1.2495  0.2774
    8MOL   H267 5041   1.638   0.574   1.834  2.7688 -3.3500  1.1325
    8MOL   H268 5042   1.488   0.752   2.029  1.1202  2.2596 -0.6537
    8MOL   H269 5043   1.542   0.801   1.870 -0.3664  1.3967  2.3216
    8MOL   H270 5044   1.301   0.616   1.936  1.3608  2.2767  3.3916
    8MOL   H271 5045   1.378   0.645   1.770  1.3242  0.5873 -0.9479
    8MOL   H272 5046   1.285   0.892   1.926 -2.7116  2.2751 -3.0560
    8MOL   H273 5047   1.165   0.793   1.861  0.0790  0.6650  0.4646
    8MOL   N274 5048   1.190   0.872   1.632 -0.2860  0.1112  0.5082
    8MOL   C275 5049   1.213   0.913   1.492  0.2782  0.3131 -0.2303
    8MOL   C276 5050   1.163   0.795   1.394 -0.8163 -0.5126 -0.3802
    8MOL   C277 5051   1.249   0.668   1.422 -0.2178 -0.5459  0.1108
    8MOL   C278 5052   1.220   0.552   1.319 -0.1880  0.2157 -0.0951
    8MOL   C279 5053   1.117   0.452   1.371 -1.2160  0.0122 -0.4130
    8MOL   C280 5054   1.103   0.322   1.289  0.5673  0.1728 -0.3677
    8MOL   C281 5055   0.997   0.218   1.333  0.1501  0.3622  0.1814
    8MOL   C282 5056   1.026   0.142   1.461  0.0806  0.4495 -0.1220
    8MOL   C283 5057   0.932   0.035   1.498  0.1148 -0.1255  0.3997
    8MOL   C284 5058   0.953   7.685   1.638  0.1086 -0.1272  0.2791
    8MOL   C285 5059   1.056   7.579   1.632 -0.8458 -0.0467  0.7685
    8MOL   O286 5060   1.079   7.527   1.524 -0.4469  0.1161 -0.2435
    8MOL   H287 5061   1.112   0.810   1.649  1.1867 -2.2413 -1.0145
    8MOL   H288 5062   1.316   0.938   1.466  0.1115 -1.0756 -2.3411
    8MOL   H289 5063   1.157   1.004   1.471  0.9944  0.9849  0.6945
    8MOL   H290 5064   1.182   0.823   1.290  1.2355 -2.6590 -0.6502
    8MOL   H291 5065   1.056   0.786   1.412 -0.8641  1.6204  0.5686
    8MOL   H292 5066   1.354   0.692   1.405 -0.0803 -0.7513  0.6662
    8MOL   H293 5067   1.235   0.640   1.526 -1.8839  1.6101  0.4810
    8MOL   H294 5068   1.312   0.500   1.291 -1.9762 -0.8687 -4.2850
    8MOL   H295 5069   1.188   0.597   1.225  0.9272  2.1016  0.3955
    8MOL   H296 5070   1.015   0.490   1.383 -1.0407  0.2452  0.3341
    8MOL   H297 5071   1.154   0.414   1.466  3.3374  1.9007 -1.3235
    8MOL   H298 5072   1.075   0.355   1.189 -3.1475 -1.3533  0.0904
    8MOL   H299 5073   1.205   0.283   1.291 -0.1555 -1.6767  1.4456
    8MOL   H300 5074   0.985   0.142   1.255 -1.6139  0.6724  0.1214
    8MOL   H301 5075   0.899   0.265   1.337  0.7915  1.7806 -0.5116
    8MOL   H302 5076   1.124   0.095   1.462  0.3109  0.9285  0.4139
    8MOL   H303 5077   1.034   0.216   1.541  0.6836  1.9410 -1.5216
    8MOL   H304 5078   0.934   7.672   1.423  0.0092  0.1781  0.0748
    8MOL   H305 5079   0.833   0.079   1.498  0.1981  0.0719 -0.1334
    8MOL   H306 5080   0.861   7.643   1.679  0.0908  2.3197  2.8781
    8MOL   H307 5081   0.983   0.054   1.699  0.5942 -1.1762  1.4997
    8MOL   N308 5082   1.140   7.556   1.738  0.0847  0.2404 -0.0691
    8MOL   C309 5083   1.238   7.453   1.751 -0.3241 -0.3969  0.0452
    8MOL   C310 5084   1.361   7.506   1.815  0.1661  0.4022 -0.4276
    8MOL   C311 5085   1.470   7.394   1.833  0.1843 -0.2505  0.0558
    8MOL   C312 5086   1.588   7.450   1.901  0.0812 -0.0406  0.3060
    8MOL   C313 5087   1.706   7.357   1.932  0.4880 -0.1184  0.2218
    8MOL   C314 5088   1.831   7.432   1.979  0.5318 -0.0234 -0.2614
    8MOL   C315 5089   1.953   7.348   2.002 -0.0246  0.1544  0.9486
    8MOL   C316 5090   2.003   7.271   1.882 -0.8609 -0.5683 -0.3924
    8MOL   C317 5091   2.134   7.197   1.926  0.0307  0.5342 -0.3151
    8MOL   C318 5092   2.198   7.094   1.831  0.1952  0.0437  0.2844
    8MOL   C319 5093   2.102   6.981   1.772  0.3062 -1.1332 -1.0098
    8MOL   O320 5094   2.108   6.952   1.657 -0.0459  0.0605 -0.0786
    8MOL   H321 5095   1.126   7.609   1.822 -1.4939  1.8308 -1.2868
    8MOL   H322 5096   1.271   7.407   1.658 -3.0469 -2.6917  0.1405
    8MOL   H323 5097   1.188   7.378   1.813 -1.6682 -0.0652 -0.6267
    8MOL   H324 5098   1.339   7.548   1.913  3.7137 -1.3815  1.2416
    8MOL   H325 5099   1.403   7.586   1.753 -1.8726  2.1437  0.3851
    8MOL   H326 5100   1.430   7.317   1.900  1.1521 -0.5023  0.3573
    8MOL   H327 5101   1.506   7.352   1.740 -0.2747 -0.8394  0.1398
    8MOL   H328 5102   1.559   7.487   2.000 -0.7508 -2.1728  0.8720
    8MOL   H329 5103   1.624   7.544   1.859  1.1331  0.3927  2.1134
    8MOL   H330 5104   1.722   7.310   1.834  0.5769 -3.7678  1.9007
    8MOL   H331 5105   1.666   7.284   2.003 -2.7216  1.2239 -0.0984
    8MOL   H332 5106   1.850   7.509   1.903  0.7811 -0.8440 -1.0388
    8MOL   H333 5107   1.805   7.481   2.073 -1.1168 -1.1805 -0.1111
    8MOL   H334 5108   1.933   7.281   2.086  0.9040 -1.6047 -0.1942
    8MOL   H335 5109   2.025   7.415   2.047 -0.5125  1.4761 -0.2083
    8MOL   H336 5110   1.933   7.202   1.835  1.2925 -2.4442 -0.9439
    8MOL   H337 5111   2.017   7.344   1.802 -2.0749 -0.1084 -0.1927
    8MOL   H338 5112   2.109   7.144   2.018 -0.7698  1.4593  0.0050
    8MOL   H339 5113   2.210   7.272   1.951 -1.5905  2.6321 -1.5566
    8MOL   H340 5114   2.271   7.035   1.886 -2.2790 -1.3842  2.1390
    8MOL   H341 5115   2.238   7.139   1.740  0.6449  0.6698  0.7862
    8MOL   N342 5116   2.026   6.915   1.859  0.3052 -0.5692 -0.0105
    8MOL   C343 5117   1.934   6.810   1.813  0.6797 -0.1768 -0.3271
    8MOL   C344 5118   1.800   6.816   1.892 -1.4133 -0.4586  0.0322
    8MOL   C345 5119   1.732   6.951   1.880 -0.1819 -0.4378  0.0174
    8MOL   C346 5120   1.616   6.969   1.981  0.6533 -0.6916  0.6491
    8MOL   C347 5121   1.645   6.986   2.124  0.2558  0.8486  0.3278
    8MOL   C348 5122   1.524   7.007   2.206 -0.3675  0.7896 -0.3025
    8MOL   C349 5123   1.538   7.057   2.347 -0.8181 -0.3456  0.2061
    8MOL   C350 5124   1.577   7.205   2.382  0.1548 -0.4027  0.2963
    8MOL   C351 5125   1.728   7.235   2.386  0.1297  0.2515 -0.0952
    8MOL   C352 5126   1.765   7.379   2.433 -0.0359 -0.5271  0.6506
    8MOL   C353 5127   1.913   7.405   2.409 -0.7030  0.1454 -0.5525
    8MOL   O354 5128   1.988   7.316   2.376 -0.1873  0.2337  0.1036
    8MOL   H355 5129   2.040   6.941   1.956  0.8512  1.8623 -0.7027
    8MOL   H356 5130   1.908   6.820   1.707  1.3568  1.8017 -0.3337
    8MOL   H357 5131   1.978   6.712   1.833 -1.4609 -0.7566  1.6921
    8MOL   H358 5132   1.829   6.807   1.997 -2.2414  0.4448  0.3550
    8MOL   H359 5133   1.743   6.728   1.861 -2.9365  1.2570 -2.2812
    8MOL   H360 5134   1.808   7.027   1.901  0.5908 -0.9583 -0.8995
    8MOL   H361 5135   1.692   6.971   1.781  0.4791  1.3350  0.0866
    8MOL   H362 5136   1.541   6.892   1.963 -2.0837  2.0978 -0.2799
    8MOL   H363 5137   1.560   7.056   1.947  0.9726 -0.7639 -0.0735
    8MOL   H364 5138   1.706   7.073   2.148 -0.5806  1.6631 -0.4547
    8MOL   H365 5139   1.715   6.907   2.152  0.8204  1.2946  0.1905
    8MOL   H366 5140   1.461   7.080   2.154  0.7835  0.9505 -1.5158
    8MOL   H367 5141   1.472   6.911   2.202 -0.0037  0.5970 -0.4338
    8MOL   H368 5142   1.586   6.983   2.412  0.0687  1.1363  1.2838
    8MOL   H369 5143   1.435   7.038   2.375 -0.1103 -0.0189  3.1886
    8MOL   H370 5144   1.521   7.263   2.308  1.3130 -0.9302 -1.0312
    8MOL   H371 5145   1.544   7.232   2.482 -2.8361  0.0511 -0.7803
    8MOL   H372 5146   1.772   7.235   2.286  0.3763  0.3517  0.0124
    8MOL   H373 5147   1.785   7.160   2.441  1.2943  1.1056 -0.1098
    8MOL   H374 5148   1.731   7.397   2.535  1.4072 -2.1837  1.4350
    8MOL   H375 5149   1.721   7.451   2.364  3.2707  1.4382  0.4762
    8MOL   N376 5150   1.954   7.525   2.443  0.1186  0.1564 -0.2322
    8MOL   C377 5151   2.100   7.560   2.438  0.7019 -0.2263  0.2228
    8MOL   C378 5152   2.140   7.714   2.450  0.4566 -0.4996 -0.4849
    8MOL   C379 5153   2.072   0.084   2.342  0.0458 -0.0783  0.2331
    8MOL   C380 5154   2.119   0.227   2.366 -0.1170 -0.4274  0.1161
    8MOL   C381 5155   2.063   0.337   2.271  0.2751 -0.3829 -0.0746
    8MOL   C382 5156   2.117   0.475   2.297  0.0074  0.4076 -0.3271
    8MOL   C383 5157   2.094   0.576   2.179 -0.5252  0.2844 -0.1240
    8MOL   C384 5158   2.180   0.709   2.184 -0.2207 -0.1614  0.4325
    8MOL   C385 5159   2.149   0.811   2.072  0.1410 -0.2149  0.3093
    8MOL   C386 5160   2.143   0.762   1.926  0.1208 -0.5803 -0.6823
    8MOL   C387 5161   2.114   0.874   1.832 -0.6256 -0.3041  0.1978
    8MOL   O388 5162   2.194   0.963   1.813 -0.3454 -0.2078 -0.2778
    8MOL   H389 5163   1.881   7.592   2.460 -1.5771 -1.4222 -1.1059
    8MOL   H390 5164   2.150   7.502   2.516 -0.8351  0.2770  1.6223
    8MOL   H391 5165   2.137   7.527   2.341  0.2116 -1.1889  0.3563
    8MOL   H392 5166   2.249   0.001   2.460  0.5294  0.9413 -1.5190
    8MOL   H393 5167   2.106   0.025   2.550  0.4176 -0.8151 -0.4138
    8MOL   H394 5168   2.112   0.046   2.248  0.9958  1.7221 -0.1112
    8MOL   H395 5169   1.963   0.078   2.343  0.1287 -1.9130  1.3904
    8MOL   H396 5170   2.227   0.237   2.357  0.0456 -0.0443  2.1647
    8MOL   H397 5171   2.104   0.266   2.467 -0.6981 -0.0251 -0.1213
    8MOL   H398 5172   1.955   0.350   2.266  0.4850  1.2947 -0.7066
    8MOL   H399 5173   2.089   0.303   2.170  1.0986 -0.3050  0.1059
    8MOL   H400 5174   2.073   0.519   2.386  0.5980 -1.1265  0.7586
    8MOL   H401 5175   2.221   0.467   2.329 -0.3403  1.6440  1.1277
    8MOL   H402 5176   1.986   0.586   2.177 -0.6204 -0.7970 -1.4515
    8MOL   H403 5177   2.122   0.530   2.084  1.0191  1.2195 -0.1445
    8MOL   H404 5178   2.159   0.754   2.281 -0.1874  0.6632  0.0599
    8MOL   H405 5179   2.283   0.677   2.193 -0.5031 -1.6022 -1.2040
    8MOL   H406 5180   2.210   0.902   2.074  0.3509 -0.2570 -2.0232
    8MOL   H407 5181   2.051   0.857   2.081  1.2250  2.2949 -0.3255
    8MOL   H408 5182   2.073   0.680   1.915  1.2503 -1.4377 -1.6330
    8MOL   H409 5183   2.243   0.726   1.901  0.2075  0.1211 -1.3832
    8MOL   N410 5184   1.999   0.867   1.761 -0.2711  0.4707 -0.4337
    8MOL   C411 5185   1.968   0.944   1.640 -0.3053  0.4614  0.3547
    8MOL   C412 5186   1.831   0.893   1.581 -0.2570 -0.4708 -0.5432
    8MOL   C413 5187   1.821   0.917   1.430 -0.3743 -0.1383 -0.3281
    8MOL   C414 5188   1.695   0.871   1.370  0.1501  0.5883  0.4809
    8MOL   C415 5189   1.700   0.845   1.218  0.5710 -0.5212  0.0541
    8MOL   C416 5190   1.565   0.808   1.148  0.1558  0.7313 -0.1581
    8MOL   C417 5191   1.565   0.797   0.999  0.9635  0.6875  0.4632
    8MOL   C418 5192   1.428   0.747   0.944  0.2917  0.5693  0.3600
    8MOL   C419 5193   1.435   0.718   0.793  0.0155  0.2150  0.9133
    8MOL   C420 5194   1.302   0.677   0.735 -0.6029 -0.5834 -0.2257
    8MOL   C421 5195   1.307   0.645   0.582  0.2732 -0.4185 -0.5271
    8MOL   O422 5196   1.366   0.718   0.502 -0.1929  0.6381 -0.5153
    8MOL   H423 5197   1.933   0.793   1.778  0.2661  0.0067 -0.3565
    8MOL   H424 5198   1.969   1.053   1.648  0.7462  0.3634  1.6830
    8MOL   H425 5199   2.041   0.911   1.566 -0.4722  0.8295  0.0217
    8MOL   H426 5200   1.752   0.950   1.629 -0.7566 -0.1940 -1.6647
    8MOL   H427 5201   1.818   0.785   1.587  0.1605 -0.4889  0.1338
    8MOL   H428 5202   1.840   1.023   1.413  0.4750 -0.2338 -0.0009
    8MOL   H429 5203   1.907   0.869   1.384 -1.0334 -2.2935  0.6425
    8MOL   H430 5204   1.615   0.942   1.385  0.5654  1.2887 -0.5492
    8MOL   H431 5205   1.652   0.782   1.417  0.2471  0.6182  0.6278
    8MOL   H432 5206   1.783   0.777   1.198  0.9471 -0.5758  1.7413
    8MOL   H433 5207   1.726   0.940   1.171 -0.2042 -0.2976  0.0746
    8MOL   H434 5208   1.524   0.715   1.187  1.9059  0.9378  2.3446
    8MOL   H435 5209   1.486   0.878   1.173 -1.1805 -0.8281  0.0587
    8MOL   H436 5210   1.651   0.737   0.967 -1.5826 -2.6254 -0.4962
    8MOL   H437 5211   1.571   0.894   0.949  0.7618  1.2075  1.4424
    8MOL   H438 5212   1.395   0.656   0.995  0.6894 -0.0758 -0.5244
    8MOL   H439 5213   1.357   0.827   0.964 -1.4199  0.4206 -4.4640
    8MOL   H440 5214   1.504   0.635   0.779 -0.2562 -0.4725  3.4416
    8MOL   H441 5215   1.482   0.802   0.742 -0.3498 -0.5014 -0.6477
    8MOL   H442 5216   1.222   0.751   0.738  0.8472  0.9733  3.7956
    8MOL   H443 5217   1.259   0.604   0.804  1.1882 -1.6489 -0.2019
    8MOL   N444 5218   1.247   0.530   0.550 -0.2143  0.0852 -0.1869
    8MOL   C445 5219   1.229   0.487   0.416  0.1938  0.0124 -0.1614
    8MOL   C446 5220   1.329   0.371   0.382  0.4086 -0.3191  0.6453
    8MOL   C447 5221   1.341   0.270   0.499 -0.1936 -0.2774 -0.4054
    8MOL   C448 5222   1.433   0.156   0.450 -0.0569  0.1645  0.0772
    8MOL   C449 5223   1.487   0.079   0.577 -0.3217 -0.0812 -0.5876
    8MOL   C450 5224   1.377   0.014   0.656  0.3716 -0.4210 -0.1616
    8MOL   C451 5225   1.426   7.654   0.775  1.0215 -0.1234  0.3534
    8MOL   C452 5226   1.321   7.581   0.864 -0.2075  0.4176 -0.7778
    8MOL   C453 5227   1.388   7.482   0.966 -0.4694  0.5647  0.2932
    8MOL   C454 5228   1.482   7.370   0.897 -0.5322 -1.1396 -0.1625
    8MOL   C455 5229   1.528   7.268   0.992 -0.5116  0.3246 -0.1849
    8MOL   O456 5230   1.520   7.284   1.112  0.0632 -0.2562  0.1034
    8MOL   H457 5231   1.198   0.476   0.621 -0.1775  0.6044  0.2357
    8MOL   H458 5232   1.124   0.458   0.411  0.3680 -1.4049  2.8150
    8MOL   H459 5233   1.252   0.562   0.341  1.8129  0.6382  0.9246
    8MOL   H460 5234   1.422   0.425   0.366 -1.4127  2.6521 -0.3017
    8MOL   H461 5235   1.297   0.312   0.297 -0.1334  0.3715  0.3657
    8MOL   H462 5236   1.388   0.318   0.585 -1.6993  1.1641 -0.3711
    8MOL   H463 5237   1.248   0.225   0.532 -1.2039  1.8210 -0.3076
    8MOL   H464 5238   1.518   0.181   0.387  0.5494 -1.4040  0.2487
    8MOL   H465 5239   1.376   0.093   0.381 -3.0278  1.5721  1.1326
    8MOL   H466 5240   1.548   0.143   0.640  0.1544 -0.4884 -0.6280
    8MOL   H467 5241   1.562   0.010   0.536  0.2366 -2.2557  3.7332
    8MOL   H468 5242   1.305   0.081   0.702 -1.1873 -2.4549  0.4331
    8MOL   H469 5243   1.318   7.665   0.590 -0.7401 -1.7695  2.0995
    8MOL   H470 5244   1.484   0.006   0.838 -0.3306  0.1875  1.2971
    8MOL   H471 5245   1.507   7.587   0.745  1.4449  0.3317  0.4707
    8MOL   H472 5246   1.270   7.660   0.919 -1.5708 -1.1153  0.2030
    8MOL   H473 5247   1.252   7.526   0.799 -0.1738  0.4685 -0.8566
    8MOL   H474 5248   1.308   7.443   1.029  0.8549 -1.5545  0.6920
    8MOL   H475 5249   1.453   7.543   1.030 -1.1641  0.5216  1.0428
    8MOL   H476 5250   1.567   7.430   0.865 -1.4866  0.9237  1.0354
    8MOL   H477 5251   1.435   7.325   0.810 -3.7947  0.2940  0.7736
    8MOL   N478 5252   1.572   7.156   0.935 -0.3143 -0.1254 -0.2390
    8MOL   C479 5253   1.652   7.049   0.992 -0.2257  0.0123 -0.1105
    8MOL   C480 5254   1.726   6.965   0.880  0.2356  0.3111 -0.2061
    8MOL   C481 5255   1.829   6.863   0.939  0.0490 -0.4333 -0.3183
    8MOL   C482 5256   1.838   6.754   0.830  0.0216  0.1101  0.0328
    8MOL   C483 5257   1.953   6.654   0.862 -0.1693 -0.4555  0.1690
    8MOL   C484 5258   1.970   6.529   0.775  0.7034 -0.0922 -0.4784
    8MOL   C485 5259   1.856   6.427   0.815 -0.2191 -0.2345  0.1787
    8MOL   C486 5260   1.848   6.307   0.728  0.2784 -0.2501 -0.3513
    8MOL   C487 5261   1.763   6.200   0.788  0.3684  0.5906  0.7160
    8MOL   C488 5262   1.720   6.090   0.693  0.1296  0.6790 -0.2313
    8MOL   C489 5263   1.613   6.143   0.594  0.3155  0.6590  1.0516
    8MOL   O490 5264   1.500   6.164   0.630  0.0339 -0.1158  0.2251
    8MOL   H491 5265   1.578   7.150   0.834  1.2876 -0.3172 -0.1470
    8MOL   H492 5266   1.708   7.089   1.077 -0.2872  2.3618 -1.1516
    8MOL   H493 5267   1.584   6.978   1.039  0.0479  0.8559  1.5970
    8MOL   H494 5268   1.764   7.042   0.813 -1.2537  0.8616 -0.4413
    8MOL   H495 5269   1.647   6.911   0.828  0.1603  0.3970 -0.1807
    8MOL   H496 5270   1.924   6.908   0.970  0.1692 -0.7333 -0.2454
    8MOL   H497 5271   1.784   6.809   1.021  0.0347 -0.9257 -0.6487
    8MOL   H498 5272   1.854   6.792   0.730 -1.9969 -4.5234 -2.1793
    8MOL   H499 5273   1.742   6.703   0.825  0.1160  0.0783 -1.4404
    8MOL   H500 5274   1.946   6.622   0.966 -1.7374  0.2588  0.2950
    8MOL   H501 5275   2.035   6.726   0.859  0.1595 -0.7993  0.8312
    8MOL   H502 5276   1.955   6.543   0.668 -1.4382  0.1284 -0.1638
    8MOL   H503 5277   2.064   6.477   0.792  0.3922 -0.6408 -0.4591
    8MOL   H504 5278   1.760   6.476   0.833 -1.4538 -2.6588  0.5102
    8MOL   H505 5279   1.884   6.385   0.912 -0.5518  1.5691  1.0805
    8MOL   H506 5280   1.814   6.337   0.628 -1.8682 -2.2322 -0.2626
    8MOL   H507 5281   1.948   6.272   0.700 -1.2788 -2.9917 -2.8719
    8MOL   H508 5282   1.673   6.249   0.825  1.4451  2.2630  1.1822
    8MOL   H509 5283   1.823   6.159   0.869 -0.8154 -0.3785  1.1375
    8MOL   H510 5284   1.667   6.019   0.757 -0.6916  1.9049  0.4716
    8MOL   H511 5285   1.806   6.044   0.645 -1.2685 -1.5535 -0.6842
    8MOL   N512 5286   1.657   6.145   0.467  0.2011 -0.0483 -0.5874
    8MOL   C513 5287   1.566   6.151   0.356  0.4662 -0.3820 -0.2542
    8MOL   C514 5288   1.639   6.120   0.225 -0.5853  0.6388 -0.5708
    8MOL   C515 5289   1.535   6.095   0.108 -0.3300  0.9093 -0.2106
    8MOL   C516 5290   1.457   5.962   0.111 -0.5697 -1.3937 -0.1079
    8MOL   C517 5291   1.384   5.911   7.699 -0.5000 -0.4049  0.5283
    8MOL   C518 5292   1.321   6.017   7.607 -0.5251  0.3833  0.2740
    8MOL   C519 5293   1.197   6.076   7.679  1.1841  0.2784  0.5295
    8MOL   C520 5294   1.102   6.166   7.589  0.0403  0.0029 -0.6618
    8MOL   C521 5295   1.166   6.304   7.556 -0.2544 -0.4468 -0.3695
    8MOL   C522 5296   1.191   6.399   7.673  0.4997  0.0772  0.6368
    8MOL   C523 5297   1.223   6.541   7.633  0.4187 -0.5355  0.3941
    8MOL   O524 5298   1.152   6.602   7.554  0.0844  0.1856  0.1054
    8MOL   H525 5299   1.753   6.127   0.442  1.2974  2.6523  1.3354
    8MOL   H526 5300   1.500   6.065   0.367 -1.0921  0.8617  0.3591
    8MOL   H527 5301   1.513   6.245   0.336 -1.2289 -1.1797  0.3823
    8MOL   H528 5302   1.702   6.031   0.233 -1.7372 -0.2712 -1.4324
    8MOL   H529 5303   1.710   6.198   0.196  0.6566  0.7482  2.6315
    8MOL   H530 5304   1.472   6.182   0.090  1.7817  2.1549 -1.8050
    8MOL   H531 5305   1.602   6.093   0.022 -0.6777  3.1113 -0.5543
    8MOL   H532 5306   1.381   5.966   0.190  0.6855 -0.4499  1.0744
    8MOL   H533 5307   1.532   5.892   0.148  3.5487  1.5779 -2.5019
    8MOL   H534 5308   1.313   5.830   0.002 -0.6724 -0.2869  0.3708
    8MOL   H535 5309   1.455   5.864   7.631 -0.0535  5.0440 -3.0463
    8MOL   H536 5310   1.395   6.080   7.560 -0.4334 -1.2076 -1.8310
    8MOL   H537 5311   1.279   5.959   7.524 -1.6178 -1.0939  1.7970
    8MOL   H538 5312   1.219   6.136   0.051  2.5396  1.7712 -0.8073
    8MOL   H539 5313   1.137   5.991   7.713  0.8573  0.2723 -0.0388
    8MOL   H540 5314   1.099   6.110   7.496  0.7437  0.2678 -0.8468
    8MOL   H541 5315   0.996   6.173   7.615 -0.3765 -0.8078 -2.1038
    8MOL   H542 5316   1.101   6.361   7.490 -0.9872  0.3648  1.0228
    8MOL   H543 5317   1.263   6.294   7.507  0.0726  0.8979 -0.0175
    8MOL   H544 5318   1.267   6.361   0.026  0.4515 -1.4634 -0.1509
    8MOL   H545 5319   1.098   6.399   0.013  0.1344 -0.8251  0.0354
    8MOL   N546 5320   1.332   6.603   7.683  0.0620 -0.1195 -0.0104
    8MOL   C547 5321   1.383   6.729   7.620 -0.1559 -0.1461  0.2683
    8MOL   C548 5322   1.506   6.791   7.692  0.3685 -0.4183 -0.3147
    8MOL   C549 5323   1.541   6.934   7.649  0.0319  0.5275  0.1453
    8MOL   C550 5324   1.661   6.989   0.017  0.1164  0.1787 -0.1129
    8MOL   C551 5325   1.675   7.144   0.009 -0.7130 -0.4815  0.0723
    8MOL   C552 5326   1.814   7.195   0.047  0.6219 -0.5723 -0.2765
    8MOL   C553 5327   1.932   7.143   7.671 -0.0731 -0.3880  0.2227
    8MOL   C554 5328   2.058   7.233   7.685  0.2736 -0.4723  0.4101
    8MOL   C555 5329   2.172   7.177   7.600 -0.4666  0.5205  0.4170
    8MOL   C556 5330   2.279   7.287   7.594  0.5816  0.2339  0.1149
    8MOL   C557 5331   2.398   7.238   7.508 -0.1748  0.5326 -0.1954
    8MOL   O558 5332   2.443   7.123   7.523  0.1782  0.4215 -0.0780
    8MOL   H559 5333   1.405   6.555   0.017  0.5503  1.6632  1.0122
    8MOL   H560 5334   1.394   6.722   7.511 -1.8148 -1.3072  0.1515
    8MOL   H561 5335   1.308   6.808   7.615 -0.1248 -0.0085  1.8317
    8MOL   H562 5336   1.598   6.735   7.675  0.4826 -0.2108 -0.3971
    8MOL   H563 5337   1.480   6.795   0.082  1.7407  0.0990  0.0108
    8MOL   H564 5338   1.565   6.922   7.543 -2.6358 -0.3312 -0.3969
    8MOL   H565 5339   1.455   7.000   7.662  0.3614  1.0908 -0.4911
    8MOL   H566 5340   1.751   6.930   0.001 -0.1791 -0.7540  1.6017
    8MOL   H567 5341   1.635   6.974   0.121  3.0063 -0.3262  0.5790
    8MOL   H568 5342   1.599   7.197   0.067 -0.6452  1.6399 -1.7461
    8MOL   H569 5343   1.663   7.165   7.619 -0.3912  0.4672  0.2211
    8MOL   H570 5344   1.807   7.304   0.039 -0.2862 -0.6022  0.1609
    8MOL   H571 5345   1.824   7.167   0.152 -1.7109 -1.0492 -0.1657
    8MOL   H572 5346   1.895   7.146   7.569  1.2924 -0.5763 -0.2841
    8MOL   H573 5347   1.959   7.039   7.689 -0.0793 -0.2330  1.1708
    8MOL   H574 5348   2.041   7.337   7.661 -0.2272 -0.1463  2.1121
    8MOL   H575 5349   2.083   7.231   0.076  0.0255 -0.8202  0.4620
    8MOL   H576 5350   2.139   7.152   7.499  1.3293 -0.6927  0.1097
    8MOL   H577 5351   2.196   7.083   7.650 -3.3240 -0.4216  0.1334
    8MOL   H578 5352   2.325   7.314   7.690  1.9091  1.6524 -0.8870
    8MOL   H579 5353   2.243   7.381   7.551 -1.9366 -0.8520 -0.2226
    8MOL   N580 5354   2.450   7.321   7.418 -0.5437 -0.0941 -0.2403
    8MOL   C581 5355   2.551   7.290   7.317  0.2269 -0.0617  0.2705
    8MOL   C582 5356   2.569   7.406   7.226  0.2396 -1.0671  0.3338
    8MOL   C583 5357   2.699   7.388   7.132  0.2388 -0.0347 -0.4170
    8MOL   C584 5358   2.835   7.382   7.213  0.4486 -0.1765 -0.7331
    8MOL   C585 5359   2.963   7.392   7.121 -0.3807  0.4455 -0.1846
    8MOL   C586 5360   3.104   7.382   7.189  0.8253  0.5814  1.1092
    8MOL   C587 5361   3.140   7.236   7.221 -0.0769  0.1219 -0.1545
    8MOL   C588 5362   3.277   7.214   7.288 -0.2950 -0.4164  0.5116
    8MOL   C589 5363   3.294   7.061   7.297 -0.3994  0.7092  0.4752
    8MOL   C590 5364   3.229   7.014   7.424 -0.6241  0.1598  0.3466
    8MOL   C591 5365   3.237   6.858   7.428 -0.1206  0.5081  0.3130
    8MOL   O592 5366   3.268   6.787   7.329  0.9602 -0.0479  0.6761
    8MOL   H593 5367   2.428   7.419   7.425  0.8269  0.2020  0.0731
    8MOL   H594 5368   2.648   7.261   7.356  0.8840  1.0711 -0.5054
    8MOL   H595 5369   2.504   7.208   7.262 -0.1660  0.9202 -0.8797
    8MOL   H596 5370   2.590   7.494   7.287  2.1032 -0.5879 -0.9549
    8MOL   H597 5371   2.489   7.436   7.158  0.9864 -0.5593 -0.3232
    8MOL   H598 5372   2.700   7.292   7.081 -0.0993 -2.4435  3.9432
    8MOL   H599 5373   2.705   7.474   7.065  0.8374  0.3924  0.1723
    8MOL   H600 5374   2.850   7.292   7.273  2.4318 -0.0436 -0.9701
    8MOL   H601 5375   2.839   7.464   7.284  0.5385  0.4385 -1.4433
    8MOL   H602 5376   2.955   7.485   7.064 -1.6155  1.7516  2.0440
    8MOL   H603 5377   2.948   7.309   7.053  1.1573 -1.3065  1.5283
    8MOL   H604 5378   3.172   7.416   7.110  0.4147 -3.4208 -1.0831
    8MOL   H605 5379   3.114   7.451   7.272 -0.3688 -1.3190  2.8626
    8MOL   H606 5380   3.139   7.184   7.126 -0.6699 -2.2372  1.0977
    8MOL   H607 5381   3.061   7.200   7.287  0.6840  0.2694  0.8435
    8MOL   H608 5382   3.353   7.257   7.222 -0.8764 -2.7862 -1.7598
    8MOL   H609 5383   3.282   7.258   7.388 -0.5064 -0.8429  0.7108
    8MOL   H610 5384   3.399   7.029   7.298 -0.6705 -0.1374  1.9950
    8MOL   H611 5385   3.256   7.009   7.209  0.8696  1.8663 -0.8020
    8MOL   H612 5386   3.125   7.045   7.434 -1.1234 -1.3766  0.0911
    8MOL   H613 5387   3.280   7.057   7.510 -1.6057  3.4338 -0.6323
    8MOL   N614 5388   3.198   6.802   7.546 -1.1113  0.2418 -0.3286
    8MOL   C615 5389   3.175   6.664   7.567 -0.7712 -0.6580  0.1645
    8MOL   C616 5390   3.026   6.641   7.549 -1.0615 -0.0266  0.0854
    8MOL   C617 5391   3.004   6.492   7.550  0.2413  0.5903  0.9468
    8MOL   C618 5392   2.854   6.452   7.536 -0.2809  0.0018 -0.1342
    8MOL   C619 5393   2.792   6.478   7.399  0.8362  0.2496  0.4111
    8MOL   C620 5394   2.638   6.451   7.406 -0.2478 -0.2514  0.1254
    8MOL   C621 5395   2.557   6.451   7.272  0.2869 -0.3661 -0.7945
    8MOL   C622 5396   2.521   6.598   7.237  0.1108 -0.3839  0.4648
    8MOL   C623 5397   2.418   6.605   7.128 -0.2906 -0.1418  0.1586
    8MOL   C624 5398   2.287   6.678   7.165 -0.0316  0.5966  0.3389
    8MOL   C625 5399   2.300   6.817   7.227 -0.6635 -0.5024  0.3074
    8MOL   O626 5400   2.321   6.834   7.347  0.1891 -0.4373 -0.0669
    8MOL   H627 5401   3.191   6.869   7.621  0.9799  1.4128 -1.1344
    8MOL   H628 5402   3.215   6.639   7.665  1.6977 -0.6465 -0.8003
    8MOL   H629 5403   3.226   6.607   7.489 -2.9858 -1.5628 -0.6656
    8MOL   H630 5404   2.981   6.699   7.468  0.7346  0.8124 -0.3398
    8MOL   H631 5405   2.977   6.686   7.636 -0.3063  1.0003 -0.0085
    8MOL   H632 5406   3.057   6.455   7.462 -1.1199 -0.4412  0.5504
    8MOL   H633 5407   3.043   6.438   7.636  0.7865 -1.7862 -0.7185
    8MOL   H634 5408   2.802   6.505   7.616 -0.5633  0.2841 -0.5003
    8MOL   H635 5409   2.857   6.344   7.551 -0.2533  0.0196 -0.0106
    8MOL   H636 5410   2.830   6.418   7.316 -2.3452 -1.8990  0.3982
    8MOL   H637 5411   2.805   6.581   7.367 -0.6966  0.0652 -0.8142
    8MOL   H638 5412   2.639   6.353   7.452  0.2317  0.4949  1.7561
    8MOL   H639 5413   2.589   6.521   7.474 -1.1930 -0.4814 -0.3029
    8MOL   H640 5414   2.461   6.405   7.294  0.6380  0.5853  3.0531
    8MOL   H641 5415   2.606   6.391   7.195  3.8408 -0.0756  1.1031
    8MOL   H642 5416   2.493   6.650   7.329 -1.1349  0.9085 -0.6093
    8MOL   H643 5417   2.614   6.646   7.206  0.2407  0.9363  2.7853
    8MOL   H644 5418   2.396   6.503   7.097 -1.4140 -0.0555  0.6507
    8MOL   H645 5419   2.468   6.645   7.040 -1.3223  1.3246  0.2233
    8MOL   H646 5420   2.249   6.623   7.251  1.2737 -1.6247 -0.4521
    8MOL   H647 5421   2.219   6.670   7.079 -0.3921  1.3141  0.5583
    8MOL   N648 5422   2.270   6.924   7.153 -0.1355 -1.2973  0.0777
    8MOL   C649 5423   2.266   7.061   7.203  0.2902 -0.1301  0.8648
    8MOL   C650 5424   2.251   7.167   7.087  0.1660 -0.0137 -0.3977
    8MOL   C651 5425   2.363   7.151   6.985  0.1277 -0.2788  0.1852
    8MOL   C652 5426   2.344   7.258   6.876  0.7131 -0.0589  0.4676
    8MOL   C653 5427   2.444   7.252   6.758 -0.2262 -0.2790 -0.2920
    8MOL   C654 5428   2.452   7.376   6.676  0.3710  0.0071  0.0126
    8MOL   C655 5429   2.577   7.380   6.584  0.4881 -0.6956 -0.2633
    8MOL   C656 5430   2.567   7.296   6.459 -0.5422 -0.4092  0.6482
    8MOL   C657 5431   2.693   7.316   6.372  0.5363 -0.2304 -0.0078
    8MOL   C658 5432   2.673   7.265   6.228 -0.4433  0.8418  1.0076
    8MOL   C659 5433   2.584   7.347   6.138  0.4213 -0.1810  0.0966
    8MOL   O660 5434   2.525   7.451   6.174 -0.5187 -0.2506  0.5819
    8MOL   H661 5435   2.224   6.905   7.065 -1.1244  0.8392  0.0809
    8MOL   H662 5436   2.355   7.074   7.265  0.7359 -0.1766  0.2454
    8MOL   H663 5437   2.181   7.067   7.270  0.6408 -2.0374  1.5163
    8MOL   H664 5438   2.252   7.264   7.137  0.3227 -0.8238  1.2081
    8MOL   H665 5439   2.154   7.165   7.039  0.9840  3.2044 -2.2916
    8MOL   H666 5440   2.461   7.133   7.028  1.4768 -2.0881 -3.4302
    8MOL   H667 5441   2.337   7.065   6.924  1.5055 -0.3252 -0.3599
    8MOL   H668 5442   2.351   7.356   6.922  1.2999 -0.7085  1.7788
    8MOL   H669 5443   2.244   7.247   6.834  0.7804 -1.0350  0.5386
    8MOL   H670 5444   2.423   7.163   6.698 -2.8773  0.4448 -0.5060
    8MOL   H671 5445   2.542   7.235   6.801 -0.6822 -0.9986  0.4638
    8MOL   H672 5446   2.364   7.401   6.616 -0.6991 -1.7753  0.7966
    8MOL   H673 5447   2.475   7.456   6.748  0.3692 -2.3351  2.7162
    8MOL   H674 5448   2.667   7.361   6.643 -0.4290  1.5561  1.9295
    8MOL   H675 5449   2.597   7.487   6.574 -4.9126  0.6808  1.9531
    8MOL   H676 5450   2.583   7.190   6.478 -0.7813 -0.4655  0.5405
    8MOL   H677 5451   2.480   7.311   6.395 -0.7773 -0.2588  1.0049
    8MOL   H678 5452   2.771   7.256   6.418 -0.7133 -0.0265  2.4989
    8MOL   H679 5453   2.731   7.418   6.378  0.9101 -0.3791  0.1318
    8MOL   H680 5454   2.643   7.160   6.223  0.0279  0.6729  1.6453
    8MOL   H681 5455   2.771   7.257   6.179 -0.3098  2.5231  0.9683
    8MOL   H682 5456   2.557   7.303   6.042 -0.5004  2.1523 -0.7540
    9MOL     N1 5457   3.836   3.804   5.945  0.5111  0.0731  0.5836
    9MOL     C2 5458   3.881   3.880   6.067 -0.0936  0.6185  0.0950
    9MOL     C3 5459   3.964   3.797   6.165  0.1374  0.2621 -0.0921
    9MOL     C4 5460   4.040   3.883   6.270 -0.1066  0.2657  0.2745
    9MOL     C5 5461   4.095   3.811   6.390 -0.2400  0.7082 -0.6196
    9MOL     C6 5462   4.186   3.913   6.455 -0.1535 -0.0734 -0.4869
    9MOL     C7 5463   4.253   3.852   6.582  0.1596 -0.1073  0.2761
    9MOL     C8 5464   4.357   3.950   6.645 -0.3429  0.2302  0.1176
    9MOL     C9 5465   4.400   3.929   6.789 -0.0820 -0.0832 -0.0263
    9MOL    C10 5466   4.473   3.795   6.819 -0.8048 -0.2655 -0.5313
    9MOL    C11 5467   4.607   3.766   6.751 -0.3644 -0.3196 -0.0263
    9MOL    C12 5468   4.604   3.695   6.617  0.2555  0.0344  0.3011
    9MOL    O13 5469   4.549   3.581   6.603 -0.1316 -0.2982  0.4567
    9MOL    H14 5470   3.909   3.751   5.899  0.4460  0.3761  0.1242
    9MOL    H15 5471   3.788   3.915   6.112 -0.7455 -1.2002  0.2035
    9MOL    H16 5472   3.945   3.962   6.036 -0.8777  0.5129 -1.9448
    9MOL    H17 5473   4.044   3.744   6.113 -1.9370 -0.9494 -2.1968
    9MOL    H18 5474   3.905   3.716   6.208 -0.7579  1.0269  0.1366
    9MOL    H19 5475   4.121   3.929   6.214 -1.0661 -1.1999 -2.3853
    9MOL    H20 5476   3.978   3.967   6.302  0.8895  1.9974 -2.2265
    9MOL    H21 5477   4.151   3.724   6.356  1.5908  2.2131 -1.5855
    9MOL    H22 5478   4.022   3.788   6.468  1.7679  0.6034  1.2611
    9MOL    H23 5479   4.131   4.003   6.483  0.9201  0.3686  0.2153
    9MOL    H24 5480   4.273   3.941   6.396 -0.0532  0.5826 -0.0333
    9MOL    H25 5481   4.189   3.822   6.665  0.5235  0.5952  0.8179
    9MOL    H26 5482   4.312   3.763   6.561 -0.4154 -0.5139  0.3763
    9MOL    H27 5483   4.301   4.043   6.640 -0.2134  0.1737 -4.6141
    9MOL    H28 5484   4.433   3.949   6.568 -1.3678 -0.2321 -0.9081
    9MOL    H29 5485   4.477   4.003   6.809 -0.7662  0.5994  0.1101
    9MOL    H30 5486   4.316   3.952   6.855  0.5497 -0.6477  0.9944
    9MOL    H31 5487   4.402   3.716   6.796  0.5543 -2.6613  2.9770
    9MOL    H32 5488   4.483   3.787   6.928 -0.0126  1.8908 -0.4283
    9MOL    H33 5489   4.671   3.705   6.815  1.4570 -0.4953 -1.9529
    9MOL    H34 5490   4.666   3.858   6.748  0.4063 -0.8372 -0.7182
    9MOL    H35 5491   3.777   3.726   5.972  0.6891 -0.1836  0.2367
    9MOL    N36 5492   4.648   3.756   6.511 -0.4553 -0.4711  0.2689
    9MOL    C37 5493   4.648   3.710   6.372 -0.1724 -0.0672 -0.2995
    9MOL    C38 5494   4.757   3.594   6.355 -0.3385 -0.4558  0.1264
    9MOL    C39 5495   4.738   3.523   6.218  0.2847 -0.1767  0.0666
    9MOL    C40 5496   4.842   3.414   6.177  0.5178  0.0325  0.3929
    9MOL    C41 5497   4.992   3.460   6.187  0.3038 -0.0890  0.2673
    9MOL    C42 5498   5.079   3.348   6.142  0.0216  0.1825 -0.4399
    9MOL    C43 5499   5.230   3.388   6.136 -0.0365  0.7690  0.3990
    9MOL    C44 5500   5.295   3.401   6.273  0.6843  0.3359 -1.0553
    9MOL    C45 5501   5.443   3.374   6.277 -0.0384 -0.2488  0.6271
    9MOL    C46 5502   5.508   3.380   6.420  0.2185  0.0597 -0.3658
    9MOL    C47 5503   5.500   3.243   6.487 -0.7725  0.0980 -0.6334
    9MOL    O48 5504   5.568   3.147   6.449  0.5106 -0.2276 -0.0762
    9MOL    H49 5505   4.704   3.838   6.527  1.9265 -1.5954 -1.8592
    9MOL    H50 5506   4.547   3.671   6.356 -0.6525  0.8527  0.4454
    9MOL    H51 5507   4.658   3.789   6.298  0.9706 -1.5681 -1.8064
    9MOL    H52 5508   4.758   3.526   6.440 -3.8103  1.5253  1.8930
    9MOL    H53 5509   4.861   3.628   6.355 -0.6808  0.6628  1.6757
    9MOL    H54 5510   4.646   3.465   6.228  1.3340 -1.9998 -0.6388
    9MOL    H55 5511   4.738   3.602   6.143  0.0435  0.5581  0.8324
    9MOL    H56 5512   4.821   3.394   6.072 -1.3881 -1.4732  1.0353
    9MOL    H57 5513   4.812   3.322   6.225  0.2027 -0.1939 -0.2357
    9MOL    H58 5514   4.997   3.475   6.295  0.3329  2.8676 -0.0856
    9MOL    H59 5515   5.006   3.551   6.129  0.2728 -0.9806 -1.1687
    9MOL    H60 5516   5.064   3.284   6.229 -0.8440 -0.6568 -1.1951
    9MOL    H61 5517   5.040   3.296   6.055 -2.1191 -1.4500  1.4335
    9MOL    H62 5518   5.225   3.485   6.086 -0.8997  0.5144 -0.0314
    9MOL    H63 5519   5.280   3.321   6.067 -0.2245  1.3971 -0.3590
    9MOL    H64 5520   5.280   3.505   6.301 -2.0578  0.0478 -1.3525
    9MOL    H65 5521   5.241   3.333   6.340 -0.6883  1.1553 -1.3227
    9MOL    H66 5522   5.488   3.447   6.210  0.1881 -0.6073  0.3876
    9MOL    H67 5523   5.463   3.281   6.224 -0.1766 -0.6813  1.3338
    9MOL    H68 5524   5.452   3.464   6.462  0.8893  0.3557 -0.0608
    9MOL    H69 5525   5.613   3.406   6.413  0.2478  0.5033  1.4763
    9MOL    N70 5526   5.416   3.240   6.589 -0.0092  0.2556  0.3094
    9MOL    C71 5527   5.390   3.127   6.677  0.5679  0.0756 -0.2029
    9MOL    C72 5528   5.325   3.179   6.802 -0.1812 -0.0329 -0.0155
    9MOL    C73 5529   5.291   3.073   6.909  0.4030  0.1699 -0.6737
    9MOL    C74 5530   5.223   3.123   7.044  0.0968  0.2859 -0.2989
    9MOL    C75 5531   5.331   3.194   7.131  0.2134  0.0309 -0.7202
    9MOL    C76 5532   5.274   3.249   7.268 -0.6306  0.2492  0.1102
    9MOL    C77 5533   5.389   3.296   7.361 -0.2233  0.2658 -0.2952
    9MOL    C78 5534   5.332   3.335   7.497  0.2559 -0.5840 -0.1717
    9MOL    C79 5535   5.458   3.361   7.585  0.3294  0.4007  0.3724
    9MOL    C80 5536   5.412   3.372   0.022 -0.0493  0.2824  0.2043
    9MOL    C81 5537   5.351   3.512   0.061  0.0153  0.2558 -0.3076
    9MOL    O82 5538   5.433   3.592   0.099 -0.7134 -0.0656 -0.8395
    9MOL    H83 5539   5.360   3.322   6.610 -1.0373 -0.8306  1.8793
    9MOL    H84 5540   5.336   3.044   6.631  0.0576  0.5122 -0.3956
    9MOL    H85 5541   5.490   3.094   6.706  0.3755 -0.6448 -0.3486
    9MOL    H86 5542   5.244   3.248   6.780 -1.1186 -0.3516  2.3701
    9MOL    H87 5543   5.401   3.248   6.839  0.3209 -0.9547  0.6725
    9MOL    H88 5544   5.220   3.005   6.863 -1.6669  0.9892  1.2561
    9MOL    H89 5545   5.392   3.035   6.924 -0.4660 -2.1157 -0.4217
    9MOL    H90 5546   5.192   3.036   7.102  1.9593 -0.9062 -1.0691
    9MOL    H91 5547   5.145   3.198   7.028  0.1434  1.3358  3.8076
    9MOL    H92 5548   5.378   3.279   7.081  3.3774 -0.7382  0.8290
    9MOL    H93 5549   5.412   3.125   7.154  0.4014  1.0210  1.7742
    9MOL    H94 5550   5.212   3.335   7.241  0.7116  1.5062  0.9401
    9MOL    H95 5551   5.211   3.180   7.324 -1.2025  1.3619  0.8752
    9MOL    H96 5552   5.442   3.382   7.320 -2.0549  0.9578 -1.2772
    9MOL    H97 5553   5.473   3.227   7.363  0.5282  1.1764  1.3196
    9MOL    H98 5554   5.273   3.426   7.487 -0.2933 -1.2653 -3.7213
    9MOL    H99 5555   5.279   3.256   7.551  1.5143 -0.2451  1.6166
    9MOL   H100 5556   5.517   3.447   7.553  3.0055 -1.5397 -0.0456
    9MOL   H101 5557   5.531   3.281   7.577 -0.8482 -0.8388  1.5707
    9MOL   H102 5558   5.492   3.359   0.095  0.0220  3.4837  0.7810
    9MOL   H103 5559   5.332   3.306   0.054  0.1209 -0.3208 -0.6141
    9MOL   N104 5560   5.224   3.537   0.035  0.2680 -0.6093 -0.7767
    9MOL   C105 5561   5.152   3.659   0.057  0.1880  0.8761  0.4403
    9MOL   C106 5562   5.069   3.683   7.648 -0.5314  0.5191 -0.6037
    9MOL   C107 5563   5.142   3.704   7.512  0.5958  0.2233 -0.1329
    9MOL   C108 5564   5.057   3.734   7.394 -0.0163 -0.5289  0.4419
    9MOL   C109 5565   4.990   3.604   7.339  0.5678 -0.6192 -0.5081
    9MOL   C110 5566   4.896   3.626   7.217 -0.2898 -0.8255 -0.7871
    9MOL   C111 5567   4.826   3.501   7.173 -0.2917  0.1166 -0.5077
    9MOL   C112 5568   4.744   3.528   7.042  0.1522  0.6899 -0.1750
    9MOL   C113 5569   4.669   3.404   6.989 -0.2716 -0.6780 -0.0081
    9MOL   C114 5570   4.593   3.421   6.859 -0.0189 -0.1158  0.0533
    9MOL   C115 5571   4.577   3.298   6.778  0.2173  0.4037 -0.5479
    9MOL   O116 5572   4.597   3.186   6.827  0.1889 -0.1996  0.0618
    9MOL   H117 5573   5.179   3.460   7.704 -1.0906 -0.6778  0.5876
    9MOL   H118 5574   5.087   3.653   0.144 -0.1719 -0.3941  0.1041
    9MOL   H119 5575   5.215   3.745   0.078  3.2434 -1.3847  0.7942
    9MOL   H120 5576   5.016   3.777   7.665 -0.4677  0.5233 -0.4322
    9MOL   H121 5577   4.994   3.604   7.646 -1.5597  1.4883 -1.1063
    9MOL   H122 5578   5.222   3.777   7.512  1.1546 -0.3742 -1.2529
    9MOL   H123 5579   5.195   3.610   7.495 -0.3713 -0.1144 -1.3277
    9MOL   H124 5580   5.113   3.791   7.320 -0.2325  1.6474  1.9171
    9MOL   H125 5581   4.983   3.812   7.415  0.9795  1.5742 -3.3511
    9MOL   H126 5582   4.943   3.556   7.424 -0.1995 -0.7305 -0.9965
    9MOL   H127 5583   5.069   3.536   7.306  0.0986 -1.2240 -0.3894
    9MOL   H128 5584   4.828   3.709   7.238  0.3793  0.4728 -3.5826
    9MOL   H129 5585   4.961   3.660   7.137 -0.4285  0.3536 -0.4229
    9MOL   H130 5586   4.765   3.459   7.254 -0.8063 -0.9124 -1.4093
    9MOL   H131 5587   4.892   3.415   7.158 -0.2909 -0.2154  1.2343
    9MOL   H132 5588   4.677   3.611   7.061 -0.9353  0.7578 -4.0812
    9MOL   H133 5589   4.814   3.567   6.969  0.8036 -0.7546 -0.3540
    9MOL   H134 5590   4.611   3.351   7.065  0.9459 -0.8195  0.8410
    9MOL   H135 5591   4.743   3.326   6.975 -0.5573 -1.1788  1.1802
    9MOL   H136 5592   4.643   3.493   6.794 -0.4161  0.7078  0.6399
    9MOL   H137 5593   4.487   3.444   6.876  0.3050  1.5591 -0.0818
    9MOL   N138 5594   4.517   3.320   6.657  0.2006  0.0708  0.3344
    9MOL   C139 5595   4.460   3.217   6.571  0.0746 -0.3914  0.1421
    9MOL   C140 5596   4.462   3.271   6.428  0.2570 -0.0848  0.2156
    9MOL   C141 5597   4.418   3.166   6.327  1.1482  0.3791  0.5893
    9MOL   C142 5598   4.405   3.214   6.178 -0.4834 -0.4496 -0.2917
    9MOL   C143 5599   4.326   3.106   6.100  0.3526 -0.1860  0.8355
    9MOL   C144 5600   4.302   3.146   5.953  0.2730  0.7749  0.2803
    9MOL   C145 5601   4.240   3.028   5.879 -0.0376  0.0813 -0.1764
    9MOL   C146 5602   4.216   3.070   5.731  0.0431  0.5365  0.3913
    9MOL   C147 5603   4.174   2.960   5.633  0.6889  0.5819 -0.1624
    9MOL   C148 5604   4.262   2.832   5.633 -0.4810 -0.2037  0.4738
    9MOL   C149 5605   4.403   2.860   5.576 -0.6045  0.1327  0.1207
    9MOL   O150 5606   4.411   2.929   5.473 -0.0933  0.5544  0.5172
    9MOL   H151 5607   4.501   3.417   6.633 -1.9691 -0.3760 -0.1430
    9MOL   H152 5608   4.529   3.133   6.572  1.4954  0.7720  1.0072
    9MOL   H153 5609   4.364   3.177   6.605  1.1648 -1.1794  2.4226
    9MOL   H154 5610   4.563   3.300   6.398  1.2700 -2.8661  0.7769
    9MOL   H155 5611   4.401   3.360   6.414 -0.2838 -0.5156 -0.2041
    9MOL   H156 5612   4.492   3.087   6.324  1.4604  0.5274  3.2584
    9MOL   H157 5613   4.323   3.120   6.356  0.7972  1.4922  1.2506
    9MOL   H158 5614   4.508   3.232   6.146 -0.4156 -0.1463  0.0959
    9MOL   H159 5615   4.341   3.301   6.170 -3.2099 -2.5884 -2.5935
    9MOL   H160 5616   4.229   3.083   6.144 -0.3100  0.9839  0.0286
    9MOL   H161 5617   4.367   3.006   6.111  1.0868  0.0468  0.3044
    9MOL   H162 5618   4.235   3.232   5.953 -2.4642 -1.2665 -0.3331
    9MOL   H163 5619   4.386   3.178   5.891 -0.5582  1.7682 -0.3527
    9MOL   H164 5620   4.152   2.988   5.930  1.0020 -2.9658 -0.7099
    9MOL   H165 5621   4.317   2.951   5.883  0.1024  0.2012 -0.5323
    9MOL   H166 5622   4.141   3.150   5.727 -0.4717  0.0220 -0.2905
    9MOL   H167 5623   4.308   3.118   5.698 -0.9618  1.1367 -1.6398
    9MOL   H168 5624   4.170   2.993   5.529  0.7615 -0.5052 -0.5163
    9MOL   H169 5625   4.069   2.941   5.654  0.4091  0.2450 -1.8059
    9MOL   H170 5626   4.206   2.759   5.573  0.9699  0.3454 -1.6060
    9MOL   H171 5627   4.265   2.789   5.733  1.5176  0.7736  0.8501
    9MOL   N172 5628   4.505   2.809   5.649 -0.3364 -0.0068 -0.3040
    9MOL   C173 5629   4.647   2.853   5.641 -0.3822  0.5393 -0.0026
    9MOL   C174 5630   4.683   2.968   5.733 -0.1565  0.1483  0.3568
    9MOL   C175 5631   4.829   3.008   5.723  0.3662 -0.1573 -0.1367
    9MOL   C176 5632   4.941   2.905   5.749 -0.1469  0.3654 -1.0967
    9MOL   C177 5633   5.083   2.970   5.759  0.0833  0.8280 -0.0436
    9MOL   C178 5634   5.200   2.874   5.739  0.8994  0.4824  0.4157
    9MOL   C179 5635   5.333   2.953   5.750  0.3493  0.5945  0.0904
    9MOL   C180 5636   5.460   2.868   5.731  0.4108  0.4084  0.8929
    9MOL   C181 5637   5.594   2.948   5.737  0.6386  0.3822  0.8645
    9MOL   C182 5638   5.615   3.054   5.626 -0.4868 -0.2655 -0.0909
    9MOL   C183 5639   5.550   3.188   5.660 -0.3134 -0.5459  0.4963
    9MOL   O184 5640   5.569   3.249   5.765  0.7412  0.1684 -0.3520
    9MOL   H185 5641   4.492   2.747   5.727  0.6103 -0.3065 -0.3793
    9MOL   H186 5642   4.692   2.762   5.679 -1.6829 -0.5737 -1.0536
    9MOL   H187 5643   4.691   2.867   5.542 -1.9159 -2.5616 -1.2097
    9MOL   H188 5644   4.655   2.946   5.836 -1.8878  1.0624  0.1043
    9MOL   H189 5645   4.621   3.057   5.723  0.0624  0.3273  0.6055
    9MOL   H190 5646   4.849   3.054   5.626 -0.3520  0.4958  0.0227
    9MOL   H191 5647   4.837   3.086   5.799  0.1363 -0.4200  0.1554
    9MOL   H192 5648   4.937   2.846   5.658 -1.0392 -0.8888 -0.2605
    9MOL   H193 5649   4.925   2.843   5.838 -0.6989  0.9538 -0.7863
    9MOL   H194 5650   5.099   3.017   5.856 -0.4695 -1.0049  0.9606
    9MOL   H195 5651   5.101   3.046   5.684  1.1488 -0.0327 -0.6901
    9MOL   H196 5652   5.204   2.791   5.809  2.2401 -0.2025 -0.4581
    9MOL   H197 5653   5.197   2.836   5.637 -0.7420 -1.6577  1.2314
    9MOL   H198 5654   5.334   2.980   5.856  1.6037  0.6065  0.0832
    9MOL   H199 5655   5.328   3.042   5.688 -0.2342  1.7872  1.8232
    9MOL   H200 5656   5.471   2.784   5.800  0.8347 -1.7461 -1.7060
    9MOL   H201 5657   5.443   2.817   5.636 -2.1539  1.2140  0.8873
    9MOL   H202 5658   5.673   2.881   5.703 -0.2461 -1.3707  2.1793
    9MOL   H203 5659   5.628   2.975   5.837 -2.4966  1.9470  1.5662
    9MOL   H204 5660   5.577   3.012   5.533 -0.4654 -1.5243  0.4695
    9MOL   H205 5661   5.722   3.068   5.610 -0.1204 -1.2123  1.4849
    9MOL   N206 5662   5.469   3.234   5.562  0.0960 -0.2136 -0.8392
    9MOL   C207 5663   5.405   3.367   5.591 -0.4530  0.1729 -0.3276
    9MOL   C208 5664   5.307   3.377   5.472  0.5293  0.3470  0.1754
    9MOL   C209 5665   5.265   3.527   5.450 -0.4292 -0.2646 -0.2274
    9MOL   C210 5666   5.234   3.562   5.305  0.8034  0.0716 -0.4664
    9MOL   C211 5667   5.126   3.476   5.245  0.5704 -0.4484  0.2042
    9MOL   C212 5668   5.103   3.519   5.101  0.3533 -0.4913  0.1940
    9MOL   C213 5669   5.011   3.433   5.013 -0.7842  0.6867  0.1968
    9MOL   C214 5670   4.868   3.443   5.055 -0.1029 -0.1833 -0.5447
    9MOL   C215 5671   4.767   3.360   4.973 -0.1041  0.4369 -0.0537
    9MOL   C216 5672   4.615   3.364   5.005  0.6157 -0.4041 -0.3779
    9MOL   C217 5673   4.558   3.505   4.988 -0.4333  0.1580 -0.2740
    9MOL   O218 5674   4.577   3.564   4.880 -0.0236  0.4195  0.0922
    9MOL   H219 5675   5.452   3.188   5.474 -0.7212  0.3400 -0.9798
    9MOL   H220 5676   5.480   3.445   5.605 -2.1268  2.0163 -1.3466
    9MOL   H221 5677   5.349   3.354   5.684  2.0275 -2.4008  0.8761
    9MOL   H222 5678   5.220   3.314   5.489  0.4510 -0.3467 -2.5465
    9MOL   H223 5679   5.357   3.345   5.381 -0.9847 -2.3764  0.2404
    9MOL   H224 5680   5.179   3.560   5.508 -0.9813  0.2943 -1.3526
    9MOL   H225 5681   5.348   3.592   5.478  0.4759 -1.3083 -0.4329
    9MOL   H226 5682   5.324   3.541   5.248  2.4461  0.6511  1.8234
    9MOL   H227 5683   5.213   3.668   5.287  0.2584  0.4671  2.2498
    9MOL   H228 5684   5.037   3.488   5.306 -1.7769 -0.7292 -3.0573
    9MOL   H229 5685   5.166   3.375   5.255 -1.3593 -1.3026 -0.4881
    9MOL   H230 5686   5.072   3.623   5.086  1.1121 -0.3476 -0.4162
    9MOL   H231 5687   5.205   3.523   5.063 -0.0618  0.3899 -0.8459
    9MOL   H232 5688   5.034   3.328   5.032 -1.1125  0.6085  0.1726
    9MOL   H233 5689   5.015   3.454   4.906  1.3675  0.7886  0.2844
    9MOL   H234 5690   4.862   3.415   5.160  0.9039  0.1264 -0.3988
    9MOL   H235 5691   4.838   3.544   5.084  0.8078 -0.4931  1.5124
    9MOL   H236 5692   4.801   3.256   4.981 -1.5220 -0.0422 -0.2113
    9MOL   H237 5693   4.776   3.387   4.868  0.8491 -0.9946 -0.3524
    9MOL   H238 5694   4.595   3.328   5.106 -0.6420  2.6725  0.5184
    9MOL   H239 5695   4.571   3.298   4.930 -2.9051  0.4163  0.8673
    9MOL   N240 5696   4.492   3.548   5.096 -0.0845 -0.9574  0.2939
    9MOL   C241 5697   4.427   3.682   5.109  0.0306  0.6961 -0.6326
    9MOL   C242 5698   4.307   3.674   5.201  0.1845 -0.0845  0.4101
    9MOL   C243 5699   4.209   3.798   5.215 -0.0269 -0.1933  0.5136
    9MOL   C244 5700   4.111   3.819   5.093 -0.0344  0.4021 -0.1917
    9MOL   C245 5701   4.028   3.952   5.098  0.5682  0.0439  0.1529
    9MOL   C246 5702   3.933   3.964   4.976  0.0403 -0.3716 -0.4291
    9MOL   C247 5703   3.892   4.108   4.953 -0.0756 -0.5649 -0.0974
    9MOL   C248 5704   3.821   4.153   4.829 -0.0266 -0.1703 -1.2894
    9MOL   C249 5705   3.751   4.286   4.833 -0.4235  0.2483  0.3066
    9MOL   C250 5706   3.726   4.343   4.693  0.2332  0.3257 -0.1268
    9MOL   C251 5707   3.645   4.475   4.681  0.2899 -0.4364  0.3066
    9MOL   O252 5708   3.525   4.461   4.699 -0.3151 -0.4121 -0.3033
    9MOL   H253 5709   4.482   3.488   5.176 -1.6469 -0.0553  0.7873
    9MOL   H254 5710   4.394   3.721   5.013 -1.3965  0.2745 -0.3306
    9MOL   H255 5711   4.491   3.762   5.147 -2.3799  2.3540  0.0615
    9MOL   H256 5712   4.345   3.657   5.302  0.8226 -0.6011  0.0897
    9MOL   H257 5713   4.245   3.590   5.173 -1.8660  1.2047  0.9980
    9MOL   H258 5714   4.164   3.788   5.314  2.3714 -2.3207  1.4539
    9MOL   H259 5715   4.256   3.897   5.220 -1.2615  0.3342  1.8535
    9MOL   H260 5716   4.048   3.730   5.088 -0.4596  0.6892  0.0727
    9MOL   H261 5717   4.162   3.812   4.997 -0.0080  0.0319 -0.1533
    9MOL   H262 5718   4.087   4.044   5.097  0.6416 -0.0082 -0.6396
    9MOL   H263 5719   3.980   3.970   5.193 -0.2046  0.9303 -0.3941
    9MOL   H264 5720   3.991   3.925   4.892  0.6814  2.5525 -1.3917
    9MOL   H265 5721   3.857   3.886   4.986  2.6395 -2.8913  0.5211
    9MOL   H266 5722   3.975   4.172   4.982 -0.4604 -0.8891  1.8256
    9MOL   H267 5723   3.815   4.118   5.030 -1.8199 -2.2834 -1.5676
    9MOL   H268 5724   3.895   4.157   4.749  0.7494 -1.4159 -0.6475
    9MOL   H269 5725   3.744   4.077   4.813 -0.9281  0.5297 -0.3400
    9MOL   H270 5726   3.817   4.358   4.880  0.4083 -0.6821  0.5628
    9MOL   H271 5727   3.658   4.289   4.890 -0.1658  2.8681  0.6606
    9MOL   H272 5728   3.669   4.267   4.641  2.3926 -1.4072 -0.0515
    9MOL   H273 5729   3.814   4.359   4.629 -1.5435  1.0755 -2.4489
    9MOL   N274 5730   3.699   4.599   4.655  0.3828  0.0400 -0.6981
    9MOL   C275 5731   3.634   4.723   4.631 -0.1588 -0.1225  0.4840
    9MOL   C276 5732   3.571   4.790   4.754 -0.3079 -0.6685 -0.2622
    9MOL   C277 5733   3.552   4.941   4.731  0.3392 -0.2912 -0.3771
    9MOL   C278 5734   3.486   5.021   4.840  0.0320 -0.9242 -0.1984
    9MOL   C279 5735   3.480   5.166   4.805 -0.4341  0.6122  0.0532
    9MOL   C280 5736   3.420   5.247   4.925  0.4324 -0.0016  0.6565
    9MOL   C281 5737   3.443   5.398   4.909 -0.6723 -0.5081  0.7711
    9MOL   C282 5738   3.537   5.454   5.023  0.0520  0.4503  0.6504
    9MOL   C283 5739   3.678   5.403   5.030 -0.1980 -0.1396  0.2428
    9MOL   C284 5740   3.776   5.504   5.087  0.3837 -0.2136  0.1603
    9MOL   C285 5741   3.766   5.523   5.238  0.6765 -0.3075 -0.2801
    9MOL   O286 5742   3.848   5.468   5.309  0.2354  0.2094 -0.4763
    9MOL   H287 5743   3.799   4.596   4.640  0.3147  0.3571 -1.2239
    9MOL   H288 5744   3.562   4.702   4.552 -1.2038  1.1946  1.0520
    9MOL   H289 5745   3.711   4.789   4.592 -1.3370  0.9181 -0.1518
    9MOL   H290 5746   3.621   4.771   4.849 -0.8052 -1.0400 -0.0726
    9MOL   H291 5747   3.469   4.752   4.760 -0.3721 -0.6882 -1.4602
    9MOL   H292 5748   3.643   4.997   4.709 -0.3035  0.5981 -0.8242
    9MOL   H293 5749   3.501   4.948   4.634 -0.8656 -4.8749 -0.1669
    9MOL   H294 5750   3.546   5.006   4.929 -0.0055 -0.5063 -0.1007
    9MOL   H295 5751   3.387   4.982   4.863  0.0785 -0.8310  0.1614
    9MOL   H296 5752   3.420   5.188   4.717 -2.0207  1.2007  1.2595
    9MOL   H297 5753   3.584   5.195   4.795 -0.9688  2.2525 -0.8127
    9MOL   H298 5754   3.312   5.240   4.931  0.3445  0.0244 -0.7660
    9MOL   H299 5755   3.454   5.212   5.022 -0.0914 -1.0514  0.4775
    9MOL   H300 5756   3.343   5.441   4.912 -0.3332  0.4265 -0.9872
    9MOL   H301 5757   3.487   5.408   4.810 -0.4397 -2.0879  0.7016
    9MOL   H302 5758   3.548   5.563   5.015 -0.7346  0.6508  2.1004
    9MOL   H303 5759   3.503   5.426   5.123 -0.7345 -0.5216  0.1121
    9MOL   H304 5760   3.713   5.385   4.929  0.6792 -0.8497  0.6611
    9MOL   H305 5761   3.681   5.305   5.078  0.3576 -0.8100 -1.1461
    9MOL   H306 5762   3.773   5.599   5.032  0.1946  0.4862  1.3626
    9MOL   H307 5763   3.877   5.466   5.073  0.2693 -0.3348 -0.3604
    9MOL   N308 5764   3.669   5.603   5.280 -0.3202 -0.3636  0.2187
    9MOL   C309 5765   3.664   5.651   5.417  0.1595 -0.8131 -0.2553
    9MOL   C310 5766   3.719   5.800   5.433  0.4145  0.1531 -0.4187
    9MOL   C311 5767   3.605   5.909   5.421  0.2503  0.1602  0.5138
    9MOL   C312 5768   3.522   5.907   5.292  0.2326  0.5638  1.1772
    9MOL   C313 5769   3.618   5.935   5.172  0.4955 -0.7322 -0.1585
    9MOL   C314 5770   3.542   5.979   5.048 -0.2857 -0.7202  0.0379
    9MOL   C315 5771   3.473   5.857   4.974  0.1589 -0.2862  0.1965
    9MOL   C316 5772   3.371   5.900   4.866 -0.2954 -0.4360  0.1544
    9MOL   C317 5773   3.308   5.780   4.798 -0.0524  0.2224  0.6194
    9MOL   C318 5774   3.393   5.698   4.705  0.2176 -0.4130  0.3526
    9MOL   C319 5775   3.326   5.579   4.634 -0.7666 -0.0124 -0.8095
    9MOL   O320 5776   3.204   5.553   4.661 -0.3618 -0.0156 -0.3661
    9MOL   H321 5777   3.598   5.629   5.213  1.8930  2.4784 -1.1321
    9MOL   H322 5778   3.711   5.571   5.475 -0.0438 -0.8672 -0.1645
    9MOL   H323 5779   3.565   5.643   5.464  0.5984 -1.4806  0.5826
    9MOL   H324 5780   3.794   5.808   5.354 -0.3769 -4.1527 -1.7322
    9MOL   H325 5781   3.768   5.796   5.530  0.9602  0.0590 -0.6945
    9MOL   H326 5782   3.541   5.919   5.509  0.8747 -0.6196  1.0609
    9MOL   H327 5783   3.658   6.003   5.437  1.2543 -0.6562  2.1463
    9MOL   H328 5784   3.448   5.985   5.309 -0.3671  0.0491  0.9629
    9MOL   H329 5785   3.464   5.817   5.271 -0.8311  1.6656 -0.7789
    9MOL   H330 5786   3.677   5.848   5.141  0.5101  0.5006 -3.8383
    9MOL   H331 5787   3.676   6.023   5.200 -0.5922 -0.2223  0.5198
    9MOL   H332 5788   3.469   6.057   5.068  0.2288 -0.0823 -0.5769
    9MOL   H333 5789   3.621   6.019   4.985 -0.3251  0.8567  0.9892
    9MOL   H334 5790   3.409   5.809   5.048  0.3994 -0.7134  0.1271
    9MOL   H335 5791   3.548   5.785   4.939  0.6441  0.2559  0.1178
    9MOL   H336 5792   3.289   5.958   4.908 -0.4414  1.2238 -2.3454
    9MOL   H337 5793   3.426   5.957   4.791  1.1811  0.0403  1.5749
    9MOL   H338 5794   3.233   5.815   4.727  1.2324 -1.2311 -1.5140
    9MOL   H339 5795   3.251   5.720   4.868 -0.3211  0.9345  1.0191
    9MOL   H340 5796   3.471   5.651   4.765  0.1985 -1.9839 -0.8252
    9MOL   H341 5797   3.454   5.751   4.632 -1.0911  1.2578  0.4616
    9MOL   N342 5798   3.398   5.507   4.546  0.4160 -0.1320 -0.1827
    9MOL   C343 5799   3.358   5.381   4.490 -0.9972  0.8628  0.3502
    9MOL   C344 5800   3.482   5.305   4.445 -0.2921  0.0842  0.4935
    9MOL   C345 5801   3.445   5.196   4.348 -1.0362  0.5054 -0.0883
    9MOL   C346 5802   3.564   5.102   4.322 -0.4505 -0.7080  0.1238
    9MOL   C347 5803   3.535   4.980   4.236  0.2586  0.1592 -0.2024
    9MOL   C348 5804   3.653   4.883   4.228  0.3110 -0.0629 -0.5460
    9MOL   C349 5805   3.622   4.750   4.157  0.5346 -0.5926  0.3728
    9MOL   C350 5806   3.729   4.642   4.136  0.5948 -0.4804  0.1840
    9MOL   C351 5807   3.696   4.529   4.038 -0.0537  0.3061  0.2651
    9MOL   C352 5808   3.742   4.538   3.890  0.0393 -0.5869  0.2355
    9MOL   C353 5809   3.889   4.533   3.863  0.1955 -0.0662 -0.4445
    9MOL   O354 5810   3.970   4.544   3.952 -0.6453  0.4715 -0.1457
    9MOL   H355 5811   3.490   5.542   4.522  1.3297 -1.9383  0.5862
    9MOL   H356 5812   3.303   5.319   4.560 -0.2280 -0.3465 -0.1059
    9MOL   H357 5813   3.284   5.399   4.412 -1.2406  1.2378  0.6675
    9MOL   H358 5814   3.546   5.264   4.522  1.0804 -2.9583 -2.1670
    9MOL   H359 5815   3.552   5.366   4.387 -1.7154 -1.7815 -3.3974
    9MOL   H360 5816   3.363   5.140   4.394  0.6437 -1.4614  0.5563
    9MOL   H361 5817   3.415   5.232   4.250 -0.7670 -0.5414 -0.5670
    9MOL   H362 5818   3.596   5.061   4.417 -0.3955 -2.0054 -0.4480
    9MOL   H363 5819   3.635   5.169   4.275 -0.5836 -0.6524  0.0012
    9MOL   H364 5820   3.499   5.003   4.135 -0.2877  1.5218  0.2947
    9MOL   H365 5821   3.455   4.923   4.284  1.1644  0.0263  1.1685
    9MOL   H366 5822   3.732   4.934   4.173  0.6020 -1.7793 -1.7459
    9MOL   H367 5823   3.700   4.869   4.326  1.1877 -0.5126 -1.0255
    9MOL   H368 5824   3.584   4.779   4.059 -0.0093 -2.1148  0.1238
    9MOL   H369 5825   3.536   4.703   4.205  1.3285 -1.4785  0.9492
    9MOL   H370 5826   3.820   4.691   4.102  0.2332 -1.2473 -1.9805
    9MOL   H371 5827   3.736   4.584   4.228  2.4228 -1.0798 -0.3289
    9MOL   H372 5828   3.591   4.501   4.044 -0.2086  0.7069 -0.4960
    9MOL   H373 5829   3.729   4.439   4.089  1.1201  0.2392 -0.6074
    9MOL   H374 5830   3.705   4.630   3.845  1.2504 -0.5463 -0.7008
    9MOL   H375 5831   3.695   4.455   3.838  1.0765 -1.3723  0.5328
    9MOL   N376 5832   3.921   4.522   3.729  0.4894  0.7788 -0.6007
    9MOL   C377 5833   4.054   4.523   3.682 -0.0379  0.0090 -0.1003
    9MOL   C378 5834   4.066   4.473   3.534 -0.1662  0.3217  0.4124
    9MOL   C379 5835   4.218   4.449   3.510 -0.2157  0.0965 -0.3611
    9MOL   C380 5836   4.248   4.400   3.367 -0.5029 -0.4673 -0.3695
    9MOL   C381 5837   4.394   4.407   3.321 -0.3697  0.0923 -0.1070
    9MOL   C382 5838   4.409   4.381   3.170 -0.4794  0.2964 -0.5065
    9MOL   C383 5839   4.554   4.379   3.112 -0.1936  0.0451 -0.4960
    9MOL   C384 5840   4.613   4.524   3.091 -0.2598  0.0276  0.4961
    9MOL   C385 5841   4.725   4.517   2.981 -0.0725 -0.3060 -0.7815
    9MOL   C386 5842   4.673   4.522   2.835  0.2590  0.1048  0.5921
    9MOL   C387 5843   4.628   4.666   2.795 -0.2841 -0.3316 -0.5457
    9MOL   O388 5844   4.708   4.759   2.811 -0.4228 -0.3196  0.5952
    9MOL   H389 5845   3.852   4.545   3.658  1.9933 -0.2145 -2.4265
    9MOL   H390 5846   4.109   4.615   3.703  2.2880 -1.1185 -1.1244
    9MOL   H391 5847   4.106   4.445   3.736 -0.3225 -2.0941 -2.7563
    9MOL   H392 5848   4.026   4.538   3.456  0.7831 -0.4356 -0.7395
    9MOL   H393 5849   4.013   4.377   3.525  2.0220 -0.8994  0.2161
    9MOL   H394 5850   4.272   4.543   3.518  1.1508 -0.8678  2.2936
    9MOL   H395 5851   4.258   4.378   3.582  0.6719  0.3359 -0.6164
    9MOL   H396 5852   4.183   4.467   3.310 -1.6730 -1.1312  0.1659
    9MOL   H397 5853   4.212   4.299   3.349  0.5529 -0.6577 -1.5259
    9MOL   H398 5854   4.463   4.339   3.370  0.1807 -1.0920 -2.4641
    9MOL   H399 5855   4.437   4.505   3.345 -3.7817  1.6112  0.1917
    9MOL   H400 5856   4.354   4.288   3.155 -1.9805  1.1634 -0.4683
    9MOL   H401 5857   4.354   4.460   3.119 -2.0950 -0.3598  0.1826
    9MOL   H402 5858   4.550   4.321   3.020 -2.6857 -1.0598  0.2562
    9MOL   H403 5859   4.615   4.316   3.176 -0.3963 -0.5253 -0.8680
    9MOL   H404 5860   4.542   4.600   3.058  0.5544  1.5190  2.0647
    9MOL   H405 5861   4.672   4.556   3.178  2.1612  1.0899 -1.4809
    9MOL   H406 5862   4.782   4.427   3.002 -1.4548 -0.7487  1.1803
    9MOL   H407 5863   4.793   4.597   3.009  0.0055 -0.9506  0.9320
    9MOL   H408 5864   4.586   4.463   2.806 -0.4032  0.8691  0.9922
    9MOL   H409 5865   4.741   4.495   2.754  1.6511 -0.8769  2.0699
    9MOL   N410 5866   4.512   4.683   2.737  0.5030  0.1821 -0.0880
    9MOL   C411 5867   4.466   4.797   2.662  0.0828  0.4824  0.4835
    9MOL   C412 5868   4.338   4.865   2.721 -0.1620 -0.7540 -0.1965
    9MOL   C413 5869   4.332   4.857   2.880 -0.6473 -0.8163 -1.0368
    9MOL   C414 5870   4.440   4.951   2.949  0.0176 -0.1907 -0.2945
    9MOL   C415 5871   4.405   4.997   3.089 -0.0105 -0.4414  0.3479
    9MOL   C416 5872   4.427   4.893   3.194  0.0347  0.7647 -0.9090
    9MOL   C417 5873   4.397   4.949   3.341 -1.0302 -0.4468  0.2931
    9MOL   C418 5874   4.400   4.850   3.455  0.1681  0.1447 -0.3563
    9MOL   C419 5875   4.318   4.891   3.580 -0.1773  0.6056  0.3450
    9MOL   C420 5876   4.364   5.024   3.642 -0.2419 -0.1248 -0.3481
    9MOL   C421 5877   4.490   5.018   3.734 -0.3021 -0.0583  0.6545
    9MOL   O422 5878   4.517   4.916   3.799  0.2757 -0.1294 -0.0745
    9MOL   H423 5879   4.451   4.602   2.734  1.6459 -0.6187 -2.8696
    9MOL   H424 5880   4.544   4.874   2.654 -0.0777  0.5147 -0.8411
    9MOL   H425 5881   4.436   4.790   2.558 -2.8620  1.8429  1.1949
    9MOL   H426 5882   4.252   4.820   2.672 -0.3107  0.0895 -0.7171
    9MOL   H427 5883   4.344   4.969   2.691  0.3456 -0.9298 -0.7294
    9MOL   H428 5884   4.237   4.894   2.920 -1.1088 -3.0768  0.0116
    9MOL   H429 5885   4.344   4.759   2.925 -0.0465  0.2125  1.1677
    9MOL   H430 5886   4.455   5.040   2.888 -0.9309 -0.5070 -0.9921
    9MOL   H431 5887   4.537   4.901   2.948  0.6465  1.0181 -0.5007
    9MOL   H432 5888   4.298   5.019   3.086 -0.7427 -3.7307  0.9167
    9MOL   H433 5889   4.463   5.088   3.104  0.7857 -0.4931 -2.1462
    9MOL   H434 5890   4.354   4.814   3.175  1.4897 -0.4128 -1.7229
    9MOL   H435 5891   4.524   4.845   3.190  0.0173  0.5766  0.7913
    9MOL   H436 5892   4.302   5.000   3.331  0.2149  1.1065 -5.1921
    9MOL   H437 5893   4.463   5.036   3.355  1.3979 -2.1769 -0.0456
    9MOL   H438 5894   4.366   4.750   3.431  1.0581 -0.3195  0.2843
    9MOL   H439 5895   4.506   4.846   3.484  0.2023  0.0905 -0.4911
    9MOL   H440 5896   4.318   4.807   3.650  1.8947  1.2558  1.1739
    9MOL   H441 5897   4.213   4.899   3.553 -0.2434  0.5446  0.5840
    9MOL   H442 5898   4.278   5.057   3.701  1.2887  5.4502 -0.9361
    9MOL   H443 5899   4.381   5.098   3.564  2.0506 -0.9427 -0.6561
    9MOL   N444 5900   4.572   5.127   3.734  0.1927  0.3450  0.2139
    9MOL   C445 5901   4.699   5.126   3.794  0.2089  0.0125  0.6933
    9MOL   C446 5902   4.787   5.243   3.753 -0.3369  0.1681 -0.0105
    9MOL   C447 5903   4.922   5.239   3.830 -0.2417  0.1993 -1.1004
    9MOL   C448 5904   4.911   5.241   3.987 -0.9046  0.3199 -0.0622
    9MOL   C449 5905   5.048   5.270   4.062 -0.0929 -0.5325 -0.1224
    9MOL   C450 5906   5.020   5.288   4.215  0.2330 -0.1736 -0.5002
    9MOL   C451 5907   5.132   5.361   4.291  0.1153 -0.2603 -0.0349
    9MOL   C452 5908   5.271   5.304   4.291  0.0193  0.0414  0.2225
    9MOL   C453 5909   5.370   5.394   4.362 -0.0398 -1.1283 -0.1472
    9MOL   C454 5910   5.506   5.324   4.373  0.4494  0.0035 -0.3365
    9MOL   C455 5911   5.619   5.414   4.430  0.5534  0.8037 -1.0722
    9MOL   O456 5912   5.590   5.474   4.532  0.2594  0.1755  0.0146
    9MOL   H457 5913   4.544   5.214   3.691 -1.3951 -0.5262 -0.5776
    9MOL   H458 5914   4.683   5.124   3.902 -1.2248  2.1039  0.5522
    9MOL   H459 5915   4.744   5.029   3.774  1.7997  0.8685 -0.0169
    9MOL   H460 5916   4.728   5.334   3.763 -3.2194 -1.4803 -1.3777
    9MOL   H461 5917   4.803   5.244   3.645  0.4524 -0.5450  0.1004
    9MOL   H462 5918   4.994   5.165   3.795  0.7643  0.2773  0.7537
    9MOL   H463 5919   4.962   5.339   3.812 -0.9483  0.5754 -0.6252
    9MOL   H464 5920   4.877   5.149   4.035  2.0995 -0.6976  0.1902
    9MOL   H465 5921   4.843   5.325   4.006  2.0798  2.9560 -0.6687
    9MOL   H466 5922   5.094   5.361   4.025 -0.9329 -0.5642 -1.2828
    9MOL   H467 5923   5.122   5.193   4.040  1.6146  1.3320 -1.0515
    9MOL   H468 5924   4.926   5.339   4.235  0.8086  0.2501  1.2233
    9MOL   H469 5925   5.000   5.193   4.264  0.5236 -1.1526 -2.2333
    9MOL   H470 5926   5.104   5.379   4.394 -1.5335 -3.0956  0.0556
    9MOL   H471 5927   5.140   5.456   4.238  2.3563 -0.1375  0.4526
    9MOL   H472 5928   5.272   5.209   4.344 -2.0778  0.0216  0.2516
    9MOL   H473 5929   5.308   5.290   4.189  0.3221 -0.6088  0.4156
    9MOL   H474 5930   5.342   5.414   4.466 -1.8968  2.9278 -1.3103
    9MOL   H475 5931   5.383   5.489   4.310  0.5910 -1.0411  0.1661
    9MOL   H476 5932   5.537   5.287   4.276  1.2317 -1.5592  0.4994
    9MOL   H477 5933   5.505   5.241   4.443  2.3802  1.7673  1.9048
    9MOL   N478 5934   5.731   5.420   4.361 -0.2788  0.4781  0.3258
    9MOL   C479 5935   5.839   5.504   4.407 -0.4129 -0.1894 -0.0939
    9MOL   C480 5936   5.807   5.653   4.380  0.3966 -0.1443  0.1778
    9MOL   C481 5937   5.931   5.746   4.398 -0.2561  0.0954 -0.0667
    9MOL   C482 5938   5.983   5.759   4.541 -0.6632 -0.4117  0.2024
    9MOL   C483 5939   6.117   5.835   4.537 -0.2488  0.1976  0.6216
    9MOL   C484 5940   6.157   5.868   4.679  0.4486 -0.0782  0.0293
    9MOL   C485 5941   6.259   5.985   4.691  0.2481 -0.5849  0.5138
    9MOL   C486 5942   6.280   6.012   4.842 -0.7485  0.0635  1.1401
    9MOL   C487 5943   6.406   6.095   4.867 -0.3438  0.0093  0.4044
    9MOL   C488 5944   6.392   6.234   4.807 -0.2384 -0.5242  0.2146
    9MOL   C489 5945   6.530   6.302   4.779 -0.4883  0.2643 -0.2134
    9MOL   O490 5946   6.622   6.238   4.730 -0.1380 -0.1607 -0.2276
    9MOL   H491 5947   5.751   5.363   4.280 -0.6178 -0.1280  0.6669
    9MOL   H492 5948   5.858   5.490   4.513  2.7814 -2.3822 -0.8628
    9MOL   H493 5949   5.936   5.483   4.362  0.7650  2.0138  1.3181
    9MOL   H494 5950   5.727   5.684   4.447  0.4513 -0.6690  0.4862
    9MOL   H495 5951   5.770   5.671   4.279 -0.2904 -0.8403  0.2967
    9MOL   H496 5952   6.017   5.705   4.345 -1.2265 -0.8665 -0.8923
    9MOL   H497 5953   5.912   5.846   4.360  1.4358  1.0501  1.4735
    9MOL   H498 5954   6.004   5.657   4.572 -1.3637 -0.8124 -0.6067
    9MOL   H499 5955   5.912   5.805   4.609  1.2380  0.6076  1.5191
    9MOL   H500 5956   6.114   5.926   4.478 -1.7765  0.6585  1.3674
    9MOL   H501 5957   6.204   5.791   4.488  0.0362 -0.1242  1.4167
    9MOL   H502 5958   6.067   5.898   4.732  1.0087 -3.1314  2.9272
    9MOL   H503 5959   6.190   5.772   4.719  0.1290 -0.0607  0.3325
    9MOL   H504 5960   6.230   6.079   4.642 -1.8131 -1.7296 -0.5673
    9MOL   H505 5961   6.350   5.967   4.635  1.3350 -1.1373  2.4293
    9MOL   H506 5962   6.195   6.060   4.890 -2.3278 -0.1195 -1.4293
    9MOL   H507 5963   6.314   5.919   4.888  0.2776  0.7734  1.8361
    9MOL   H508 5964   6.493   6.043   4.828 -0.2806  0.1597  0.3472
    9MOL   H509 5965   6.418   6.110   4.975  1.0861 -2.0564  0.5582
    9MOL   H510 5966   6.321   6.300   4.857 -2.1890 -0.4295 -2.6061
    9MOL   H511 5967   6.355   6.222   4.706 -0.9594 -0.6239  0.4864
    9MOL   N512 5968   6.540   6.428   4.822 -0.7878 -0.0602 -0.1303
    9MOL   C513 5969   6.650   6.520   4.796 -0.5387  0.0857 -0.3152
    9MOL   C514 5970   6.738   6.537   4.928  0.4075 -0.1125  0.8110
    9MOL   C515 5971   6.853   6.643   4.908 -0.0565 -0.0968 -0.1129
    9MOL   C516 5972   6.917   6.686   5.038  0.1546  0.4932  0.6917
    9MOL   C517 5973   7.029   6.785   5.015 -0.3221 -0.1975 -0.4952
    9MOL   C518 5974   7.092   6.848   5.139 -0.1199 -1.1112  0.2490
    9MOL   C519 5975   7.209   6.944   5.105  0.0985 -0.5548 -0.3633
    9MOL   C520 5976   7.165   7.067   5.029 -0.2440 -0.6203  0.3689
    9MOL   C521 5977   7.063   7.158   5.088  0.5245  0.1339 -0.4037
    9MOL   C522 5978   7.062   7.303   5.030 -0.1296  0.5265  0.3955
    9MOL   C523 5979   7.054   7.311   4.878 -0.0749  0.8338  0.0818
    9MOL   O524 5980   7.146   7.363   4.813 -0.2294  0.0535  0.0118
    9MOL   H525 5981   6.450   6.472   4.838  0.5877  3.0334 -0.4517
    9MOL   H526 5982   6.714   6.501   4.710 -1.3618  1.2102 -1.1942
    9MOL   H527 5983   6.613   6.619   4.772  1.4300  0.6967 -0.8821
    9MOL   H528 5984   6.779   6.441   4.959  0.5060 -0.1716  0.5088
    9MOL   H529 5985   6.666   6.568   5.003  0.1088 -0.4209  0.6543
    9MOL   H530 5986   6.929   6.608   4.838 -0.8908 -1.5896 -0.2831
    9MOL   H531 5987   6.797   6.726   4.865  0.4681  0.4185  0.1970
    9MOL   H532 5988   6.949   6.603   5.100  0.7895 -1.0477 -1.6317
    9MOL   H533 5989   6.846   6.738   5.103 -1.9861  1.0577 -1.9911
    9MOL   H534 5990   6.981   6.859   4.950 -0.7242 -0.4965 -0.5425
    9MOL   H535 5991   7.101   6.727   4.958 -0.4204 -1.0128  0.1953
    9MOL   H536 5992   7.024   6.901   5.205 -0.2712  0.5713 -1.1969
    9MOL   H537 5993   7.127   6.762   5.196  2.9616 -0.6422 -0.8257
    9MOL   H538 5994   7.284   6.888   5.050  3.8595 -0.4259  4.3026
    9MOL   H539 5995   7.261   6.971   5.197  1.0512 -1.0302 -0.7506
    9MOL   H540 5996   7.260   7.118   5.019 -0.7746  0.0940 -1.0999
    9MOL   H541 5997   7.151   7.028   4.928  1.3689  0.2930 -0.2119
    9MOL   H542 5998   7.087   7.159   5.194  0.7266 -0.3148 -0.4445
    9MOL   H543 5999   6.966   7.109   5.079  0.9226 -0.9144  0.8949
    9MOL   H544 6000   7.159   7.350   5.051  1.7578 -3.7709  2.0064
    9MOL   H545 6001   6.981   7.358   5.078  1.1444  2.6647  0.1803
    9MOL   N546 6002   6.944   7.275   4.824  0.2890  0.6960  0.4571
    9MOL   C547 6003   6.919   7.251   4.684 -0.8180 -0.4718  0.5824
    9MOL   C548 6004   6.942   7.377   4.602  0.7215 -0.0115  0.2079
    9MOL   C549 6005   6.822   7.475   4.614  0.0873 -0.3354  0.6659
    9MOL   C550 6006   6.825   7.606   4.536  0.4470  0.1837  0.2910
    9MOL   C551 6007   6.856   7.598   4.383 -0.1938  0.3375 -0.6252
    9MOL   C552 6008   6.852   0.012   4.306  0.2611  0.0172  0.3172
    9MOL   C553 6009   6.705   0.063   4.277  0.3303 -0.0204  0.0349
    9MOL   C554 6010   6.712   0.193   4.191 -0.1417  0.9354 -0.5125
    9MOL   C555 6011   6.768   0.172   4.051  0.2482 -0.4948  0.3850
    9MOL   C556 6012   6.770   0.293   3.959  0.0842  0.3207  0.0745
    9MOL   C557 6013   6.867   0.395   4.013 -0.0930 -0.0878 -0.2616
    9MOL   O558 6014   6.831   0.482   4.092  0.1698  0.1972 -0.4542
    9MOL   H559 6015   6.886   7.231   4.894  1.2594 -1.2024  0.0819
    9MOL   H560 6016   6.997   7.178   4.664  0.2769  0.0962  2.6186
    9MOL   H561 6017   6.836   7.183   4.664 -0.9939  0.3532 -1.6440
    9MOL   H562 6018   6.956   7.361   4.495 -2.4559 -0.5558 -0.1662
    9MOL   H563 6019   7.032   7.434   4.625  2.5995 -2.3643 -1.0980
    9MOL   H564 6020   6.729   7.423   4.593  0.5591 -0.6974 -0.5437
    9MOL   H565 6021   6.808   7.499   4.720  1.4383  1.3628  0.4712
    9MOL   H566 6022   6.914   7.658   4.572  1.5630 -0.5749 -1.3144
    9MOL   H567 6023   6.734   7.664   4.549  0.3146  0.2228 -0.7754
    9MOL   H568 6024   6.783   7.523   4.352  0.3552 -0.7675  0.6963
    9MOL   H569 6025   6.951   7.547   4.371  0.5535  2.1101 -2.4625
    9MOL   H570 6026   6.898   0.089   4.369  1.1609  0.6535 -1.1029
    9MOL   H571 6027   6.904   0.001   4.212  3.0230  2.5847  1.4618
    9MOL   H572 6028   6.640   0.070   4.364 -0.7056 -0.4401 -0.6912
    9MOL   H573 6029   6.661   7.703   4.212 -0.1210  0.7105 -0.5218
    9MOL   H574 6030   6.618   0.249   4.198 -1.2557 -0.8378 -0.8986
    9MOL   H575 6031   6.774   0.258   4.252 -1.2719 -0.0208  1.6957
    9MOL   H576 6032   6.700   0.106   3.997  0.5580 -0.7235  0.2715
    9MOL   H577 6033   6.871   0.136   4.041  0.2847 -0.2472 -0.1801
    9MOL   H578 6034   6.673   0.341   3.941 -1.2018 -2.1377  0.2427
    9MOL   H579 6035   6.791   0.250   3.861  2.5630  0.5462  0.4795
    9MOL   N580 6036   6.981   0.404   3.943  0.0985 -0.5652 -0.3645
    9MOL   C581 6037   7.102   0.475   3.982  0.0252 -0.4169 -0.4676
    9MOL   C582 6038   7.223   0.384   3.949  0.0677 -0.4012 -0.8152
    9MOL   C583 6039   7.207   0.238   4.012 -0.1299 -0.5681  0.1538
    9MOL   C584 6040   7.218   0.232   4.166 -0.0712  0.0802 -0.2241
    9MOL   C585 6041   7.223   0.088   4.230 -0.2595  0.3783 -0.7634
    9MOL   C586 6042   7.252   0.096   4.386 -0.5965  0.0205 -0.3285
    9MOL   C587 6043   7.215   7.677   4.464  0.1990 -0.0921  0.4791
    9MOL   C588 6044   7.253   7.677   4.624 -0.0275  0.5999  0.3105
    9MOL   C589 6045   7.402   7.644   4.653 -0.3538 -0.1672  0.6709
    9MOL   C590 6046   7.419   7.581   4.791  0.4282 -0.5277  0.2347
    9MOL   C591 6047   7.356   7.662   4.906  0.1840  0.2376 -0.2825
    9MOL   O592 6048   7.397   0.054   4.943  0.3474 -0.4924 -0.3027
    9MOL   H593 6049   7.003   0.335   3.873  1.2724 -1.4396  0.8481
    9MOL   H594 6050   7.109   0.567   3.925  1.4184  1.4393  2.5595
    9MOL   H595 6051   7.113   0.480   4.090  0.9768 -3.3549 -0.3898
    9MOL   H596 6052   7.309   0.431   3.997 -0.0433  0.1494 -1.1530
    9MOL   H597 6053   7.238   0.361   3.843 -0.2293 -0.5105 -0.8331
    9MOL   H598 6054   7.118   0.181   3.985 -0.4059  0.7568 -1.8398
    9MOL   H599 6055   7.292   0.182   3.974 -0.6184 -1.6284  0.6132
    9MOL   H600 6056   7.136   0.294   4.200 -1.1291 -2.4490  2.0435
    9MOL   H601 6057   7.313   0.281   4.190 -0.2288 -0.6215  2.0217
    9MOL   H602 6058   7.296   0.020   4.187 -1.1195  0.1416 -1.9134
    9MOL   H603 6059   7.129   0.033   4.218 -1.3377  1.9705  0.0737
    9MOL   H604 6060   7.357   0.124   4.394 -0.9622  1.7973 -1.4811
    9MOL   H605 6061   7.203   0.185   4.424  1.5755  0.0591  2.5618
    9MOL   H606 6062   7.252   7.589   4.412 -0.8513  0.0144 -0.4747
    9MOL   H607 6063   7.107   7.667   4.454  0.4843 -2.1723 -0.8495
    9MOL   H608 6064   7.210   0.049   4.673 -0.7718  0.0621  0.6454
    9MOL   H609 6065   7.197   7.591   4.662  1.6155 -0.5004  0.2622
    9MOL   H610 6066   7.466   0.015   4.640  0.6590 -0.5274  3.1082
    9MOL   H611 6067   7.436   7.572   4.578 -2.2897 -0.8470  0.4013
    9MOL   H612 6068   7.522   7.552   4.810  0.5137 -0.1097  0.4185
    9MOL   H613 6069   7.372   7.483   4.789  1.5917 -1.0881  0.0985
    9MOL   N614 6070   7.250   7.604   4.963  0.2225 -0.5293 -0.1483
    9MOL   C615 6071   7.178   7.654   5.077 -0.3520  0.6198  0.3923
    9MOL   C616 6072   7.240   7.593   5.206 -0.0467  0.0424 -0.3616
    9MOL   C617 6073   7.163   7.644   5.332 -0.0796 -0.2467 -0.6155
    9MOL   C618 6074   7.014   7.597   5.342  0.2899  0.4197 -0.0766
    9MOL   C619 6075   6.962   7.629   5.486  0.3286 -0.3046  0.4233
    9MOL   C620 6076   6.823   7.576   5.527 -0.2467 -0.7048  0.0460
    9MOL   C621 6077   6.811   7.584   5.676  0.2760 -0.4478  0.5805
    9MOL   C622 6078   6.671   7.538   5.727  0.6407 -0.2220  0.2627
    9MOL   C623 6079   6.670   7.512   5.874 -0.3130 -0.0954 -0.1426
    9MOL   C624 6080   6.534   7.453   5.935  0.1390 -0.5279 -0.9673
    9MOL   C625 6081   6.430   7.564   5.961 -0.7855 -0.0599 -0.2676
    9MOL   O626 6082   6.450   7.676   5.921 -0.2510 -0.2676 -0.1604
    9MOL   H627 6083   7.205   7.526   4.917  0.9655 -1.1702  0.2041
    9MOL   H628 6084   7.073   7.625   5.076 -0.4402  0.8440  2.0083
    9MOL   H629 6085   7.168   0.047   5.085  0.5374  0.6098  1.8313
    9MOL   H630 6086   7.346   7.610   5.224 -0.2236 -1.0082  1.8541
    9MOL   H631 6087   7.249   7.484   5.206 -2.2757 -0.1593  1.4402
    9MOL   H632 6088   7.222   7.618   5.420 -0.1937 -0.5084 -0.6158
    9MOL   H633 6089   7.151   0.037   5.322 -0.1641 -0.3398 -1.6575
    9MOL   H634 6090   6.998   7.492   5.317 -3.5800  0.4075  2.1060
    9MOL   H635 6091   6.951   7.644   5.267  1.1359  1.6803 -0.0170
    9MOL   H636 6092   6.973   0.016   5.520 -1.9741 -0.1413  0.7646
    9MOL   H637 6093   7.028   7.583   5.559  0.2831  1.9540  1.9353
    9MOL   H638 6094   6.739   7.620   5.473 -0.1202 -0.4517  0.0574
    9MOL   H639 6095   6.815   7.476   5.484 -2.0520 -1.3198  1.7346
    9MOL   H640 6096   6.807   7.687   5.711 -1.2831  0.1107 -1.1313
    9MOL   H641 6097   6.877   7.521   5.735  0.7241  1.5163  2.2066
    9MOL   H642 6098   6.590   7.606   5.700  0.4866 -0.4986  0.0144
    9MOL   H643 6099   6.644   7.450   5.667  1.1770  0.5035 -1.0508
    9MOL   H644 6100   6.687   7.608   5.923 -1.1991 -0.2080  0.4056
    9MOL   H645 6101   6.754   7.449   5.903  0.0330  0.4244 -0.0000
    9MOL   H646 6102   6.551   7.393   6.024 -1.2558 -0.9181 -0.9511
    9MOL   H647 6103   6.491   7.389   5.858  0.5589 -2.9608  0.7775
    9MOL   N648 6104   6.330   7.544   6.048  0.5422  0.0800 -0.3951
    9MOL   C649 6105   6.222   7.638   6.074 -0.6724 -0.1847  0.7782
    9MOL   C650 6106   6.097   7.597   6.152  0.3045 -0.1898 -0.0827
    9MOL   C651 6107   5.997   7.705   6.207 -0.4675  0.2721  0.8787
    9MOL   C652 6108   5.913   0.042   6.094  0.8817  0.2940  0.1383
    9MOL   C653 6109   5.810   0.156   6.129  0.5858  0.2152 -0.3889
    9MOL   C654 6110   5.723   0.129   6.250  0.5400 -0.4654  0.1596
    9MOL   C655 6111   5.621   0.017   6.247 -0.1107  0.1778  0.0695
    9MOL   C656 6112   5.539   7.699   6.115  0.1455 -0.0590  0.0597
    9MOL   C657 6113   5.427   0.084   6.084  0.0046 -0.6530 -0.3702
    9MOL   C658 6114   5.322   0.113   6.192  0.1309  0.9582 -0.1603
    9MOL   C659 6115   5.240   7.715   6.252 -0.0117 -0.0937  0.0681
    9MOL   O660 6116   5.281   7.600   6.248 -0.1582  0.2974  1.0226
    9MOL   H661 6117   6.326   7.456   6.098  0.6729  0.3938  0.1699
    9MOL   H662 6118   6.189   7.667   5.974  1.9332  0.9016  0.1981
    9MOL   H663 6119   6.269   0.010   6.117  0.9369 -1.4034  1.5537
    9MOL   H664 6120   6.137   7.552   6.243  2.3659  2.5002  0.3875
    9MOL   H665 6121   6.048   7.515   6.098 -0.5376  1.4936 -1.9307
    9MOL   H666 6122   5.944   7.649   6.284  0.5261  0.2550  1.5682
    9MOL   H667 6123   6.052   0.070   6.256 -0.4873  1.0133 -0.3037
    9MOL   H668 6124   5.855   7.683   6.039 -0.5905 -0.2136  2.2864
    9MOL   H669 6125   5.979   0.083   6.018  3.2935 -0.5917  1.6945
    9MOL   H670 6126   5.746   0.176   6.043 -1.4092 -1.8823  0.5371
    9MOL   H671 6127   5.867   0.248   6.137 -0.7005  0.8799  1.2452
    9MOL   H672 6128   5.781   0.119   6.342 -2.0611  1.6296  2.0833
    9MOL   H673 6129   5.669   0.222   6.267  2.2292  0.3570  1.1740
    9MOL   H674 6130   5.541   0.029   6.320 -0.7752 -2.5243 -0.1237
    9MOL   H675 6131   5.683   7.647   6.274 -1.3200 -1.0845 -1.0270
    9MOL   H676 6132   5.610   7.685   6.033  0.7448 -1.8506  0.8534
    9MOL   H677 6133   5.494   7.600   6.122 -1.2372  0.5016 -0.8573
    9MOL   H678 6134   5.384   0.070   5.985  0.5981  2.3223 -1.0923
    9MOL   H679 6135   5.485   0.175   6.071 -0.7370  0.1274  1.6245
    9MOL   H680 6136   5.257   0.192   6.154  0.9311  1.4842 -0.4543
    9MOL   H681 6137   5.369   0.173   6.270  3.8966 -3.9875  1.7178
    9MOL   H682 6138   5.145   0.017   6.303  0.1714 -3.7462  1.8497
   10MOL     N1 6139   7.094   4.503   0.777 -0.1282 -0.0346 -0.5661
   10MOL     C2 6140   7.232   4.513   0.755 -0.8461 -0.1002 -0.0800
   10MOL     C3 6141   7.289   4.629   0.832  0.2875  0.0386  0.5375
   10MOL     C4 6142   7.437   4.653   0.791 -0.3481  0.4752 -0.1359
   10MOL     C5 6143   7.493   4.770   0.872  0.1490  0.7961  0.2114
   10MOL     C6 6144   7.639   4.791   0.848  0.1300 -0.7383  0.3956
   10MOL     C7 6145   7.704   4.906   0.937 -0.2449  0.0197  0.0515
   10MOL     C8 6146   0.138   4.923   0.917  0.2326 -0.6651 -0.3512
   10MOL     C9 6147   0.229   4.834   1.004  0.6316  0.3758 -0.1299
   10MOL    C10 6148   0.375   4.858   0.980 -0.4066 -0.9603  0.3336
   10MOL    C11 6149   0.474   4.768   1.054 -0.6362  0.3664  0.0414
   10MOL    C12 6150   0.492   4.808   1.199  0.1482 -0.4091 -0.4796
   10MOL    O13 6151   0.394   4.823   1.261  0.2407  0.5435  0.2446
   10MOL    H14 6152   7.044   4.423   0.739  2.3051 -1.3491 -1.1145
   10MOL    H15 6153   7.248   4.530   0.648  1.3092 -2.8152 -0.2394
   10MOL    H16 6154   7.286   4.428   0.797  2.4881  2.2066  0.4044
   10MOL    H17 6155   7.278   4.631   0.941  1.0995  0.2733  0.6175
   10MOL    H18 6156   7.234   4.719   0.805 -0.0027  0.0424  1.1392
   10MOL    H19 6157   7.494   4.563   0.813  0.7733  1.0966 -0.4522
   10MOL    H20 6158   7.444   4.682   0.685  0.6835  0.2469 -0.1401
   10MOL    H21 6159   7.469   4.754   0.977 -4.3763  0.2478 -0.7672
   10MOL    H22 6160   7.445   4.866   0.851 -3.6837 -0.8110  1.0828
   10MOL    H23 6161   7.660   4.824   0.746 -0.9198 -0.1468  0.3589
   10MOL    H24 6162   7.692   4.696   0.854 -1.8225 -1.7735  1.8202
   10MOL    H25 6163   7.655   5.001   0.915 -0.1495 -0.1807 -1.0289
   10MOL    H26 6164   7.678   4.891   1.042  0.3449  2.0869  0.5201
   10MOL    H27 6165   0.163   5.028   0.934 -0.5584 -0.5514  0.1759
   10MOL    H28 6166   0.156   4.906   0.811  1.1476  0.6283 -0.4105
   10MOL    H29 6167   0.191   4.833   1.106  2.2629 -1.9631  0.5190
   10MOL    H30 6168   0.207   4.733   0.969  1.9236  0.6169 -1.6957
   10MOL    H31 6169   0.405   4.961   0.994  0.3491 -0.9106 -1.5441
   10MOL    H32 6170   0.403   4.839   0.876  1.7588  0.6491  0.5895
   10MOL    H33 6171   0.572   4.775   1.007 -1.5484  2.6120 -1.5866
   10MOL    H34 6172   0.447   4.663   1.042  0.2149  0.1265  0.1531
   10MOL    H35 6173   7.046   4.577   0.727 -1.3267 -1.2111 -1.2006
   10MOL    N36 6174   0.613   4.813   1.255 -0.3288  0.3257 -0.0360
   10MOL    C37 6175   0.639   4.819   1.397  0.5445 -0.1128 -0.6343
   10MOL    C38 6176   0.593   4.953   1.450  0.6878  0.0299 -0.4582
   10MOL    C39 6177   0.617   4.956   1.605  0.3947  0.0520  0.3335
   10MOL    C40 6178   0.617   5.096   1.669  0.0393 -0.2096  0.8513
   10MOL    C41 6179   0.753   5.175   1.670 -0.3503 -0.7490  0.1943
   10MOL    C42 6180   0.734   5.334   1.670  0.1196  0.0056 -0.1142
   10MOL    C43 6181   0.657   5.397   1.788  0.0752  0.2156 -0.0683
   10MOL    C44 6182   0.684   5.546   1.790  0.2168  0.2279 -0.1592
   10MOL    C45 6183   0.614   5.622   1.906 -0.4464  0.1276 -0.5966
   10MOL    C46 6184   0.460   5.630   1.894 -0.0674 -0.0338  0.5504
   10MOL    C47 6185   0.390   5.517   1.975  0.6110  0.5373 -0.4434
   10MOL    O48 6186   0.391   5.507   2.099  0.0679 -0.0596 -0.9628
   10MOL    H49 6187   0.696   4.798   1.200 -0.8101 -1.5936 -0.2717
   10MOL    H50 6188   0.581   4.735   1.436  0.2668  0.0982 -0.5932
   10MOL    H51 6189   0.747   4.812   1.403  0.4821  0.8065  2.3654
   10MOL    H52 6190   0.489   4.979   1.430  0.6892  0.0878 -0.3877
   10MOL    H53 6191   0.649   5.037   1.410 -1.1587  1.1445 -0.7474
   10MOL    H54 6192   0.529   4.907   1.644 -0.6367  0.7175 -1.1072
   10MOL    H55 6193   0.703   4.900   1.642  2.1297  1.7736 -0.9728
   10MOL    H56 6194   0.578   5.085   1.770 -1.5909 -0.7323  0.1749
   10MOL    H57 6195   0.531   5.145   1.623 -0.0901  1.1108  2.4597
   10MOL    H58 6196   0.805   5.163   1.574 -1.5981  0.1400 -0.6135
   10MOL    H59 6197   0.810   5.151   1.759 -0.8238 -0.6213  0.5322
   10MOL    H60 6198   0.834   5.377   1.673  0.0589  0.2409 -1.3049
   10MOL    H61 6199   0.688   5.371   1.578  0.7828  1.3255  0.0720
   10MOL    H62 6200   0.677   5.356   1.887  1.0057  0.6875 -0.0612
   10MOL    H63 6201   0.550   5.379   1.782 -0.5721  4.1959 -1.4556
   10MOL    H64 6202   0.792   5.563   1.793  0.3642 -0.7970  0.5410
   10MOL    H65 6203   0.653   5.578   1.691  1.2844 -0.7944 -0.8373
   10MOL    H66 6204   0.654   5.724   1.902  1.3208 -0.6184 -2.5832
   10MOL    H67 6205   0.653   5.582   2.000  0.1276 -0.1506 -0.9538
   10MOL    H68 6206   0.437   5.619   1.788 -0.9616 -0.4659  0.7914
   10MOL    H69 6207   0.418   5.724   1.930 -0.6351 -0.1519  0.1986
   10MOL    N70 6208   0.318   5.431   1.899 -1.1740 -0.5971  0.4671
   10MOL    C71 6209   0.255   5.310   1.940  0.9749 -0.0036  0.1566
   10MOL    C72 6210   0.152   5.260   1.837  0.3828  0.3430 -0.1640
   10MOL    C73 6211   0.046   5.169   1.898  0.1202 -1.2525 -0.4381
   10MOL    C74 6212   0.101   5.035   1.931  0.2220  0.1670 -0.9259
   10MOL    C75 6213   0.003   4.960   2.035  0.0846  0.3577  0.2092
   10MOL    C76 6214   0.046   4.814   2.060  0.7198  0.6411 -1.0696
   10MOL    C77 6215   7.670   4.732   2.150  0.1812  0.3542 -0.0073
   10MOL    C78 6216   7.709   4.583   2.159  0.7648  0.0520  0.1033
   10MOL    C79 6217   0.073   4.544   2.285 -0.0629 -1.0082 -0.1868
   10MOL    C80 6218   0.085   4.396   2.310  0.1416 -0.3558  0.2662
   10MOL    C81 6219   0.130   4.357   2.451  0.0302 -0.8679  0.3255
   10MOL    O82 6220   0.177   4.446   2.524 -0.1328 -0.3880 -0.3263
   10MOL    H83 6221   0.294   5.463   1.806  0.9499  2.2760  0.7958
   10MOL    H84 6222   0.323   5.226   1.950  0.6383 -0.4788 -1.3726
   10MOL    H85 6223   0.229   5.311   2.046  2.8294  2.5792  0.6412
   10MOL    H86 6224   0.196   5.215   1.748  0.6892  0.9526 -0.3198
   10MOL    H87 6225   0.098   5.347   1.801 -2.7419 -0.0481  3.3012
   10MOL    H88 6226   0.003   5.219   1.986 -0.0293 -0.1208 -1.1424
   10MOL    H89 6227   7.686   5.168   1.820  0.1087  1.6152 -0.5436
   10MOL    H90 6228   0.201   5.043   1.974 -0.0358  0.4886 -0.3892
   10MOL    H91 6229   0.128   4.985   1.838  0.6511  0.5297 -0.9961
   10MOL    H92 6230   7.616   4.973   2.001  0.6719  1.8220 -1.0751
   10MOL    H93 6231   0.008   5.016   2.128 -1.7030  0.0246  0.5237
   10MOL    H94 6232   0.061   4.759   1.967 -0.7212  0.4901 -1.2276
   10MOL    H95 6233   0.139   4.822   2.115 -1.0292  0.5675  2.0086
   10MOL    H96 6234   7.569   4.725   2.110 -0.7797 -2.0292  2.6371
   10MOL    H97 6235   7.658   4.771   2.251 -2.7699 -0.9472  0.2114
   10MOL    H98 6236   7.616   4.527   2.164  0.0367  1.3284  0.9360
   10MOL    H99 6237   0.054   4.546   2.076 -0.5870  1.1073 -1.4002
   10MOL   H100 6238   0.012   4.588   2.364  0.9635  2.2031 -1.1005
   10MOL   H101 6239   0.172   4.588   2.277  1.1194 -3.6639 -0.7678
   10MOL   H102 6240   0.156   4.364   2.235  0.9625  0.4264  0.7049
   10MOL   H103 6241   7.708   4.341   2.291  0.1299  0.9430 -3.8344
   10MOL   N104 6242   0.137   4.227   2.479  0.2418 -0.4373  0.1718
   10MOL   C105 6243   0.220   4.171   2.580 -0.5170 -0.0055 -0.1609
   10MOL   C106 6244   0.226   4.021   2.570 -0.1691  0.1209 -0.0087
   10MOL   C107 6245   0.332   3.957   2.660 -0.1085  0.1790 -0.7208
   10MOL   C108 6246   0.338   3.806   2.639 -0.2859 -0.2914  0.3350
   10MOL   C109 6247   0.443   3.749   2.729 -0.2975 -0.1686  0.0859
   10MOL   C110 6248   0.439   3.594   2.740 -0.1567 -0.3219  0.1094
   10MOL   C111 6249   0.554   3.521   2.823 -0.0895 -0.5116  0.6623
   10MOL   C112 6250   0.541   3.362   2.832  0.6703 -0.7553  0.0324
   10MOL   C113 6251   0.638   3.300   2.748 -1.2941  0.5181 -0.6252
   10MOL   C114 6252   0.637   3.143   2.744  0.2566 -0.5242 -0.3483
   10MOL   C115 6253   0.540   3.095   2.632 -0.5193 -0.0470  0.1694
   10MOL   O116 6254   0.584   3.080   2.518  0.3445 -0.0701  0.0099
   10MOL   H117 6255   0.088   4.162   2.419 -2.1149  0.6022  0.8923
   10MOL   H118 6256   0.320   4.208   2.556 -0.3695  0.2615  0.8037
   10MOL   H119 6257   0.205   4.208   2.682 -2.2820 -1.3746  0.1018
   10MOL   H120 6258   0.241   3.990   2.466 -1.2874 -0.0406 -0.1237
   10MOL   H121 6259   0.121   3.998   2.589 -0.3882  1.1983  0.1486
   10MOL   H122 6260   0.434   3.991   2.643  0.3491  0.5268  2.4522
   10MOL   H123 6261   0.321   3.987   2.764  0.5249  0.0019 -0.6057
   10MOL   H124 6262   0.342   3.785   2.532 -1.3304 -0.5874  0.3472
   10MOL   H125 6263   0.236   3.776   2.664 -1.3940  2.3942 -0.7364
   10MOL   H126 6264   0.446   3.800   2.825  0.2488  2.0511 -1.0864
   10MOL   H127 6265   0.546   3.765   2.698 -1.4880  3.2577 -2.4043
   10MOL   H128 6266   0.343   3.564   2.783  0.6627 -0.9362  1.5578
   10MOL   H129 6267   0.438   3.547   2.642  1.6173  1.2480 -0.6732
   10MOL   H130 6268   0.550   3.560   2.925 -1.0344 -0.4271  0.5923
   10MOL   H131 6269   0.651   3.554   2.785  0.8307  1.4279  4.4020
   10MOL   H132 6270   0.559   3.339   2.937  1.3070  0.7363  0.2530
   10MOL   H133 6271   0.438   3.335   2.808  0.7550  1.3473 -2.9852
   10MOL   H134 6272   0.736   3.345   2.765 -1.0896  0.9997 -2.8327
   10MOL   H135 6273   0.614   3.338   2.649 -0.2538  3.4167  0.1972
   10MOL   H136 6274   0.603   3.103   2.839 -1.3029  1.1171 -0.1885
   10MOL   H137 6275   0.734   3.101   2.718  0.1237  0.0539 -1.8352
   10MOL   N138 6276   0.412   3.066   2.667  0.2714  0.1909 -0.1001
   10MOL   C139 6277   0.299   3.070   2.571 -1.0198  0.2170  0.1404
   10MOL   C140 6278   0.229   3.207   2.559  0.1140  0.9083 -0.8138
   10MOL   C141 6279   0.136   3.197   2.440  0.5108 -0.6295  0.6433
   10MOL   C142 6280   0.031   3.315   2.435 -0.4812  0.0407 -0.5504
   10MOL   C143 6281   0.110   3.446   2.407  0.1988 -0.0692  0.0304
   10MOL   C144 6282   0.138   3.479   2.256  0.7753  0.3692 -0.0149
   10MOL   C145 6283   0.214   3.609   2.233  0.2336 -0.4440 -0.3316
   10MOL   C146 6284   0.126   3.730   2.210 -0.3050  0.1657  0.1313
   10MOL   C147 6285   0.212   3.861   2.165 -1.2216 -0.3987  0.0822
   10MOL   C148 6286   0.126   3.992   2.162 -0.3815  0.0982 -0.4406
   10MOL   C149 6287   0.200   4.109   2.102  0.3301  0.5447  0.1202
   10MOL   O150 6288   0.307   4.147   2.149  0.0835 -0.4781 -0.2361
   10MOL   H151 6289   0.383   3.074   2.763  1.8658 -3.1755  0.7635
   10MOL   H152 6290   0.350   3.043   2.479 -0.2009  0.8676  0.3872
   10MOL   H153 6291   0.232   2.987   2.596 -3.5624  1.3806 -2.5751
   10MOL   H154 6292   0.309   3.280   2.543 -0.1659  1.2665 -0.5764
   10MOL   H155 6293   0.178   3.218   2.654 -0.3708 -1.1058 -0.8261
   10MOL   H156 6294   0.200   3.181   2.353  1.6793  0.1966  1.3405
   10MOL   H157 6295   0.078   3.105   2.449 -1.9100  0.8433  0.3330
   10MOL   H158 6296   7.689   3.328   2.527 -0.8046 -2.6332 -0.3244
   10MOL   H159 6297   7.670   3.294   2.361 -0.3713 -2.1317 -0.0778
   10MOL   H160 6298   0.205   3.449   2.461 -0.2987 -1.2495  1.0005
   10MOL   H161 6299   0.064   3.531   2.457 -0.8830 -1.3421  1.2462
   10MOL   H162 6300   0.185   3.393   2.210  2.1995  2.1033 -1.8823
   10MOL   H163 6301   0.041   3.498   2.209 -0.1197 -0.5756  1.4134
   10MOL   H164 6302   0.275   3.596   2.144  1.2832  2.5061 -0.0928
   10MOL   H165 6303   0.285   3.632   2.312  0.1200  3.6763 -1.3015
   10MOL   H166 6304   0.047   3.711   2.137  0.1447  2.9182 -1.1581
   10MOL   H167 6305   0.082   3.758   2.306  1.8022 -2.4596  1.9254
   10MOL   H168 6306   0.251   3.841   2.065 -2.8968 -1.4195 -0.3768
   10MOL   H169 6307   0.294   3.877   2.234  1.2206  0.9133 -2.9831
   10MOL   H170 6308   0.120   4.017   2.268 -0.8140  0.8741 -0.6486
   10MOL   H171 6309   0.022   3.979   2.131 -0.3285  1.7172 -1.3661
   10MOL   N172 6310   0.137   4.183   2.008  0.2604 -0.1784 -0.2849
   10MOL   C173 6311   0.188   4.305   1.944 -0.5085 -0.1164 -0.1737
   10MOL   C174 6312   0.271   4.287   1.819 -0.7845 -0.2401  0.0388
   10MOL   C175 6313   0.265   4.412   1.729  0.7334  0.0952 -1.0138
   10MOL   C176 6314   0.370   4.433   1.622  0.8595  0.2416 -1.2567
   10MOL   C177 6315   0.383   4.308   1.528  0.4434  0.8167  0.3137
   10MOL   C178 6316   0.481   4.333   1.415  0.7113 -0.3680 -0.0498
   10MOL   C179 6317   0.635   4.337   1.448  0.7055 -0.2606  0.3441
   10MOL   C180 6318   0.706   4.409   1.332 -0.3033 -0.1530  0.7595
   10MOL   C181 6319   0.858   4.423   1.345 -0.1371 -0.5660  0.0786
   10MOL   C182 6320   0.894   4.515   1.466 -0.3673  0.4113 -0.8406
   10MOL   C183 6321   1.039   4.559   1.461 -0.4665 -0.1216 -0.5793
   10MOL   O184 6322   1.064   4.645   1.380  0.0964  0.0438 -0.0242
   10MOL   H185 6323   0.043   4.157   1.981  0.0997  0.5608 -0.4489
   10MOL   H186 6324   0.102   4.364   1.914  0.9559  2.4158  0.5005
   10MOL   H187 6325   0.250   4.359   2.015 -1.4563 -1.0190  1.3882
   10MOL   H188 6326   0.234   4.198   1.768 -1.8426 -0.2493  0.8070
   10MOL   H189 6327   0.375   4.272   1.846 -0.0474  1.2220 -1.8693
   10MOL   H190 6328   0.169   4.415   1.677  0.8475 -0.5851 -1.2646
   10MOL   H191 6329   0.276   4.503   1.788 -1.1759 -1.3710  1.7145
   10MOL   H192 6330   0.467   4.456   1.666  0.5981 -1.1754  0.1042
   10MOL   H193 6331   0.343   4.526   1.571 -1.8167 -0.5020 -1.2468
   10MOL   H194 6332   0.286   4.290   1.482 -0.0083  2.1294  0.7084
   10MOL   H195 6333   0.409   4.221   1.588 -3.7958 -0.4612  0.4557
   10MOL   H196 6334   0.469   4.242   1.357  1.8680 -1.0213  0.7073
   10MOL   H197 6335   0.453   4.420   1.356  0.2940 -0.5703 -0.1515
   10MOL   H198 6336   0.665   4.234   1.469  2.3832  0.1590  0.0669
   10MOL   H199 6337   0.645   4.396   1.539  1.8860  0.6540 -0.3639
   10MOL   H200 6338   0.685   4.364   1.235  1.4526 -0.8506  0.6730
   10MOL   H201 6339   0.656   4.505   1.333  0.3025  0.1731 -0.0380
   10MOL   H202 6340   0.898   4.472   1.257  1.0172 -0.1643  0.8201
   10MOL   H203 6341   0.904   4.324   1.352 -1.0856 -1.0093  0.1788
   10MOL   H204 6342   0.861   4.463   1.556  0.4786  0.0315 -0.7402
   10MOL   H205 6343   0.836   4.607   1.462 -3.3741 -1.3296  0.5719
   10MOL   N206 6344   1.129   4.490   1.539 -0.5044  0.0724  0.1405
   10MOL   C207 6345   1.274   4.511   1.536 -0.6681 -0.1208  0.3496
   10MOL   C208 6346   1.356   4.411   1.625 -0.0608 -0.1018 -0.5388
   10MOL   C209 6347   1.507   4.414   1.621  0.1250  0.8344 -0.4170
   10MOL   C210 6348   1.572   4.554   1.649 -0.4983 -0.0204 -1.1159
   10MOL   C211 6349   1.722   4.555   1.634  0.9359  0.7859 -0.0857
   10MOL   C212 6350   1.790   4.669   1.707  0.6515 -1.1155 -0.1541
   10MOL   C213 6351   1.783   4.810   1.639 -0.1258  0.0191  0.1777
   10MOL   C214 6352   1.873   4.917   1.698 -0.1868 -0.4391  0.0334
   10MOL   C215 6353   1.859   5.054   1.636  0.0040  0.1226  0.0547
   10MOL   C216 6354   1.720   5.130   1.642  0.5859  0.2401 -0.1444
   10MOL   C217 6355   1.665   5.130   1.789  0.1401  0.2247 -0.8992
   10MOL   O218 6356   1.723   5.197   1.873 -0.0737 -0.0753 -0.5348
   10MOL   H219 6357   1.104   4.401   1.582 -0.9167  1.0424  1.9550
   10MOL   H220 6358   1.299   4.614   1.565  0.3825 -0.8441  2.0962
   10MOL   H221 6359   1.306   4.513   1.432 -2.7967  0.8816 -0.3137
   10MOL   H222 6360   1.322   4.309   1.607 -0.8011 -0.4150  2.3182
   10MOL   H223 6361   1.316   4.434   1.724  0.3831  1.3337 -0.6912
   10MOL   H224 6362   1.549   4.342   1.692 -1.1718 -0.1799 -0.6531
   10MOL   H225 6363   1.534   4.385   1.520  3.4359  1.5789  0.1904
   10MOL   H226 6364   1.547   4.589   1.749  0.8699 -1.1971 -0.3217
   10MOL   H227 6365   1.523   4.622   1.580 -0.6998  0.4323 -0.5293
   10MOL   H228 6366   1.754   4.554   1.530 -3.3581 -1.9251 -1.5062
   10MOL   H229 6367   1.761   4.464   1.681  0.7109  0.0284 -1.3289
   10MOL   H230 6368   1.755   4.677   1.810 -1.0179 -0.9216 -0.7125
   10MOL   H231 6369   1.890   4.628   1.716  0.9423 -0.5055 -0.5966
   10MOL   H232 6370   1.682   4.851   1.634  0.0083  0.1611 -1.3210
   10MOL   H233 6371   1.794   4.791   1.533 -0.6169 -3.8625  0.7350
   10MOL   H234 6372   1.841   4.928   1.801 -1.2291  2.6159 -0.5481
   10MOL   H235 6373   1.971   4.873   1.678 -0.0427  0.0110 -0.2614
   10MOL   H236 6374   1.881   5.027   1.533  0.4049  2.5012 -0.5263
   10MOL   H237 6375   1.936   5.122   1.673 -0.3471  0.7833 -0.4145
   10MOL   H238 6376   1.640   5.093   1.578 -0.4497  1.7440  0.2609
   10MOL   H239 6377   1.736   5.235   1.616  0.0748  0.6341  1.1021
   10MOL   N240 6378   1.548   5.076   1.811 -0.4079  0.4368 -0.2909
   10MOL   C241 6379   1.471   5.074   1.932  0.3149 -0.4063 -0.0386
   10MOL   C242 6380   1.508   4.967   2.031 -0.3911 -0.6266  0.7697
   10MOL   C243 6381   1.510   4.825   1.976  0.4886  0.0922  0.6063
   10MOL   C244 6382   1.503   4.720   2.086 -0.0421 -0.2776 -0.4975
   10MOL   C245 6383   1.497   4.571   2.040  0.1265  0.0237 -0.0835
   10MOL   C246 6384   1.502   4.483   2.162 -0.7350  0.6315  0.1722
   10MOL   C247 6385   1.421   4.352   2.139  0.3221  0.2857 -0.7718
   10MOL   C248 6386   1.436   4.294   2.001 -0.0247 -0.8826 -0.2762
   10MOL   C249 6387   1.368   4.154   1.983 -0.2366 -0.4873  0.1020
   10MOL   C250 6388   1.410   4.068   1.862 -0.8889 -0.0821 -0.0889
   10MOL   C251 6389   1.508   3.955   1.904 -0.2803  0.2656 -0.4685
   10MOL   O252 6390   1.584   3.976   2.004 -0.7281 -0.7479  0.3868
   10MOL   H253 6391   1.494   5.038   1.734 -1.5040  0.0394  0.6565
   10MOL   H254 6392   1.372   5.046   1.896 -0.8816  1.7214  1.4966
   10MOL   H255 6393   1.464   5.177   1.965 -0.7373 -0.8634  1.1905
   10MOL   H256 6394   1.441   4.983   2.115 -4.5609 -3.2388 -1.8389
   10MOL   H257 6395   1.606   4.987   2.073  0.5575 -1.6099 -0.9077
   10MOL   H258 6396   1.425   4.811   1.909  0.8580  1.6444 -0.2160
   10MOL   H259 6397   1.601   4.816   1.918  1.6232  0.7579  2.2259
   10MOL   H260 6398   1.413   4.752   2.139 -0.4044  1.6174 -2.1605
   10MOL   H261 6399   1.582   4.741   2.158  0.0492  3.2225 -1.5182
   10MOL   H262 6400   1.582   4.541   1.980 -0.5876 -1.9244 -0.1641
   10MOL   H263 6401   1.405   4.556   1.983 -0.3960  0.9262  0.5075
   10MOL   H264 6402   1.608   4.464   2.180 -0.5662 -1.5924 -2.7219
   10MOL   H265 6403   1.469   4.535   2.252  0.3839  1.3284  0.1995
   10MOL   H266 6404   1.315   4.366   2.162  0.5094 -1.7973  1.5915
   10MOL   H267 6405   1.452   4.281   2.215  1.9486  2.6467  0.8621
   10MOL   H268 6406   1.383   4.363   1.935 -0.2476 -0.1672  0.6445
   10MOL   H269 6407   1.538   4.286   1.964  0.5639  2.9065  0.3063
   10MOL   H270 6408   1.259   4.167   1.989 -0.1011  1.0148 -0.4193
   10MOL   H271 6409   1.370   4.106   2.080 -0.2091  0.0036  0.3497
   10MOL   H272 6410   1.445   4.128   1.777  1.1737 -1.4963 -0.2741
   10MOL   H273 6411   1.320   4.030   1.814  0.5323 -1.7265 -1.5674
   10MOL   N274 6412   1.513   3.846   1.823 -0.4124 -0.0047 -0.4891
   10MOL   C275 6413   1.594   3.724   1.826  0.1991  0.0680 -0.0644
   10MOL   C276 6414   1.627   3.660   1.963 -0.5846 -0.2381 -0.7281
   10MOL   C277 6415   1.506   3.623   2.052  0.0283 -0.7748  0.1870
   10MOL   C278 6416   1.556   3.589   2.197  0.3393  0.0227 -0.2595
   10MOL   C279 6417   1.603   3.704   2.293 -0.2534 -0.8569  0.1472
   10MOL   C280 6418   1.648   3.648   2.422  0.3398  0.8521 -0.6312
   10MOL   C281 6419   1.655   3.755   2.533 -0.4308  0.4179  0.4745
   10MOL   C282 6420   1.727   3.717   2.661 -0.6097  0.4996  0.4279
   10MOL   C283 6421   1.683   3.596   2.753 -0.2789 -0.0820  0.0285
   10MOL   C284 6422   1.731   3.605   2.894 -0.4215  0.0580  0.2308
   10MOL   C285 6423   1.885   3.591   2.911 -0.8467  0.6107 -0.3848
   10MOL   O286 6424   1.966   3.668   2.868  0.6899  0.3078 -0.6343
   10MOL   H287 6425   1.427   3.835   1.771 -1.0949 -1.7465  0.9854
   10MOL   H288 6426   1.690   3.749   1.782 -0.7488 -0.1567 -2.3430
   10MOL   H289 6427   1.549   3.647   1.763  0.6839 -0.7860  0.6135
   10MOL   H290 6428   1.691   3.737   2.007 -1.0435 -1.0932  1.4739
   10MOL   H291 6429   1.692   3.574   1.948  2.3547  1.9476 -0.9904
   10MOL   H292 6430   1.444   3.712   2.061  0.8548 -0.1231 -0.4721
   10MOL   H293 6431   1.445   3.538   2.021  0.0395 -0.3988 -0.9002
   10MOL   H294 6432   1.627   3.509   2.176 -0.5646 -0.3666 -1.9770
   10MOL   H295 6433   1.474   3.548   2.256 -1.1677  1.6777 -1.1726
   10MOL   H296 6434   1.529   3.782   2.310  0.2955 -0.7087  1.8892
   10MOL   H297 6435   1.693   3.758   2.264 -0.8571  1.6479  2.6932
   10MOL   H298 6436   1.588   3.568   2.464  0.3621  1.7639  1.1919
   10MOL   H299 6437   1.746   3.602   2.427  0.1691  0.5620  0.1042
   10MOL   H300 6438   1.552   3.782   2.555 -0.7252 -1.0140  0.9514
   10MOL   H301 6439   1.705   3.846   2.501  0.9727 -0.8611 -1.0582
   10MOL   H302 6440   1.834   3.700   2.650 -0.4320  2.7183 -1.6841
   10MOL   H303 6441   1.720   3.808   2.721 -1.6791  1.6702 -1.4182
   10MOL   H304 6442   1.709   3.502   2.705 -0.5937 -0.3613  0.4008
   10MOL   H305 6443   1.574   3.595   2.751 -0.3830  1.8542  2.3422
   10MOL   H306 6444   1.689   3.512   2.934  0.2913 -0.5385 -0.4158
   10MOL   H307 6445   1.695   3.685   2.959 -1.3872  0.4021 -0.6991
   10MOL   N308 6446   1.928   3.488   2.983  0.4485  0.2864 -0.0075
   10MOL   C309 6447   2.055   3.445   3.033  0.1081 -0.1463  0.4616
   10MOL   C310 6448   2.071   3.474   3.173 -0.0032 -0.1127 -0.2479
   10MOL   C311 6449   2.218   3.456   3.226  1.0956  0.4887 -0.1451
   10MOL   C312 6450   2.274   3.310   3.210 -0.3479  0.4574  0.3373
   10MOL   C313 6451   2.419   3.307   3.255  0.7164 -0.3477 -0.0966
   10MOL   C314 6452   2.489   3.171   3.227 -0.1620 -0.0778 -0.7175
   10MOL   C315 6453   2.644   3.180   3.218 -1.1612  0.2885 -0.4677
   10MOL   C316 6454   2.718   3.040   3.225 -0.3101 -0.3566  0.4143
   10MOL   C317 6455   2.875   3.055   3.237  0.4770  0.8408 -0.5899
   10MOL   C318 6456   2.939   3.111   3.105 -0.2812 -0.2062  0.8771
   10MOL   C319 6457   2.923   3.004   2.997  0.0427 -0.4152  0.2209
   10MOL   O320 6458   2.985   2.901   3.004 -0.1651  0.2281  0.1845
   10MOL   H321 6459   1.856   3.421   3.007 -1.8242  2.0023 -1.8319
   10MOL   H322 6460   2.137   3.486   2.974 -1.7483  0.7265 -1.5840
   10MOL   H323 6461   2.051   3.338   3.012 -1.9070 -0.0812  0.4112
   10MOL   H324 6462   2.003   3.410   3.229 -2.1574  1.4255 -0.9942
   10MOL   H325 6463   2.037   3.576   3.191  0.1841 -0.0483 -0.2666
   10MOL   H326 6464   2.287   3.529   3.184  0.2965  0.7903 -0.9461
   10MOL   H327 6465   2.216   3.467   3.335 -2.0939  0.7580 -0.1809
   10MOL   H328 6466   2.267   3.294   3.103 -2.0342 -1.0324  0.6509
   10MOL   H329 6467   2.209   3.239   3.261  0.8875 -0.5412  0.5400
   10MOL   H330 6468   2.425   3.344   3.357 -3.3719 -0.3834  0.2505
   10MOL   H331 6469   2.476   3.376   3.193 -0.4495 -1.3851 -2.3731
   10MOL   H332 6470   2.459   3.104   3.308 -1.4565  0.4547 -0.7381
   10MOL   H333 6471   2.448   3.128   3.136 -0.1747 -0.9829 -0.2953
   10MOL   H334 6472   2.674   3.237   3.306 -0.9390  0.2404 -0.5117
   10MOL   H335 6473   2.682   3.231   3.129 -0.2027 -0.1154 -0.2947
   10MOL   H336 6474   2.674   2.984   3.307 -1.2894  0.8601  0.7396
   10MOL   H337 6475   2.694   2.982   3.136 -1.9002  0.1467  0.4978
   10MOL   H338 6476   2.930   2.965   3.262  0.7083  0.9066 -0.8599
   10MOL   H339 6477   2.899   3.131   3.312 -3.3816 -0.7150  2.3720
   10MOL   H340 6478   3.045   3.131   3.120 -0.1254  0.4760 -0.9835
   10MOL   H341 6479   2.900   3.206   3.069  0.1937 -1.8445 -4.2744
   10MOL   N342 6480   2.841   3.033   2.893  0.1235 -0.5341  0.8818
   10MOL   C343 6481   2.812   2.949   2.768  0.1912 -0.2216  0.4592
   10MOL   C344 6482   2.854   3.013   2.632 -0.9515 -0.4241 -0.3294
   10MOL   C345 6483   2.819   2.937   2.513  0.0849 -0.6684  0.4028
   10MOL   C346 6484   2.850   3.030   2.390 -0.0571 -0.3743 -0.3822
   10MOL   C347 6485   2.999   3.038   2.359  0.6915 -0.1435 -0.6144
   10MOL   C348 6486   3.024   3.111   2.227 -0.4249  0.1612 -0.2367
   10MOL   C349 6487   3.168   3.140   2.202  0.3033 -0.5572  0.5397
   10MOL   C350 6488   3.174   3.211   2.067  0.5393  0.4426 -0.2909
   10MOL   C351 6489   3.305   3.279   2.038 -0.6163 -0.3069  0.7390
   10MOL   C352 6490   3.315   3.330   1.894 -0.0083 -0.1263 -0.9314
   10MOL   C353 6491   3.435   3.423   1.871 -0.2993 -0.1104  0.2163
   10MOL   O354 6492   3.524   3.427   1.958  0.1133  0.8574  0.3400
   10MOL   H355 6493   2.797   3.124   2.892  2.2971  0.5568 -0.3029
   10MOL   H356 6494   2.858   2.851   2.778  1.8386  0.8216  3.8863
   10MOL   H357 6495   2.705   2.929   2.757 -0.1862  1.2785  1.2330
   10MOL   H358 6496   2.962   3.026   2.630 -1.0884  0.9486  0.4950
   10MOL   H359 6497   2.820   3.116   2.633 -1.5825 -0.6002  3.1334
   10MOL   H360 6498   2.883   2.848   2.505  0.9357 -0.2246  2.0461
   10MOL   H361 6499   2.714   2.908   2.508 -0.0509  0.0300 -0.9607
   10MOL   H362 6500   2.809   3.129   2.410 -1.1724 -1.3903  2.5618
   10MOL   H363 6501   2.802   2.985   2.303 -0.3942 -1.4597  0.3573
   10MOL   H364 6502   3.043   2.940   2.342  0.1948 -0.3509 -0.7233
   10MOL   H365 6503   3.036   3.094   2.445 -0.4988  1.4683 -1.1063
   10MOL   H366 6504   2.981   3.051   2.146 -2.0680 -1.8163  2.0342
   10MOL   H367 6505   2.970   3.206   2.225  2.7902  2.0725 -1.1700
   10MOL   H368 6506   3.219   3.044   2.197  2.3123  0.3842  2.0874
   10MOL   H369 6507   3.205   3.200   2.285  0.4581 -1.4816  1.1472
   10MOL   H370 6508   3.167   3.143   1.982 -3.2997  1.4031 -0.8425
   10MOL   H371 6509   3.099   3.288   2.051 -2.3582 -2.5107 -1.5748
   10MOL   H372 6510   3.381   3.203   2.053  1.0170  1.0344 -0.6174
   10MOL   H373 6511   3.318   3.352   2.118  0.2682 -0.3581  0.6462
   10MOL   H374 6512   3.222   3.386   1.879  0.2141 -0.0569 -2.1014
   10MOL   H375 6513   3.326   3.240   1.833  0.2770 -2.2525  2.1548
   10MOL   N376 6514   3.436   3.497   1.757 -0.2439 -0.1273  0.0163
   10MOL   C377 6515   3.546   3.589   1.720  0.3022  0.1373  0.1685
   10MOL   C378 6516   3.648   3.511   1.633  0.3993 -0.7338 -0.3907
   10MOL   C379 6517   3.581   3.446   1.506  0.2100  0.4009  0.8919
   10MOL   C380 6518   3.698   3.402   1.419  0.5502 -0.4051 -0.2858
   10MOL   C381 6519   3.647   3.345   1.288  0.0989  0.5726  0.2266
   10MOL   C382 6520   3.602   3.456   1.187 -0.2458  0.3644 -0.6133
   10MOL   C383 6521   3.575   3.394   1.048 -0.1991  0.0129  0.3826
   10MOL   C384 6522   3.437   3.328   1.043  0.2820  0.4204  0.4722
   10MOL   C385 6523   3.424   3.256   0.903  0.2872 -0.6392 -0.7074
   10MOL   C386 6524   3.291   3.171   0.905 -0.1242 -0.2918  0.0040
   10MOL   C387 6525   3.256   3.100   0.772 -0.1565 -0.1348 -0.2299
   10MOL   O388 6526   3.339   3.086   0.681 -0.1299 -0.2879  0.0769
   10MOL   H389 6527   3.354   3.494   1.698 -0.3666  2.6597 -0.0341
   10MOL   H390 6528   3.511   3.675   1.663  1.2603  0.2223 -0.2917
   10MOL   H391 6529   3.610   3.621   1.802  1.4395  2.2648 -1.5065
   10MOL   H392 6530   3.696   3.436   1.696  0.3259 -0.9811 -0.6299
   10MOL   H393 6531   3.722   3.587   1.608  0.0200 -1.2642 -3.2333
   10MOL   H394 6532   3.514   3.369   1.541  0.8295  0.1787  1.6066
   10MOL   H395 6533   3.529   3.527   1.455 -2.0529  1.1314  4.2313
   10MOL   H396 6534   3.756   3.326   1.472  1.7543  0.9772  0.4087
   10MOL   H397 6535   3.770   3.483   1.402  0.9397 -0.7829 -0.4435
   10MOL   H398 6536   3.558   3.288   1.314 -0.4989  1.4381  0.1256
   10MOL   H399 6537   3.714   3.273   1.242  0.5346 -0.3221  2.2362
   10MOL   H400 6538   3.508   3.506   1.210 -0.6711  0.0403 -1.6260
   10MOL   H401 6539   3.675   3.534   1.167 -1.2310  1.3646 -0.3908
   10MOL   H402 6540   3.643   3.312   1.024  0.8588 -0.4691  4.6437
   10MOL   H403 6541   3.574   3.473   0.973  0.3381 -0.2329  0.1145
   10MOL   H404 6542   3.440   3.254   1.123  0.8789 -0.2803 -0.1863
   10MOL   H405 6543   3.357   3.397   1.065 -0.8063 -0.0451 -1.8960
   10MOL   H406 6544   3.510   3.201   0.867  0.5166 -2.2136  2.1638
   10MOL   H407 6545   3.409   3.337   0.831  2.0188  0.7808  0.4795
   10MOL   H408 6546   3.218   3.249   0.927  0.4500  0.2498  0.0259
   10MOL   H409 6547   3.282   3.103   0.990 -1.1196  0.0799  0.2074
   10MOL   N410 6548   3.127   3.086   0.755 -0.5381 -0.1856 -0.0840
   10MOL   C411 6549   3.069   3.039   0.631  0.2902  0.5499  0.2367
   10MOL   C412 6550   2.930   2.981   0.652 -0.2426 -0.2152  0.7285
   10MOL   C413 6551   2.856   2.931   0.525  0.1704 -0.2560 -0.4930
   10MOL   C414 6552   2.726   2.860   0.575 -0.6541  0.0288  0.0973
   10MOL   C415 6553   2.609   2.948   0.617 -0.3880  0.0577 -0.5902
   10MOL   C416 6554   2.508   2.876   0.700  0.1124  0.0596 -0.0973
   10MOL   C417 6555   2.378   2.958   0.734  0.0019 -0.4593 -0.4228
   10MOL   C418 6556   2.268   2.867   0.803  0.0441 -0.1641 -0.0549
   10MOL   C419 6557   2.326   2.815   0.935  0.1696 -0.3941 -0.1106
   10MOL   C420 6558   2.230   2.730   1.016  0.0500  0.7513 -0.2159
   10MOL   C421 6559   2.291   2.671   1.146 -0.7827 -0.7949  0.1484
   10MOL   O422 6560   2.372   2.733   1.207 -0.0596 -0.2893 -0.1314
   10MOL   H423 6561   3.062   3.122   0.824 -0.7819  0.8102 -0.8217
   10MOL   H424 6562   3.056   3.128   0.570 -1.0256 -1.2357 -2.1330
   10MOL   H425 6563   3.135   2.976   0.572 -0.5897 -0.8553  0.7139
   10MOL   H426 6564   2.879   3.066   0.696  0.9818  1.4791 -1.0199
   10MOL   H427 6565   2.926   2.897   0.722 -1.2882 -0.8804 -0.1284
   10MOL   H428 6566   2.827   3.010   0.456 -0.3080 -1.1821 -1.3726
   10MOL   H429 6567   2.923   2.868   0.467  0.0792 -0.6193 -0.2104
   10MOL   H430 6568   2.747   2.794   0.660 -0.7034  0.8365  0.7496
   10MOL   H431 6569   2.697   2.797   0.491 -1.8586 -0.1704  0.6579
   10MOL   H432 6570   2.569   2.981   0.521  1.5166 -1.3234 -1.8994
   10MOL   H433 6571   2.632   3.037   0.675 -1.1632  0.4692 -0.9051
   10MOL   H434 6572   2.478   2.786   0.646  1.9456 -0.6497  0.0121
   10MOL   H435 6573   2.561   2.851   0.792 -0.6226  0.7067  0.5011
   10MOL   H436 6574   2.340   2.995   0.639  2.2148  2.0798 -0.3642
   10MOL   H437 6575   2.416   3.037   0.799 -1.8271  0.0121  0.0808
   10MOL   H438 6576   2.179   2.925   0.827  0.1422 -1.0450  2.5855
   10MOL   H439 6577   2.231   2.791   0.733 -1.1274 -1.3822  1.8397
   10MOL   H440 6578   2.334   2.903   0.999 -1.1347  0.3643 -0.9747
   10MOL   H441 6579   2.427   2.775   0.923  1.1428  2.5505 -2.1856
   10MOL   H442 6580   2.209   2.641   0.957 -2.9855  0.5884  1.0006
   10MOL   H443 6581   2.133   2.775   1.035  1.4321  3.7353 -0.0284
   10MOL   N444 6582   2.236   2.558   1.187  0.2027 -0.1401  0.0183
   10MOL   C445 6583   2.293   2.456   1.275 -0.5548 -0.4399  0.0564
   10MOL   C446 6584   2.232   2.463   1.417  0.5548 -0.1740 -0.4876
   10MOL   C447 6585   2.274   2.354   1.520  0.1094  0.0069 -0.2887
   10MOL   C448 6586   2.222   2.397   1.663 -0.7927 -0.3541 -0.1398
   10MOL   C449 6587   2.251   2.299   1.782  0.3576  0.3911  0.0544
   10MOL   C450 6588   2.206   2.343   1.927  0.5560  0.3335  0.6380
   10MOL   C451 6589   2.252   2.478   1.973 -0.1696 -0.1056  0.1942
   10MOL   C452 6590   2.188   2.508   2.113  0.5509  0.4677 -0.3743
   10MOL   C453 6591   2.177   2.660   2.154 -0.5122  0.5817  0.1783
   10MOL   C454 6592   2.311   2.721   2.194  0.4297 -0.2579 -0.1187
   10MOL   C455 6593   2.318   2.872   2.208  0.5949  0.2074 -0.0304
   10MOL   O456 6594   2.216   2.941   2.207  0.4231 -0.9731  0.0395
   10MOL   H457 6595   2.153   2.531   1.136 -0.8373  1.3815  0.8801
   10MOL   H458 6596   2.272   2.362   1.224 -0.7376  0.4798 -1.6195
   10MOL   H459 6597   2.401   2.472   1.275 -0.5852 -0.2406  0.4357
   10MOL   H460 6598   2.123   2.464   1.414  0.5872  0.8954 -1.6248
   10MOL   H461 6599   2.249   2.560   1.463  2.6720 -0.2238 -1.1219
   10MOL   H462 6600   2.232   2.264   1.474  2.5559 -1.5945  0.5180
   10MOL   H463 6601   2.379   2.327   1.528  0.0990  0.0134 -0.1259
   10MOL   H464 6602   2.116   2.424   1.660 -0.7641  0.1431  2.4025
   10MOL   H465 6603   2.283   2.481   1.696 -0.4329 -1.1711  1.3114
   10MOL   H466 6604   2.358   2.280   1.789  0.6526  2.3429  1.2879
   10MOL   H467 6605   2.205   2.204   1.758  1.9569  0.0729 -1.9392
   10MOL   H468 6606   2.097   2.345   1.928  0.5807  1.7559  0.6753
   10MOL   H469 6607   2.235   2.266   1.999 -0.8373 -0.6095  0.2139
   10MOL   H470 6608   2.219   2.554   1.903  2.3208  1.2707  0.4746
   10MOL   H471 6609   2.358   2.481   1.998 -0.7258  0.8028  2.5569
   10MOL   H472 6610   2.094   2.453   2.122  1.1928 -0.6155 -0.1897
   10MOL   H473 6611   2.255   2.458   2.183  0.8062 -0.7017 -1.4375
   10MOL   H474 6612   2.099   2.686   2.226  0.3000  0.7246  1.0120
   10MOL   H475 6613   2.134   2.709   2.066 -2.8396 -0.1840  0.8379
   10MOL   H476 6614   2.384   2.672   2.129 -0.7721 -1.2964 -0.7163
   10MOL   H477 6615   2.329   2.686   2.296  1.9919  2.3240  0.5279
   10MOL   N478 6616   2.446   2.914   2.206 -0.0855 -0.7211 -0.6084
   10MOL   C479 6617   2.474   3.056   2.224 -0.2556 -0.3271 -0.3960
   10MOL   C480 6618   2.487   3.097   2.366  0.4370 -0.8829 -0.9553
   10MOL   C481 6619   2.464   3.247   2.382  0.0275 -0.0461  0.0239
   10MOL   C482 6620   2.589   3.328   2.384  0.3583 -0.3167 -0.5260
   10MOL   C483 6621   2.669   3.337   2.248  0.2724  0.0875 -0.4001
   10MOL   C484 6622   2.774   3.446   2.245 -0.2994 -0.0512 -0.0139
   10MOL   C485 6623   2.861   3.454   2.114  0.9632  0.1988 -0.0699
   10MOL   C486 6624   2.773   3.523   2.014 -0.2308  0.6860 -0.2305
   10MOL   C487 6625   2.848   3.528   1.874 -0.0600  0.2576  0.2226
   10MOL   C488 6626   2.751   3.585   1.778  0.0316  0.2905  0.5149
   10MOL   C489 6627   2.739   3.739   1.780  0.5163  0.4284  0.5849
   10MOL   O490 6628   2.838   3.810   1.796 -0.1100  0.0683 -0.2980
   10MOL   H491 6629   2.513   2.839   2.194  1.0065  0.1667 -0.1376
   10MOL   H492 6630   2.568   3.077   2.172  0.3137  1.1745  1.2066
   10MOL   H493 6631   2.394   3.120   2.186 -1.3353 -1.0820  0.5886
   10MOL   H494 6632   2.585   3.070   2.407  0.2797  1.1181  0.8121
   10MOL   H495 6633   2.408   3.038   2.412  0.7068 -1.8323 -1.6844
   10MOL   H496 6634   2.380   3.286   2.325 -0.6823  1.4260  2.0035
   10MOL   H497 6635   2.430   3.267   2.484 -0.0678  1.7529 -0.3474
   10MOL   H498 6636   2.653   3.286   2.462  0.5440 -0.7814 -0.9283
   10MOL   H499 6637   2.565   3.431   2.413  1.3752 -0.6247  1.5266
   10MOL   H500 6638   2.606   3.356   2.160 -2.5182  0.9172  1.7017
   10MOL   H501 6639   2.729   3.248   2.229  1.0117  0.8656 -1.7885
   10MOL   H502 6640   2.742   3.547   2.267  1.2651  1.0303 -2.4427
   10MOL   H503 6641   2.843   3.438   2.329  1.2125  0.6438 -1.1516
   10MOL   H504 6642   2.890   3.353   2.083  0.8903  0.6241 -1.5643
   10MOL   H505 6643   2.949   3.512   2.140 -0.1974  1.9909 -0.0594
   10MOL   H506 6644   2.674   3.479   2.003 -0.1832  0.6783 -0.6149
   10MOL   H507 6645   2.755   3.626   2.044 -1.1854  0.0584  1.4598
   10MOL   H508 6646   2.873   3.429   1.837 -0.1516  0.4380 -0.3165
   10MOL   H509 6647   2.933   3.595   1.864  0.0804 -0.2755 -2.3624
   10MOL   H510 6648   2.656   3.532   1.785  0.1077 -0.2351 -1.8411
   10MOL   H511 6649   2.801   3.563   1.684  2.1140  1.0595  1.4235
   10MOL   N512 6650   2.614   3.790   1.768 -0.0036  0.3307 -0.2801
   10MOL   C513 6651   2.587   3.924   1.735 -0.0433  0.2616 -0.2614
   10MOL   C514 6652   2.433   3.946   1.707 -0.7490  0.5812 -0.6106
   10MOL   C515 6653   2.399   4.093   1.666 -0.8646 -0.0532 -0.0150
   10MOL   C516 6654   2.252   4.105   1.608 -0.1252  0.0031  0.1886
   10MOL   C517 6655   2.234   4.231   1.515 -0.1724  0.6794 -0.1392
   10MOL   C518 6656   2.230   4.359   1.605 -0.0520 -0.0063  0.4664
   10MOL   C519 6657   2.153   4.467   1.530  0.5881 -0.5767 -0.1932
   10MOL   C520 6658   2.185   4.606   1.596  0.2441  0.3896  0.3451
   10MOL   C521 6659   2.136   4.720   1.507  0.4709 -0.4914  0.5099
   10MOL   C522 6660   2.210   4.737   1.381 -0.0331  0.7629  0.6129
   10MOL   C523 6661   2.166   4.865   1.313 -0.1653  0.7711 -0.0221
   10MOL   O524 6662   2.051   4.884   1.291  0.4860  0.5997 -0.4491
   10MOL   H525 6663   2.547   3.720   1.738  0.1693  0.3171 -0.6277
   10MOL   H526 6664   2.617   3.980   1.823 -0.0424 -3.0867  1.9885
   10MOL   H527 6665   2.650   3.956   1.653 -0.0917 -0.0290 -0.4115
   10MOL   H528 6666   2.375   3.921   1.796  0.7579  1.3480  0.6159
   10MOL   H529 6667   2.399   3.875   1.631  0.6571 -0.3249 -0.4223
   10MOL   H530 6668   2.412   4.183   1.726  1.2696 -0.9673  0.9352
   10MOL   H531 6669   2.471   4.125   1.592 -0.5353  1.4493  0.9375
   10MOL   H532 6670   2.180   4.117   1.689  0.6385 -0.0718  0.8916
   10MOL   H533 6671   2.221   4.014   1.558 -0.1452  0.6242 -0.9452
   10MOL   H534 6672   2.137   4.221   1.466 -0.1698  1.4805 -0.3125
   10MOL   H535 6673   2.319   4.232   1.447 -0.0530  0.9368  0.0131
   10MOL   H536 6674   2.176   4.343   1.698  0.8882  0.8839  1.1746
   10MOL   H537 6675   2.333   4.388   1.627  0.1089  0.7781 -1.2405
   10MOL   H538 6676   2.047   4.446   1.545  0.4703  1.3475  1.9369
   10MOL   H539 6677   2.185   4.462   1.426  2.0057 -3.7434  0.3244
   10MOL   H540 6678   2.149   4.599   1.698  2.2626  0.0031  1.0545
   10MOL   H541 6679   2.292   4.627   1.608 -0.0068  2.1899 -0.3203
   10MOL   H542 6680   2.150   4.805   1.573  2.0898 -0.5747  0.2879
   10MOL   H543 6681   2.029   4.701   1.507  0.2699  0.4049  3.7977
   10MOL   H544 6682   2.209   4.653   1.311 -2.1020  2.5837 -1.6568
   10MOL   H545 6683   2.318   4.746   1.395  0.4442 -0.2648 -2.0312
   10MOL   N546 6684   2.268   4.955   1.298  0.3358  0.0866  0.2020
   10MOL   C547 6685   2.236   5.089   1.254 -0.2023 -0.4437 -0.4462
   10MOL   C548 6686   2.274   5.115   1.106  0.4905  0.7449  0.3137
   10MOL   C549 6687   2.239   5.259   1.069 -0.3543 -0.1969  0.1282
   10MOL   C550 6688   2.271   5.299   0.921  0.4033  0.2423  0.1880
   10MOL   C551 6689   2.158   5.277   0.817  0.6951  0.3149  0.9173
   10MOL   C552 6690   2.195   5.332   0.679 -0.1302 -0.3634 -0.8070
   10MOL   C553 6691   2.083   5.297   0.579 -0.2954  0.2856 -0.5162
   10MOL   C554 6692   2.130   5.312   0.431 -0.2139  0.4045  0.0826
   10MOL   C555 6693   2.045   5.245   0.326 -0.3449  0.1093  0.0290
   10MOL   C556 6694   2.070   5.285   0.182 -0.0810  0.4463 -0.2045
   10MOL   C557 6695   2.172   5.193   0.120 -0.9443  0.6077 -0.3522
   10MOL   O558 6696   2.140   5.074   0.089  0.1116 -0.3877 -0.0165
   10MOL   H559 6697   2.361   4.932   1.328 -0.1337 -2.2741 -0.0408
   10MOL   H560 6698   2.135   5.124   1.273 -0.4009 -0.4452 -1.4631
   10MOL   H561 6699   2.297   5.154   1.317 -0.7959 -0.9410  0.6440
   10MOL   H562 6700   2.214   5.040   1.054  0.0908  0.9408  0.4923
   10MOL   H563 6701   2.380   5.097   1.089  0.4421  0.3177  0.4531
   10MOL   H564 6702   2.132   5.271   1.087 -0.4896 -1.3653  0.1811
   10MOL   H565 6703   2.282   5.334   1.136 -0.8569 -0.5027  0.8108
   10MOL   H566 6704   2.353   5.233   0.891  0.4257  0.0969  0.5737
   10MOL   H567 6705   2.318   5.398   0.920 -2.3668  1.6480  2.0286
   10MOL   H568 6706   2.071   5.331   0.853  0.3657  0.3842  0.0212
   10MOL   H569 6707   2.122   5.175   0.801 -0.5455  0.9976 -0.8167
   10MOL   H570 6708   2.192   5.441   0.683 -0.5401 -0.4582  2.5271
   10MOL   H571 6709   2.285   5.294   0.631  0.5088  0.1162 -0.0105
   10MOL   H572 6710   1.990   5.348   0.602  0.7563  3.5169 -3.0380
   10MOL   H573 6711   2.052   5.193   0.589 -4.0780  1.4238  0.5078
   10MOL   H574 6712   2.142   5.418   0.411 -1.6459  0.2440 -1.8082
   10MOL   H575 6713   2.232   5.275   0.420  0.2094  1.8523 -1.1007
   10MOL   H576 6714   1.941   5.270   0.348  0.3976  3.5416 -0.1911
   10MOL   H577 6715   2.056   5.137   0.337  3.2768  0.3661 -0.7255
   10MOL   H578 6716   2.106   5.388   0.181  1.5657 -0.0611  2.3822
   10MOL   H579 6717   1.981   5.275   0.119  0.1732  0.1590 -0.5224
   10MOL   N580 6718   2.293   5.235   0.130 -0.3176  0.5356 -0.5410
   10MOL   C581 6719   2.409   5.160   0.079 -0.1013  0.7559 -0.5177
   10MOL   C582 6720   2.489   5.075   0.174 -0.5787 -0.5513  0.3030
   10MOL   C583 6721   2.486   5.120   0.323  0.0385  0.3069 -0.9080
   10MOL   C584 6722   2.570   5.044   0.409  0.5123 -0.1216 -0.6359
   10MOL   C585 6723   2.550   5.073   0.562  0.1418 -0.5847  0.2851
   10MOL   C586 6724   2.627   4.986   0.651  0.4182 -0.6792  0.2513
   10MOL   C587 6725   2.594   5.011   0.799  0.6927 -0.2928  0.7819
   10MOL   C588 6726   2.642   4.904   0.893  0.5299 -0.0119  0.2833
   10MOL   C589 6727   2.599   4.906   1.039 -0.5260 -0.1168  0.4506
   10MOL   C590 6728   2.689   4.822   1.125 -0.4144 -0.1293 -0.0924
   10MOL   C591 6729   2.620   4.792   1.262 -0.8763 -0.0526 -0.2395
   10MOL   O592 6730   2.513   4.837   1.291  0.1487 -0.1797 -0.1059
   10MOL   H593 6731   2.315   5.331   0.153  1.2681  0.8470 -3.0733
   10MOL   H594 6732   2.383   5.106   7.704  3.3229 -0.7641 -0.6680
   10MOL   H595 6733   2.475   5.241   0.048  2.1999 -1.5806 -1.9025
   10MOL   H596 6734   2.595   5.080   0.152 -0.0624  2.9199  3.1072
   10MOL   H597 6735   2.453   4.972   0.165 -0.5526 -0.2823 -3.4886
   10MOL   H598 6736   2.510   5.226   0.319 -0.1498  0.4824  1.7571
   10MOL   H599 6737   2.385   5.119   0.364  0.7040  0.5034  0.7767
   10MOL   H600 6738   2.672   5.078   0.390  0.8262 -0.1638  0.9277
   10MOL   H601 6739   2.568   4.936   0.391 -2.5153 -0.1830 -0.0702
   10MOL   H602 6740   2.441   5.068   0.563  0.1717 -1.2480  0.2656
   10MOL   H603 6741   2.569   5.178   0.582  0.3100 -0.4331 -0.6793
   10MOL   H604 6742   2.613   4.881   0.627  0.5744 -1.1458  2.1721
   10MOL   H605 6743   2.734   5.005   0.638  0.3864 -0.6465  0.0418
   10MOL   H606 6744   2.485   5.007   0.793  0.6278 -0.7267  2.1482
   10MOL   H607 6745   2.607   5.110   0.842 -2.2647  0.2850  0.4249
   10MOL   H608 6746   2.595   4.815   0.852 -2.5395  1.1345  1.1413
   10MOL   H609 6747   2.751   4.902   0.888  0.6818  1.5473  1.9623
   10MOL   H610 6748   2.492   4.889   1.052 -0.3836 -1.1734  0.2711
   10MOL   H611 6749   2.606   5.012   1.064  0.6445  0.0857 -0.6751
   10MOL   H612 6750   2.782   4.874   1.146  0.2629 -1.6510  0.6761
   10MOL   H613 6751   2.717   4.725   1.086  0.1008 -0.0475  0.0793
   10MOL   N614 6752   2.694   4.710   1.346 -0.3704  0.3008  0.1373
   10MOL   C615 6753   2.634   4.645   1.465  0.3444  0.0768 -0.6006
   10MOL   C616 6754   2.698   4.506   1.499  0.5662  0.2607  0.0879
   10MOL   C617 6755   2.676   4.403   1.388 -0.3073 -0.7599 -0.3909
   10MOL   C618 6756   2.730   4.265   1.430 -0.2278  0.2874 -0.0516
   10MOL   C619 6757   2.741   4.173   1.300  0.5458 -0.2278  0.5918
   10MOL   C620 6758   2.806   4.034   1.305 -0.6858 -0.7262 -0.8737
   10MOL   C621 6759   2.847   3.978   1.168 -0.3223 -0.3527  0.1402
   10MOL   C622 6760   2.965   3.887   1.183  0.6047 -0.2377  0.4561
   10MOL   C623 6761   3.027   3.836   1.053 -0.2965  0.4501 -0.1630
   10MOL   C624 6762   3.174   3.790   1.052 -0.5531  0.3468 -0.4572
   10MOL   C625 6763   3.213   3.694   1.169  0.8230  0.4123  0.6832
   10MOL   O626 6764   3.161   3.585   1.171 -0.5150 -0.3020  0.1585
   10MOL   H627 6765   2.783   4.674   1.317 -1.2894 -1.3859 -0.6608
   10MOL   H628 6766   2.527   4.630   1.454  0.3428  0.3927 -1.0062
   10MOL   H629 6767   2.644   4.720   1.543 -1.8008 -0.7327  0.4737
   10MOL   H630 6768   2.655   4.473   1.594 -0.4006  1.0724 -0.0644
   10MOL   H631 6769   2.804   4.519   1.522  1.3378 -1.2062 -2.4109
   10MOL   H632 6770   2.573   4.393   1.353  0.4490  1.5379 -3.4607
   10MOL   H633 6771   2.739   4.441   1.308 -0.9694  2.1219  0.3914
   10MOL   H634 6772   2.648   4.223   1.488 -1.2224  0.5117 -1.2547
   10MOL   H635 6773   2.822   4.283   1.485 -0.5881  2.5195 -0.1169
   10MOL   H636 6774   2.804   4.218   1.223 -0.7761 -2.3584 -1.7999
   10MOL   H637 6775   2.642   4.176   1.255  0.5358 -1.2646  0.5346
   10MOL   H638 6776   2.897   4.037   1.365 -2.2817 -0.7649  1.5795
   10MOL   H639 6777   2.741   3.970   1.365 -0.0718  0.5771  1.2126
   10MOL   H640 6778   2.868   4.061   1.100 -1.3788  1.5771  2.1235
   10MOL   H641 6779   2.765   3.925   1.118 -0.4327 -1.1882  1.2048
   10MOL   H642 6780   3.041   3.926   1.251 -0.2537  1.4665  0.4542
   10MOL   H643 6781   2.924   3.799   1.232  1.1395 -0.0697  1.2192
   10MOL   H644 6782   3.005   3.897   0.965 -0.8524 -1.0080 -1.0688
   10MOL   H645 6783   2.975   3.743   1.027 -0.8805 -0.1112  2.8017
   10MOL   H646 6784   3.236   3.880   1.057  1.2157 -0.8645 -0.1133
   10MOL   H647 6785   3.205   3.741   0.960 -1.8121  0.2430 -0.8353
   10MOL   N648 6786   3.311   3.722   1.260 -0.7726  0.2408  0.4872
   10MOL   C649 6787   3.378   3.850   1.274  0.3074  0.0945  0.3953
   10MOL   C650 6788   3.488   3.842   1.383  0.1748  0.7106  0.5066
   10MOL   C651 6789   3.550   3.978   1.419  0.6268 -0.0871 -0.0605
   10MOL   C652 6790   3.643   3.971   1.534 -0.5230 -0.2017 -0.4604
   10MOL   C653 6791   3.724   4.102   1.559 -0.5145  0.4610  0.9062
   10MOL   C654 6792   3.777   4.111   1.694  0.4365  0.5877  0.2806
   10MOL   C655 6793   3.867   4.233   1.708  0.0351  0.4724  0.4210
   10MOL   C656 6794   3.919   4.248   1.851  0.3127 -0.5516 -0.3015
   10MOL   C657 6795   3.991   4.382   1.866 -0.0311  0.2234  0.0998
   10MOL   C658 6796   4.053   4.407   2.006 -0.2869  0.5145 -0.6808
   10MOL   C659 6797   4.113   4.545   2.022  0.2541 -0.5385  0.5448
   10MOL   O660 6798   4.074   4.653   1.963  0.0373  0.3671 -0.5792
   10MOL   H661 6799   3.343   3.649   1.322  1.0781  0.2416 -0.4202
   10MOL   H662 6800   3.310   3.932   1.295 -0.2412 -0.6064  1.3859
   10MOL   H663 6801   3.438   3.877   1.187 -1.6474  1.6700 -0.5058
   10MOL   H664 6802   3.567   3.774   1.350  2.3117  2.8356  1.1212
   10MOL   H665 6803   3.444   3.797   1.472 -0.8595 -0.6535 -0.6637
   10MOL   H666 6804   3.595   4.033   1.337  0.7968  0.9990  0.7500
   10MOL   H667 6805   3.465   4.044   1.440  0.3586 -1.1803  2.5339
   10MOL   H668 6806   3.701   3.880   1.514 -0.2681 -0.4421  1.3265
   10MOL   H669 6807   3.593   3.951   1.628 -1.8257 -1.5261 -1.4010
   10MOL   H670 6808   3.663   4.188   1.530 -0.5547 -0.2453 -1.2018
   10MOL   H671 6809   3.807   4.111   1.489 -2.5275 -1.8911 -1.9058
   10MOL   H672 6810   3.694   4.112   1.765  2.8703  2.2960  3.2028
   10MOL   H673 6811   3.832   4.019   1.714  0.1408 -0.2142 -2.3805
   10MOL   H674 6812   3.813   4.323   1.676  1.5463  0.8090 -1.2209
   10MOL   H675 6813   3.949   4.227   1.637  0.4227  1.3809  0.7827
   10MOL   H676 6814   3.841   4.253   1.927 -0.6169 -1.0312 -1.2105
   10MOL   H677 6815   3.987   4.164   1.867 -0.6957 -2.0846 -3.6572
   10MOL   H678 6816   3.929   4.466   1.835  1.9042  1.6014 -0.1712
   10MOL   H679 6817   4.071   4.381   1.791 -0.1493 -0.5534 -0.0231
   10MOL   H680 6818   4.124   4.329   2.030 -0.3386  0.8406  0.5572
   10MOL   H681 6819   3.980   4.409   2.087  1.6057  0.0580  1.0673
   10MOL   H682 6820   4.200   4.538   2.089 -0.2443 -0.9655  1.1557
   11MOL     N1 6821   0.475   6.808   2.873  0.3754  0.1564  0.0002
   11MOL     C2 6822   0.430   6.905   2.772 -0.0553 -0.5190  0.1200
   11MOL     C3 6823   0.479   6.854   2.630  0.2987  0.4399  0.5152
   11MOL     C4 6824   0.379   6.752   2.576 -0.0701  0.3751 -0.0985
   11MOL     C5 6825   0.438   6.697   2.448  0.0430  0.5641 -0.0357
   11MOL     C6 6826   0.480   6.554   2.453 -0.1832  0.1563 -0.3438
   11MOL     C7 6827   0.483   6.478   2.312  0.6967  0.3222 -0.1700
   11MOL     C8 6828   0.536   6.331   2.321 -0.1192  0.0352  0.6785
   11MOL     C9 6829   0.513   6.253   2.188  0.3039 -0.3313  0.3864
   11MOL    C10 6830   0.574   6.110   2.191  0.2192  0.5239  1.3748
   11MOL    C11 6831   0.547   6.029   2.066 -0.6221 -0.0051 -0.4661
   11MOL    C12 6832   0.670   6.004   1.987  0.2634 -0.0751  0.5724
   11MOL    O13 6833   0.693   6.064   1.881 -0.3325  0.2262  0.4167
   11MOL    H14 6834   0.407   6.734   2.863 -0.0448  0.2253  2.1129
   11MOL    H15 6835   0.484   6.996   2.799  0.4822 -0.5238 -0.9159
   11MOL    H16 6836   0.324   6.928   2.783  0.1576  0.9358 -0.6523
   11MOL    H17 6837   0.580   6.814   2.640  1.8166  4.0922  0.3802
   11MOL    H18 6838   0.495   6.934   2.558  0.3842 -0.6025 -0.6498
   11MOL    H19 6839   0.381   6.667   2.646 -0.3193  0.3051 -0.1747
   11MOL    H20 6840   0.279   6.795   2.568  0.8385  2.8671  1.2704
   11MOL    H21 6841   0.520   6.757   2.409  0.1830  0.6132  0.3351
   11MOL    H22 6842   0.355   6.699   2.377  1.4054  0.1578 -1.6676
   11MOL    H23 6843   0.405   6.500   2.511 -2.7541  1.1467 -2.6233
   11MOL    H24 6844   0.578   6.549   2.500 -0.4825  0.3826  0.3127
   11MOL    H25 6845   0.396   6.485   2.246  0.3498 -0.1437  0.2349
   11MOL    H26 6846   0.562   6.526   2.254  2.6052 -1.3904  0.9603
   11MOL    H27 6847   0.489   6.283   2.407 -1.9981 -0.4759 -0.5938
   11MOL    H28 6848   0.643   6.341   2.337 -0.0957 -0.3677  0.7622
   11MOL    H29 6849   0.406   6.233   2.193  0.3861 -0.7336  0.5282
   11MOL    H30 6850   0.533   6.324   2.107 -2.9016  0.9335  0.6498
   11MOL    H31 6851   0.536   6.044   2.269  0.9173 -0.4132  0.9266
   11MOL    H32 6852   0.680   6.134   2.196  1.0472 -2.1355 -1.8478
   11MOL    H33 6853   0.476   6.087   2.007 -0.6712 -0.9465 -1.3349
   11MOL    H34 6854   0.503   5.932   2.089  0.8962 -0.9577 -1.5494
   11MOL    H35 6855   0.432   6.853   2.953 -1.7747  0.0615 -1.0749
   11MOL    N36 6856   0.749   5.917   2.044  0.3971 -0.6592  0.5896
   11MOL    C37 6857   0.884   5.893   1.985 -0.7871 -0.0047  0.5388
   11MOL    C38 6858   0.944   5.772   2.063  0.0054 -0.3124  0.3211
   11MOL    C39 6859   1.092   5.751   2.024  0.1333 -0.0800 -0.3413
   11MOL    C40 6860   1.151   5.611   2.042 -0.2317  0.3498  0.1005
   11MOL    C41 6861   1.288   5.583   1.979  0.3745  0.2333  0.2741
   11MOL    C42 6862   1.305   5.609   1.825 -0.3291  0.4718  0.5324
   11MOL    C43 6863   1.204   5.535   1.737  0.0351 -0.2879  0.1372
   11MOL    C44 6864   1.219   5.379   1.738 -0.0157 -0.5298 -0.5070
   11MOL    C45 6865   1.348   5.325   1.664  0.2443 -0.3325 -0.7321
   11MOL    C46 6866   1.347   5.359   1.511 -0.4218  0.2872 -0.5279
   11MOL    C47 6867   1.441   5.473   1.478  0.2204  0.1216 -0.1192
   11MOL    O48 6868   1.560   5.453   1.507  0.0911 -0.5036 -0.0550
   11MOL    H49 6869   0.712   5.880   2.131 -2.8951  0.9999 -0.0265
   11MOL    H50 6870   0.872   5.877   1.878 -0.4792  0.6713  0.4005
   11MOL    H51 6871   0.947   5.980   2.001 -0.3754 -0.5786  2.2315
   11MOL    H52 6872   0.881   5.686   2.041 -1.0851  0.3985  0.6662
   11MOL    H53 6873   0.941   5.787   2.171 -0.4731  2.0900 -0.0004
   11MOL    H54 6874   1.108   5.793   1.925  0.8510  0.3906 -0.0285
   11MOL    H55 6875   1.154   5.818   2.084  0.4756  0.7724 -1.6296
   11MOL    H56 6876   1.073   5.541   2.013 -1.4266  0.1833  3.5020
   11MOL    H57 6877   1.164   5.599   2.150 -0.2887  0.2203  0.0935
   11MOL    H58 6878   1.314   5.479   1.998  1.2973  0.5403  0.6899
   11MOL    H59 6879   1.357   5.646   2.035 -1.9879  1.9613  1.3545
   11MOL    H60 6880   1.294   5.717   1.810  0.3950  0.5470  0.5121
   11MOL    H61 6881   1.402   5.574   1.789 -0.7858  0.1041 -0.3316
   11MOL    H62 6882   1.207   5.576   1.636 -2.5327 -2.0436 -0.7010
   11MOL    H63 6883   1.101   5.552   1.768 -0.5520 -1.4250 -1.1184
   11MOL    H64 6884   1.208   5.342   1.840 -1.0148  0.1878 -0.3564
   11MOL    H65 6885   1.132   5.340   1.687  1.1870 -1.4568 -1.8998
   11MOL    H66 6886   1.348   5.218   1.686 -0.2636 -0.2562 -0.3751
   11MOL    H67 6887   1.442   5.352   1.712 -0.0944  1.4564 -1.0496
   11MOL    H68 6888   1.247   5.376   1.470  0.2347 -0.5121 -2.5260
   11MOL    H69 6889   1.376   5.285   1.437  1.4818 -0.8540  1.3398
   11MOL    N70 6890   1.386   5.583   1.422  0.0203 -0.3262 -0.1722
   11MOL    C71 6891   1.463   5.699   1.380  0.4157  0.0401 -0.1315
   11MOL    C72 6892   1.417   5.823   1.458 -0.1994 -0.0008  0.7420
   11MOL    C73 6893   1.484   5.950   1.404 -0.1569 -0.1874 -0.2799
   11MOL    C74 6894   1.398   6.029   1.311 -0.0204 -0.0911 -0.4360
   11MOL    C75 6895   1.369   5.956   1.179  0.5178  0.0497 -0.5133
   11MOL    C76 6896   1.296   6.039   1.067 -0.0152 -0.6788 -0.3872
   11MOL    C77 6897   1.174   6.107   1.129  0.5179  0.2420 -0.2715
   11MOL    C78 6898   1.060   6.114   1.028  0.4281 -0.2207 -0.6199
   11MOL    C79 6899   0.985   5.977   1.015  0.4647  0.2726  0.0866
   11MOL    C80 6900   0.851   5.992   0.949 -0.2329  0.0296  0.2728
   11MOL    C81 6901   0.776   5.860   0.931 -0.0469 -0.4832 -0.5239
   11MOL    O82 6902   0.767   5.794   1.034  0.0485 -0.4766 -0.2407
   11MOL    H83 6903   1.288   5.585   1.400 -0.4079 -1.9344  1.5252
   11MOL    H84 6904   1.569   5.689   1.400  0.8353  0.2907 -2.1212
   11MOL    H85 6905   1.453   5.715   1.272 -0.5942 -0.4962 -0.1297
   11MOL    H86 6906   1.450   5.808   1.561  0.3568  1.2665  0.7580
   11MOL    H87 6907   1.308   5.832   1.462 -0.4128 -1.6788 -0.5334
   11MOL    H88 6908   1.503   6.029   1.477 -3.2912  0.3812 -0.0132
   11MOL    H89 6909   1.587   5.936   1.371 -0.4125  2.4853 -2.3903
   11MOL    H90 6910   1.442   6.127   1.295  0.8301 -0.3593  0.2152
   11MOL    H91 6911   1.304   6.032   1.366 -0.5250 -0.1785 -1.2700
   11MOL    H92 6912   1.306   5.870   1.202 -0.9309  1.1730 -0.1445
   11MOL    H93 6913   1.462   5.915   1.140 -0.3997 -0.0964 -2.6369
   11MOL    H94 6914   1.367   6.116   1.038 -0.8949 -0.3431 -1.7051
   11MOL    H95 6915   1.267   5.980   0.980 -0.1755  0.6002 -1.2211
   11MOL    H96 6916   1.210   6.206   1.160  1.3979  0.4826 -1.9928
   11MOL    H97 6917   1.137   6.062   1.221  0.6889 -1.0329 -0.8156
   11MOL    H98 6918   0.985   6.190   1.049 -1.0007 -0.7893 -3.4527
   11MOL    H99 6919   1.100   6.142   0.931  1.3631 -0.1678 -0.2261
   11MOL   H100 6920   0.977   5.936   1.115 -0.0498 -2.1824 -0.9342
   11MOL   H101 6921   1.049   5.910   0.958 -1.2044 -1.0052 -0.2936
   11MOL   H102 6922   0.874   6.027   0.849 -0.8856 -1.5902 -0.4471
   11MOL   H103 6923   0.789   6.063   1.005 -0.4013  0.9405 -1.0477
   11MOL   N104 6924   0.726   5.827   0.809 -0.5267  0.2213  0.3849
   11MOL   C105 6925   0.625   5.719   0.787 -0.0953 -0.0825  0.1737
   11MOL   C106 6926   0.698   5.578   0.781 -0.1185  0.5362 -0.2861
   11MOL   C107 6927   0.788   5.584   0.661  0.3470  0.2350 -0.5632
   11MOL   C108 6928   0.850   5.440   0.641 -0.1214 -0.8030 -0.0052
   11MOL   C109 6929   0.955   5.430   0.533 -0.0708  0.2213  0.0471
   11MOL   C110 6930   1.009   5.289   0.521  0.6474  0.5049  0.5013
   11MOL   C111 6931   1.090   5.234   0.640 -0.5124  0.4508  0.1990
   11MOL   C112 6932   1.182   5.119   0.597  0.3137  0.2298  0.4526
   11MOL   C113 6933   1.254   5.059   0.715 -0.6638  0.3681  0.0090
   11MOL   C114 6934   1.340   4.933   0.682  1.2675 -0.4516 -0.0975
   11MOL   C115 6935   1.407   4.887   0.817 -0.4679 -0.8677  0.0698
   11MOL   O116 6936   1.479   4.961   0.886 -0.0121  0.1637  0.3035
   11MOL   H117 6937   0.739   5.889   0.731 -1.2503 -0.8149 -0.5634
   11MOL   H118 6938   0.543   5.714   0.859 -0.6222 -1.5741 -0.5069
   11MOL   H119 6939   0.576   5.725   0.689  1.0831 -0.8503 -0.4623
   11MOL   H120 6940   0.632   5.491   0.774  1.5825 -0.7168 -1.1754
   11MOL   H121 6941   0.751   5.553   0.873 -1.6287 -0.7587  0.2671
   11MOL   H122 6942   0.726   5.606   0.574  1.2186 -1.8288 -1.7573
   11MOL   H123 6943   0.869   5.655   0.676  0.1817  0.5626 -1.2045
   11MOL   H124 6944   0.768   5.373   0.615 -0.1878 -0.1411 -1.5472
   11MOL   H125 6945   0.899   5.406   0.733  0.9535  0.2786 -0.1571
   11MOL   H126 6946   1.037   5.497   0.556 -0.8556  2.0030 -2.2032
   11MOL   H127 6947   0.926   5.450   0.430  0.2013  0.0982 -0.0562
   11MOL   H128 6948   0.921   5.226   0.517  0.6094  0.6062 -0.4337
   11MOL   H129 6949   1.069   5.275   0.431 -2.8810  1.1488 -2.0522
   11MOL   H130 6950   1.033   5.191   0.723 -0.2405 -3.4375 -1.4821
   11MOL   H131 6951   1.143   5.320   0.680 -1.0132  0.6314  0.4786
   11MOL   H132 6952   1.119   5.040   0.556 -0.3283  2.2579 -2.5758
   11MOL   H133 6953   1.250   5.152   0.519 -1.1202 -0.7379 -1.2276
   11MOL   H134 6954   1.174   5.040   0.786  0.0844  1.7693  1.2597
   11MOL   H135 6955   1.307   5.142   0.763 -1.2732  1.1365 -0.6252
   11MOL   H136 6956   1.429   4.947   0.620  0.6669  3.3011 -0.2314
   11MOL   H137 6957   1.285   4.846   0.646 -0.3633  0.3639  0.3516
   11MOL   N138 6958   1.367   4.769   0.865  0.0131  0.4079 -0.3142
   11MOL   C139 6959   1.424   4.706   0.979  0.0149 -0.7708 -0.5850
   11MOL   C140 6960   1.353   4.572   0.993 -0.5326  0.1156 -0.1188
   11MOL   C141 6961   1.418   4.478   1.103  0.3724  0.4887 -0.1435
   11MOL   C142 6962   1.320   4.359   1.119 -0.2453 -0.3007 -0.4949
   11MOL   C143 6963   1.373   4.243   1.202  0.1533 -0.3229  0.4596
   11MOL   C144 6964   1.284   4.126   1.181 -0.9443 -0.2391 -0.1336
   11MOL   C145 6965   1.307   4.006   1.278  0.1804 -0.0522 -0.2522
   11MOL   C146 6966   1.258   4.036   1.426 -0.3484  0.6409 -0.2153
   11MOL   C147 6967   1.301   3.922   1.524  0.6052 -0.0157 -0.0836
   11MOL   C148 6968   1.211   3.799   1.511 -0.5563 -0.2448 -0.4575
   11MOL   C149 6969   1.241   3.684   1.608  0.2058  0.4493  0.7370
   11MOL   O150 6970   1.281   3.712   1.721 -0.0698 -0.0327  0.0270
   11MOL   H151 6971   1.293   4.719   0.817 -1.1165 -0.4330  2.2595
   11MOL   H152 6972   1.529   4.686   0.958  0.7994  0.5268  1.8235
   11MOL   H153 6973   1.432   4.763   1.072  2.8976  0.6836 -1.6701
   11MOL   H154 6974   1.354   4.526   0.894 -1.0870 -2.2704  0.9761
   11MOL   H155 6975   1.246   4.590   0.999 -0.3862  0.5619  1.3043
   11MOL   H156 6976   1.514   4.449   1.060 -0.7797  1.8460 -3.8868
   11MOL   H157 6977   1.437   4.527   1.199 -0.5513  1.6633 -0.5389
   11MOL   H158 6978   1.303   4.336   1.013  1.8405 -0.5450 -0.7925
   11MOL   H159 6979   1.222   4.394   1.151  1.0769 -0.1397  3.5728
   11MOL   H160 6980   1.375   4.273   1.307 -2.0367 -1.6477  0.9271
   11MOL   H161 6981   1.473   4.220   1.165 -0.6271 -2.4147 -0.4806
   11MOL   H162 6982   1.184   4.168   1.192 -0.5901  0.6934 -0.4537
   11MOL   H163 6983   1.282   4.091   1.078  2.1536 -1.6219  0.2330
   11MOL   H164 6984   1.412   3.978   1.278 -0.1486 -1.3333 -0.2611
   11MOL   H165 6985   1.259   3.916   1.237  0.4137 -1.3731  2.2947
   11MOL   H166 6986   1.308   4.123   1.469 -2.0122  1.5139 -0.0107
   11MOL   H167 6987   1.150   4.054   1.427 -0.2864  1.2052 -1.8914
   11MOL   H168 6988   1.284   3.961   1.625  0.4476 -0.9361  0.2514
   11MOL   H169 6989   1.406   3.895   1.524  0.2118 -1.6128 -0.7034
   11MOL   H170 6990   1.223   3.756   1.411  0.3250  0.2246 -0.5582
   11MOL   H171 6991   1.105   3.823   1.515 -0.2836  1.3836 -2.2379
   11MOL   N172 6992   1.223   3.560   1.558 -0.1432 -0.0830 -0.5740
   11MOL   C173 6993   1.259   3.433   1.620  0.9278 -0.3141 -0.6257
   11MOL   C174 6994   1.218   3.314   1.534  0.0828 -0.1715  0.0804
   11MOL   C175 6995   1.284   3.184   1.577 -0.1801 -0.6051 -0.1755
   11MOL   C176 6996   1.227   3.062   1.509  0.2494 -0.1638  0.6892
   11MOL   C177 6997   1.295   3.018   1.378 -0.0800 -0.6609 -0.8859
   11MOL   C178 6998   1.428   2.948   1.404  0.6496  0.8586 -0.1441
   11MOL   C179 6999   1.424   2.833   1.503 -0.8897 -0.5757 -0.0857
   11MOL   C180 7000   1.557   2.759   1.518  0.0281  0.8147 -0.1658
   11MOL   C181 7001   1.569   2.646   1.629  0.3265  0.4546  0.3713
   11MOL   C182 7002   1.700   2.564   1.615  0.5332 -0.4256  0.7887
   11MOL   C183 7003   1.742   2.516   1.751  0.4516 -0.7515 -0.0246
   11MOL   O184 7004   1.690   2.417   1.803  0.4775 -0.1056  0.0447
   11MOL   H185 7005   1.187   3.552   1.464 -2.3327  1.4807  0.0819
   11MOL   H186 7006   1.365   3.426   1.643  0.3988 -1.1977  1.6773
   11MOL   H187 7007   1.212   3.428   1.718  2.0829 -3.5046 -0.2019
   11MOL   H188 7008   1.227   3.344   1.429 -1.0095  0.9482  0.2901
   11MOL   H189 7009   1.109   3.309   1.539  0.1400  0.0399  2.1495
   11MOL   H190 7010   1.392   3.171   1.587 -0.0312  0.8676  0.3277
   11MOL   H191 7011   1.248   3.175   1.680  3.5183  2.0347  1.4652
   11MOL   H192 7012   1.124   3.086   1.481  0.7540  0.2639 -0.8607
   11MOL   H193 7013   1.221   2.980   1.581  0.0347  0.3586  1.2671
   11MOL   H194 7014   1.304   3.107   1.316 -3.0837 -0.2599 -0.8349
   11MOL   H195 7015   1.231   2.940   1.337 -0.2857 -0.6206 -0.6448
   11MOL   H196 7016   1.458   2.919   1.303  2.2483 -0.1621  0.5890
   11MOL   H197 7017   1.497   3.025   1.438 -0.5131  0.8918  2.2923
   11MOL   H198 7018   1.342   2.768   1.474  0.1448 -0.4080 -3.5967
   11MOL   H199 7019   1.400   2.865   1.605 -0.5945 -2.5427  0.6163
   11MOL   H200 7020   1.576   2.714   1.421  0.2553  1.1487 -0.2785
   11MOL   H201 7021   1.634   2.835   1.534  0.8255  0.1352 -0.7196
   11MOL   H202 7022   1.488   2.573   1.631 -1.2759  2.2162  1.0823
   11MOL   H203 7023   1.555   2.703   1.721 -2.0699 -1.3191  1.1715
   11MOL   H204 7024   1.771   2.625   1.560 -1.3493  1.7169  0.6864
   11MOL   H205 7025   1.685   2.479   1.548  1.0901 -0.6175  0.9034
   11MOL   N206 7026   1.833   2.598   1.816 -0.4044  0.4680  0.4711
   11MOL   C207 7027   1.843   2.608   1.963 -0.1928 -0.2019 -0.4650
   11MOL   C208 7028   1.707   2.645   2.035  0.2174  0.4552  0.1114
   11MOL   C209 7029   1.730   2.664   2.192  0.3412  0.0795  0.4389
   11MOL   C210 7030   1.803   2.789   2.250 -0.0065 -0.5118 -0.3141
   11MOL   C211 7031   1.820   2.788   2.405  0.2107 -0.2548 -0.0098
   11MOL   C212 7032   1.885   2.918   2.452  0.2095  0.3019  0.5814
   11MOL   C213 7033   1.878   2.947   2.602 -0.0013 -0.9984  0.2691
   11MOL   C214 7034   1.936   3.081   2.648 -0.1104 -0.5232  0.5101
   11MOL   C215 7035   1.893   3.127   2.790 -0.4326 -0.0001 -0.3446
   11MOL   C216 7036   1.969   3.053   2.902 -0.0370  0.0923  0.3601
   11MOL   C217 7037   1.919   3.083   3.043 -0.0709 -0.2789  1.1403
   11MOL   O218 7038   1.830   3.167   3.063  0.3146 -0.3832 -0.1094
   11MOL   H219 7039   1.865   2.673   1.757 -0.0430 -0.4159 -0.4636
   11MOL   H220 7040   1.926   2.672   1.992  0.1836 -0.7127 -0.4064
   11MOL   H221 7041   1.868   2.508   2.000 -0.3716 -0.7167 -1.7200
   11MOL   H222 7042   1.640   2.560   2.021 -0.8476  1.5556 -1.6770
   11MOL   H223 7043   1.664   2.730   1.983  1.3805 -0.0403 -1.7085
   11MOL   H224 7044   1.627   2.672   2.226  0.3174 -0.3340  0.4717
   11MOL   H225 7045   1.769   2.571   2.234 -2.5542 -0.5927  1.7828
   11MOL   H226 7046   1.745   2.878   2.227 -0.6300 -0.5689  0.9889
   11MOL   H227 7047   1.900   2.801   2.202  0.2592  2.9528  0.9409
   11MOL   H228 7048   1.878   2.702   2.441  2.4687  0.0095 -2.8769
   11MOL   H229 7049   1.718   2.780   2.444  0.2407  0.9177  0.3260
   11MOL   H230 7050   1.987   2.904   2.416  0.3769 -1.4224  1.6589
   11MOL   H231 7051   1.838   3.003   2.402 -2.8211 -1.3067  0.5701
   11MOL   H232 7052   1.923   2.868   2.662 -2.2067 -2.2896  0.3023
   11MOL   H233 7053   1.776   2.950   2.641  0.0012 -1.1839  0.2904
   11MOL   H234 7054   2.045   3.079   2.646 -0.0845 -0.4552  1.4705
   11MOL   H235 7055   1.892   3.161   2.590  1.4458 -0.2076 -0.2691
   11MOL   H236 7056   1.787   3.115   2.812 -0.6691 -1.1314 -2.0424
   11MOL   H237 7057   1.912   3.234   2.804  1.1939 -0.2759 -0.3601
   11MOL   H238 7058   2.077   3.068   2.899 -0.0684  0.5891  1.3379
   11MOL   H239 7059   1.953   2.946   2.894  2.1706 -0.2414  0.0758
   11MOL   N240 7060   1.978   3.014   3.140  0.3685  0.0913 -0.0811
   11MOL   C241 7061   1.969   3.054   3.276  0.2433 -0.3319  0.0806
   11MOL   C242 7062   2.062   2.968   3.366 -0.3409  0.7240  0.2574
   11MOL   C243 7063   2.080   3.019   3.512 -0.0863 -0.3152 -0.2077
   11MOL   C244 7064   1.971   2.979   3.605  0.2859 -0.2102 -1.0732
   11MOL   C245 7065   1.957   2.828   3.653 -0.1023  0.0161  0.2681
   11MOL   C246 7066   1.814   2.798   3.711 -0.2994  0.0738 -0.0172
   11MOL   C247 7067   1.708   2.768   3.606 -0.0580  0.1676  0.4380
   11MOL   C248 7068   1.573   2.737   3.663 -0.7768  0.1506 -0.2769
   11MOL   C249 7069   1.456   2.729   3.566  0.5649 -0.2395 -0.4486
   11MOL   C250 7070   1.322   2.682   3.626  0.4878 -0.6004 -0.5749
   11MOL   C251 7071   1.320   2.528   3.624 -1.1192 -0.9870  0.1603
   11MOL   O252 7072   1.383   2.466   3.714 -0.0714  0.6597 -0.6138
   11MOL   H253 7073   2.041   2.942   3.106 -0.7465 -1.1491  0.4421
   11MOL   H254 7074   1.866   3.056   3.311 -0.4032 -2.6151 -1.5885
   11MOL   H255 7075   2.002   3.157   3.278 -0.9073  0.0243  2.3026
   11MOL   H256 7076   2.156   2.946   3.315 -0.5222 -1.3433  0.7668
   11MOL   H257 7077   2.019   2.868   3.373  0.6957  0.3578  1.5775
   11MOL   H258 7078   2.170   2.979   3.557  0.5849  4.0594  2.6255
   11MOL   H259 7079   2.101   3.125   3.518 -0.9832 -0.1635  0.4706
   11MOL   H260 7080   1.874   3.003   3.562 -1.5297 -1.4256  2.1473
   11MOL   H261 7081   1.959   3.051   3.686 -1.2524 -2.4667  0.7750
   11MOL   H262 7082   2.041   2.811   3.720 -0.6544 -0.1716  0.9334
   11MOL   H263 7083   1.957   2.760   3.568  0.2137  0.3781 -0.0209
   11MOL   H264 7084   1.811   2.704   3.767 -1.8113  0.2005  0.1207
   11MOL   H265 7085   1.785   2.877   3.779 -0.7786 -0.9459  0.9673
   11MOL   H266 7086   1.732   2.676   3.553  2.6297 -0.1635  2.1653
   11MOL   H267 7087   1.707   2.833   3.518  0.0628 -1.2111 -0.5936
   11MOL   H268 7088   1.565   2.647   3.723 -1.1344  3.0838  4.3762
   11MOL   H269 7089   1.550   2.808   3.743  2.3881  1.2019 -0.2304
   11MOL   H270 7090   1.478   2.689   3.467 -0.1811  0.1862 -0.7922
   11MOL   H271 7091   1.438   2.836   3.556 -2.6045 -0.6481  0.1717
   11MOL   H272 7092   1.236   2.727   3.575 -0.9061 -1.5765  0.8522
   11MOL   H273 7093   1.320   2.712   3.730 -0.0804 -2.1303 -0.1297
   11MOL   N274 7094   1.246   2.482   3.523  0.0543 -0.3649 -0.3557
   11MOL   C275 7095   1.242   2.341   3.489 -0.2858 -0.7787 -0.7434
   11MOL   C276 7096   1.176   2.323   3.356  0.2594  0.2007 -0.4747
   11MOL   C277 7097   1.177   2.182   3.298 -0.3194  0.1961  0.6001
   11MOL   C278 7098   1.320   2.130   3.270 -0.1416  0.1484 -0.5403
   11MOL   C279 7099   1.306   2.006   3.179  1.2700  0.4890 -0.5852
   11MOL   C280 7100   1.435   1.932   3.147 -0.3757  0.3895 -0.5016
   11MOL   C281 7101   1.421   1.830   3.035  0.2905 -0.2978  0.0241
   11MOL   C282 7102   1.557   1.762   3.003  0.4485 -0.0458  0.1244
   11MOL   C283 7103   1.555   1.649   2.895 -0.1378  0.4426  0.7536
   11MOL   C284 7104   1.697   1.594   2.853 -0.6342 -0.3720 -0.7854
   11MOL   C285 7105   1.771   1.515   2.972 -0.2931 -0.1774 -0.3241
   11MOL   O286 7106   1.721   1.425   3.030 -0.1584 -0.8127 -0.6323
   11MOL   H287 7107   1.189   2.537   3.460  0.2006 -1.9671 -1.9180
   11MOL   H288 7108   1.189   2.281   3.563  0.8769 -1.2078 -0.2350
   11MOL   H289 7109   1.345   2.309   3.475  0.0301  0.0924 -0.4513
   11MOL   H290 7110   1.212   2.395   3.283 -0.2773  0.6828 -0.2758
   11MOL   H291 7111   1.071   2.351   3.366  0.3209  0.2880 -0.0565
   11MOL   H292 7112   1.133   2.116   3.373 -0.2292 -0.8409 -0.2570
   11MOL   H293 7113   1.102   2.177   3.219 -1.3419  0.0511  1.5682
   11MOL   H294 7114   1.350   2.097   3.370  1.5368  0.8592 -0.7957
   11MOL   H295 7115   1.385   2.203   3.221 -0.3719  0.8988  0.2728
   11MOL   H296 7116   1.258   2.037   3.086 -1.5464 -0.0688  0.6330
   11MOL   H297 7117   1.233   1.929   3.203 -0.4758  1.4970 -2.5335
   11MOL   H298 7118   1.501   2.011   3.111 -1.0941  1.6840  0.9476
   11MOL   H299 7119   1.472   1.892   3.241 -1.5231  0.4432 -0.0154
   11MOL   H300 7120   1.380   1.881   2.948 -0.6568 -0.8858  0.1146
   11MOL   H301 7121   1.352   1.752   3.068 -0.5836  0.7950  0.8538
   11MOL   H302 7122   1.632   1.831   2.965  0.8705 -0.1883  0.6886
   11MOL   H303 7123   1.593   1.727   3.100 -0.7139  2.1568  1.3831
   11MOL   H304 7124   1.510   1.679   2.801 -0.2934  1.1063  1.0400
   11MOL   H305 7125   1.501   1.563   2.936 -0.7008  0.4413  0.0087
   11MOL   H306 7126   1.751   1.682   2.819  0.9504 -2.2636 -3.3785
   11MOL   H307 7127   1.683   1.526   2.769 -0.5503  1.3104 -2.1940
   11MOL   N308 7128   1.894   1.554   2.995 -0.5013  0.4114  0.0830
   11MOL   C309 7129   1.982   1.478   3.085 -0.2195  0.5370 -0.0180
   11MOL   C310 7130   2.024   1.559   3.213  0.2012 -0.3984  0.7114
   11MOL   C311 7131   2.101   1.690   3.189 -0.0452 -0.4600 -0.5464
   11MOL   C312 7132   2.222   1.681   3.101  0.0750 -0.8652  0.7433
   11MOL   C313 7133   2.288   1.823   3.076  0.1969  0.0108 -0.2870
   11MOL   C314 7134   2.421   1.830   3.008  0.4928 -0.0860  0.4568
   11MOL   C315 7135   2.422   1.743   2.888  0.3739 -0.5807  0.8801
   11MOL   C316 7136   2.560   1.758   2.813 -0.1150 -0.1022 -0.4964
   11MOL   C317 7137   2.581   1.659   2.699 -0.1402  1.2128  0.2531
   11MOL   C318 7138   2.694   1.701   2.609 -0.4466  0.7279 -0.2409
   11MOL   C319 7139   2.703   1.600   2.492 -0.5893 -0.3254 -0.6411
   11MOL   O320 7140   2.799   1.524   2.494  0.3005  0.3108 -0.0917
   11MOL   H321 7141   1.943   1.612   2.930 -0.5366  0.3092 -0.0346
   11MOL   H322 7142   2.070   1.453   3.025  0.0425  0.5358  0.3650
   11MOL   H323 7143   1.939   1.386   3.124  1.9749 -1.6463 -2.5592
   11MOL   H324 7144   2.086   1.496   3.275  0.4511 -0.7007  0.1582
   11MOL   H325 7145   1.930   1.573   3.267  0.1772  0.1773  0.5323
   11MOL   H326 7146   2.036   1.764   3.141 -0.0245  0.7573  1.2304
   11MOL   H327 7147   2.126   1.727   3.289 -1.2772 -1.0459 -0.0095
   11MOL   H328 7148   2.202   1.643   3.001 -0.9746 -0.3829  0.7631
   11MOL   H329 7149   2.304   1.625   3.145  2.0229  1.8730  0.7965
   11MOL   H330 7150   2.291   1.877   3.171  2.3204  2.5446 -1.7150
   11MOL   H331 7151   2.224   1.880   3.009 -0.0696 -1.3281 -1.1945
   11MOL   H332 7152   2.456   1.932   2.989  1.4783 -0.4435  0.3121
   11MOL   H333 7153   2.486   1.794   3.089  1.0333  0.1658  0.1383
   11MOL   H334 7154   2.337   1.766   2.825 -2.0007  0.4688  4.3324
   11MOL   H335 7155   2.404   1.641   2.921 -2.3382  0.1039  1.6078
   11MOL   H336 7156   2.566   1.861   2.779  2.2881 -0.3911 -1.0378
   11MOL   H337 7157   2.650   1.750   2.874 -0.0723  1.9636 -0.2571
   11MOL   H338 7158   2.484   1.649   2.650  0.4422 -2.3561 -0.3395
   11MOL   H339 7159   2.612   1.563   2.740 -2.1505 -0.3695 -1.7616
   11MOL   H340 7160   2.790   1.709   2.658 -0.8603 -1.6656  1.0397
   11MOL   H341 7161   2.672   1.794   2.556 -3.5035 -0.3243 -0.9390
   11MOL   N342 7162   2.619   1.608   2.394 -0.4153 -0.1092  0.5988
   11MOL   C343 7163   2.618   1.528   2.274  0.1952  0.2029  0.0518
   11MOL   C344 7164   2.686   1.602   2.160 -0.2536  0.0346 -0.0743
   11MOL   C345 7165   2.679   1.547   2.019 -0.3991 -0.7619  0.7115
   11MOL   C346 7166   2.723   1.656   1.918 -0.4503 -0.2407 -0.5784
   11MOL   C347 7167   2.735   1.608   1.776  0.4101  0.1363  0.3131
   11MOL   C348 7168   2.781   1.706   1.666  0.1098 -0.5140 -0.4358
   11MOL   C349 7169   2.786   1.662   1.518 -0.3204  0.2033 -0.2494
   11MOL   C350 7170   2.840   1.762   1.419 -0.4063 -0.1401 -0.4401
   11MOL   C351 7171   2.837   1.710   1.272 -0.7233 -0.5567 -0.2815
   11MOL   C352 7172   2.899   1.799   1.171 -1.1039 -0.2581 -0.5179
   11MOL   C353 7173   2.921   1.719   1.041 -0.1532  0.0336 -0.7300
   11MOL   O354 7174   3.027   1.661   1.028  0.3775  0.3818 -0.1478
   11MOL   H355 7175   2.531   1.657   2.402 -0.2408  0.3257 -0.1046
   11MOL   H356 7176   2.664   1.431   2.293 -0.3509 -0.2683 -0.9916
   11MOL   H357 7177   2.516   1.496   2.255  0.4175  0.7055 -2.1094
   11MOL   H358 7178   2.791   1.617   2.182 -0.3642  1.8751 -0.7430
   11MOL   H359 7179   2.641   1.701   2.167 -1.1297 -0.4415  1.3505
   11MOL   H360 7180   2.733   1.453   2.015 -1.2637 -1.2003 -1.1986
   11MOL   H361 7181   2.572   1.528   2.006 -0.9043  2.2416  0.2164
   11MOL   H362 7182   2.817   1.700   1.951  0.1637 -1.1615 -1.0973
   11MOL   H363 7183   2.660   1.745   1.922  1.3468  1.0364 -0.2465
   11MOL   H364 7184   2.647   1.552   1.745  0.3084  1.4465 -1.8732
   11MOL   H365 7185   2.808   1.529   1.765  1.4963  1.1550  0.1443
   11MOL   H366 7186   2.715   1.792   1.677  1.6269  0.6412 -0.1065
   11MOL   H367 7187   2.877   1.747   1.697 -0.0700 -0.4979  0.0923
   11MOL   H368 7188   2.685   1.624   1.502  0.2577 -0.7244 -1.7844
   11MOL   H369 7189   2.852   1.576   1.513 -1.1214 -0.5826  2.1719
   11MOL   H370 7190   2.776   1.849   1.433 -0.8414 -0.4743 -0.3285
   11MOL   H371 7191   2.938   1.797   1.452 -0.1025 -2.2241  0.9594
   11MOL   H372 7192   2.734   1.692   1.241 -1.0679 -0.8760  0.9878
   11MOL   H373 7193   2.893   1.618   1.254 -1.8965 -0.8494 -2.5580
   11MOL   H374 7194   2.991   1.832   1.219 -1.5034  0.8974 -0.5374
   11MOL   H375 7195   2.833   1.884   1.155 -0.0462  0.7193  0.2497
   11MOL   N376 7196   2.821   1.725   0.949 -0.1480  0.2501 -0.8678
   11MOL   C377 7197   2.823   1.664   0.816 -0.7178  0.8102 -0.0774
   11MOL   C378 7198   2.906   1.742   0.717 -0.2845  0.2079 -0.0034
   11MOL   C379 7199   2.888   1.889   0.709  0.1097 -0.1245 -0.2639
   11MOL   C380 7200   2.949   1.946   0.584 -0.6900 -0.9580 -0.3226
   11MOL   C381 7201   2.904   2.090   0.577 -0.0268  0.3572  0.9995
   11MOL   C382 7202   2.987   2.179   0.489 -0.2752  0.1712 -0.6879
   11MOL   C383 7203   2.950   2.333   0.477  0.7077  0.8866 -0.1572
   11MOL   C384 7204   3.048   2.401   0.383 -0.6483  1.1794  0.5956
   11MOL   C385 7205   3.015   2.550   0.377  0.2747 -0.7727 -0.0189
   11MOL   C386 7206   3.146   2.625   0.327 -0.0115 -0.1651  0.2431
   11MOL   C387 7207   3.177   2.626   0.175 -0.5789 -0.3631  0.2864
   11MOL   O388 7208   3.098   2.586   0.096  0.3596 -0.1165 -0.3291
   11MOL   H389 7209   2.741   1.780   0.979 -0.0513 -0.6640  1.1471
   11MOL   H390 7210   2.859   1.561   0.819  2.1673  1.7900  0.5459
   11MOL   H391 7211   2.719   1.671   0.783 -0.2329 -0.0009 -1.8561
   11MOL   H392 7212   2.875   1.702   0.620  0.5689 -2.5524  0.8319
   11MOL   H393 7213   3.011   1.715   0.725 -0.3392 -0.0310 -0.0723
   11MOL   H394 7214   2.781   1.908   0.694  0.6241  1.1339 -2.6514
   11MOL   H395 7215   2.918   1.941   0.800  0.1097 -0.8361  0.1446
   11MOL   H396 7216   2.924   1.891   0.493 -0.0226 -0.1371 -1.0287
   11MOL   H397 7217   3.058   1.952   0.589 -0.7661 -0.7310  1.2082
   11MOL   H398 7218   2.908   2.132   0.678  0.6757  1.5257  0.4880
   11MOL   H399 7219   2.798   2.098   0.553  0.7915  2.9449 -2.0573
   11MOL   H400 7220   3.090   2.161   0.520  0.3368  3.6559 -0.4217
   11MOL   H401 7221   2.984   2.134   0.390  0.0792  0.6126 -0.9047
   11MOL   H402 7222   2.951   2.384   0.574 -1.5752 -0.4876  0.6232
   11MOL   H403 7223   2.853   2.347   0.429 -0.5023 -1.1428  1.5931
   11MOL   H404 7224   3.150   2.389   0.421 -0.8110 -2.1423  0.0948
   11MOL   H405 7225   3.060   2.362   0.282  0.9107 -0.1460  1.2702
   11MOL   H406 7226   2.990   2.591   0.475  2.4860  1.1144 -0.2053
   11MOL   H407 7227   2.925   2.566   0.318 -0.4819 -1.0713  1.0341
   11MOL   H408 7228   3.236   2.594   0.380 -0.3885 -2.2516 -0.2768
   11MOL   H409 7229   3.136   2.732   0.345  0.1714 -0.6503  3.5338
   11MOL   N410 7230   3.299   2.678   0.147  0.3309  0.9562 -0.3006
   11MOL   C411 7231   3.355   2.704   0.015 -0.1948 -0.3347 -0.1835
   11MOL   C412 7232   3.509   2.716   0.041 -0.0510 -0.0544  0.1770
   11MOL   C413 7233   3.560   2.580   0.092  0.0312  0.1720  0.0573
   11MOL   C414 7234   3.711   2.555   0.085 -0.4713  0.3755 -0.3916
   11MOL   C415 7235   3.758   2.417   0.137 -0.0491 -0.2935  1.3308
   11MOL   C416 7236   3.910   2.416   0.145  0.0162  0.2883  0.1150
   11MOL   C417 7237   3.967   2.287   0.199  0.2120 -0.1083  0.0033
   11MOL   C418 7238   4.121   2.295   0.215 -1.0123  0.4098 -0.5568
   11MOL   C419 7239   4.179   2.406   0.297  0.0070  0.0403  0.2209
   11MOL   C420 7240   4.117   2.414   0.438  0.8036  0.0430 -0.2141
   11MOL   C421 7241   4.180   2.516   0.529  0.9518  0.7793  0.8743
   11MOL   O422 7242   4.196   2.496   0.645  0.1440 -0.0056  0.0284
   11MOL   H423 7243   3.361   2.691   0.225 -0.2335 -1.2289  0.5497
   11MOL   H424 7244   3.328   2.623   7.663 -0.0410 -0.4462 -0.1119
   11MOL   H425 7245   3.308   2.797   7.699 -0.2081  0.2254  1.4236
   11MOL   H426 7246   3.534   2.802   0.103  1.1426  0.0687 -0.4443
   11MOL   H427 7247   3.568   2.729   7.666 -0.8051  0.0791 -0.2927
   11MOL   H428 7248   3.533   2.569   0.197  0.3651 -1.3375 -0.0107
   11MOL   H429 7249   3.506   2.503   0.039  0.9976 -0.1831 -0.4271
   11MOL   H430 7250   3.753   2.637   0.143 -1.0251 -1.2331  2.3588
   11MOL   H431 7251   3.748   2.561   7.698  1.1375 -1.0922  0.0950
   11MOL   H432 7252   3.721   2.343   0.067 -1.0079  0.8816  0.5611
   11MOL   H433 7253   3.723   2.394   0.237  0.0846 -1.8205  1.0381
   11MOL   H434 7254   3.952   2.450   0.050  0.9336 -1.9162 -0.2885
   11MOL   H435 7255   3.930   2.501   0.210  0.4084  0.4455 -0.2163
   11MOL   H436 7256   3.934   2.199   0.144 -1.2026 -0.6889  1.7400
   11MOL   H437 7257   3.922   2.276   0.298 -3.7709 -1.8856 -1.8745
   11MOL   H438 7258   4.138   2.197   0.258  0.1198 -0.3133 -2.5999
   11MOL   H439 7259   4.159   2.302   0.113  1.3547 -1.5093  0.1550
   11MOL   H440 7260   4.163   2.501   0.246  0.0037  1.1743  2.3021
   11MOL   H441 7261   4.288   2.395   0.300  0.0208 -0.3298 -1.0985
   11MOL   H442 7262   4.125   2.321   0.495 -1.1739  0.6771  1.1601
   11MOL   H443 7263   4.011   2.437   0.435  1.1641  2.0355  1.3402
   11MOL   N444 7264   4.220   2.633   0.479 -0.1936  0.1172 -0.1979
   11MOL   C445 7265   4.275   2.742   0.555 -0.5351  0.1734  0.7588
   11MOL   C446 7266   4.424   2.723   0.583 -0.0799  0.7741  0.0874
   11MOL   C447 7267   4.473   2.822   0.685 -0.1074 -0.3548  0.1724
   11MOL   C448 7268   4.631   2.819   0.682  0.2776 -0.0210  0.3291
   11MOL   C449 7269   4.696   2.935   0.756 -0.3368 -0.3126 -0.4991
   11MOL   C450 7270   4.851   2.928   0.760 -0.1946  0.1125  0.0841
   11MOL   C451 7271   4.912   2.952   0.620  0.5804 -1.1149  0.0223
   11MOL   C452 7272   5.061   2.929   0.606  0.2227 -0.4632 -0.5982
   11MOL   C453 7273   5.124   2.954   0.472  0.2881 -0.7343  0.1091
   11MOL   C454 7274   5.280   2.941   0.464  0.8649  0.0643 -0.0991
   11MOL   C455 7275   5.334   2.925   0.328  0.3394  0.1984  0.1566
   11MOL   O456 7276   5.264   2.875   0.236 -0.0770 -0.0501  0.1081
   11MOL   H457 7277   4.182   2.656   0.388 -1.1442 -2.0177 -0.3642
   11MOL   H458 7278   4.270   2.838   0.503  3.3815  1.0194  1.7970
   11MOL   H459 7279   4.216   2.758   0.646 -0.3946  2.6825  0.4599
   11MOL   H460 7280   4.477   2.729   0.487  0.4860  0.9713  0.4049
   11MOL   H461 7281   4.429   2.619   0.614  0.3892  0.3744 -1.2959
   11MOL   H462 7282   4.436   2.924   0.676 -0.4678 -0.2816  2.2396
   11MOL   H463 7283   4.431   2.786   0.779 -1.7690  0.4751 -0.2312
   11MOL   H464 7284   4.662   2.831   0.578  3.8438  2.0429  1.5273
   11MOL   H465 7285   4.653   2.725   0.733  2.2802 -0.2331 -0.9035
   11MOL   H466 7286   4.657   2.938   0.857  1.8314  0.4932  0.3331
   11MOL   H467 7287   4.668   3.025   0.702  0.2333  0.2067  0.0835
   11MOL   H468 7288   4.893   3.000   0.830 -1.4528 -0.4461  1.4304
   11MOL   H469 7289   4.876   2.828   0.794 -1.6036 -0.4130 -0.4034
   11MOL   H470 7290   4.888   3.053   0.587 -0.4000 -1.0444  0.9441
   11MOL   H471 7291   4.864   2.881   0.553  0.3384 -2.0461  1.1745
   11MOL   H472 7292   5.120   2.987   0.677 -0.5402  1.2092 -1.3204
   11MOL   H473 7293   5.077   2.822   0.624 -0.3265 -0.5950 -0.8796
   11MOL   H474 7294   5.107   3.057   0.442  0.8339 -0.4580  0.7513
   11MOL   H475 7295   5.085   2.876   0.405  0.4295 -0.8377  0.1461
   11MOL   H476 7296   5.324   2.861   0.524  1.8761  1.7528  1.4599
   11MOL   H477 7297   5.329   3.030   0.503 -0.3435  1.0092 -0.7218
   11MOL   N478 7298   5.457   2.966   0.305  0.4407 -0.2698  0.4326
   11MOL   C479 7299   5.526   2.955   0.175 -0.3548 -0.9864  1.0866
   11MOL   C480 7300   5.673   3.005   0.185 -0.0388 -0.1658  0.1213
   11MOL   C481 7301   5.750   2.953   0.058  0.5031 -0.0312 -0.7061
   11MOL   C482 7302   5.903   2.990   0.043 -0.4321 -0.1760 -0.0744
   11MOL   C483 7303   5.925   3.139   0.041 -0.0008 -0.1479 -0.1268
   11MOL   C484 7304   5.883   3.194   7.619 -0.1534  0.0327 -0.6633
   11MOL   C485 7305   5.931   3.338   7.605  0.2477  0.2499 -0.1708
   11MOL   C486 7306   5.882   3.408   7.476  0.0679  1.0966  0.2430
   11MOL   C487 7307   5.922   3.342   7.343 -1.3292 -0.1655 -0.2864
   11MOL   C488 7308   5.930   3.430   7.216 -0.9423 -0.1444  0.3528
   11MOL   C489 7309   5.798   3.507   7.195 -0.6842  0.2101 -0.5469
   11MOL   O490 7310   5.691   3.451   7.208 -0.0324  0.5860 -0.3283
   11MOL   H491 7311   5.500   3.002   0.389  0.4696  0.6798  0.0180
   11MOL   H492 7312   5.529   2.848   0.153  3.4752 -0.9886  1.2145
   11MOL   H493 7313   5.478   3.007   0.091  3.0985  0.6174 -0.0144
   11MOL   H494 7314   5.719   2.965   0.275 -3.4639 -1.3155  1.4264
   11MOL   H495 7315   5.672   3.114   0.183 -1.8560 -0.1751 -2.3453
   11MOL   H496 7316   5.735   2.845   0.071 -2.5898  0.8423  3.8195
   11MOL   H497 7317   5.701   2.988   7.683  3.7422 -1.1477 -3.0145
   11MOL   H498 7318   5.948   2.957   7.665 -2.0728  1.1775 -1.3692
   11MOL   H499 7319   5.961   2.945   0.124 -0.9232 -0.2576  0.2320
   11MOL   H500 7320   6.029   3.169   0.055  0.0625  0.1847 -1.2829
   11MOL   H501 7321   5.874   3.196   0.119  0.1879  0.3292 -0.3541
   11MOL   H502 7322   5.914   3.126   7.541  1.4651 -1.2065  1.0171
   11MOL   H503 7323   5.775   3.213   7.624 -0.0186  0.4337  1.3198
   11MOL   H504 7324   6.039   3.341   7.607  0.2673 -0.5206  0.0031
   11MOL   H505 7325   5.892   3.401   7.685  1.7022  0.7161  0.1871
   11MOL   H506 7326   5.774   3.421   7.480 -0.3591 -1.5949 -1.0253
   11MOL   H507 7327   5.905   3.514   7.479 -1.8565  1.4738  3.0013
   11MOL   H508 7328   5.847   3.265   7.327 -1.5162 -0.3583  1.4887
   11MOL   H509 7329   6.021   3.298   7.359 -0.7180  0.7745 -1.3714
   11MOL   H510 7330   5.946   3.374   7.123 -1.4985  0.1304  0.0863
   11MOL   H511 7331   6.017   3.496   7.218 -1.4279  0.5317 -0.4155
   11MOL   N512 7332   5.798   3.641   7.178  0.1700 -0.0661 -0.0170
   11MOL   C513 7333   5.904   3.727   7.121 -0.2355  0.6336  0.8298
   11MOL   C514 7334   5.842   3.853   7.059 -0.3012 -0.8335 -0.4883
   11MOL   C515 7335   5.943   3.948   6.984  0.4848 -0.3167 -0.1270
   11MOL   C516 7336   6.052   3.993   7.080  0.6331  0.3051  0.5983
   11MOL   C517 7337   6.164   4.074   7.007 -0.3143 -0.4769 -0.2036
   11MOL   C518 7338   6.277   4.110   7.088 -0.0446  0.6516  0.7761
   11MOL   C519 7339   6.253   4.218   7.190 -0.3802 -0.0461 -0.0035
   11MOL   C520 7340   6.395   4.256   7.258  0.5339  0.2366  0.1097
   11MOL   C521 7341   6.384   4.356   7.368  0.1698 -0.1396 -0.7337
   11MOL   C522 7342   6.339   4.285   7.501  0.4005  0.8246  0.1232
   11MOL   C523 7343   6.344   4.383   7.618 -0.4776  0.3547 -0.1046
   11MOL   O524 7344   6.402   4.494   7.617 -0.3039  0.5197 -0.3141
   11MOL   H525 7345   5.704   3.677   7.181 -0.4592 -1.5855 -0.8365
   11MOL   H526 7346   5.991   3.744   7.184 -0.6439  1.2662  1.2264
   11MOL   H527 7347   5.950   3.674   7.037  1.5808 -0.0842  2.2481
   11MOL   H528 7348   5.799   3.894   7.151  0.4728  0.7277 -0.8208
   11MOL   H529 7349   5.754   3.832   6.999 -0.9650 -1.5405  0.6946
   11MOL   H530 7350   5.981   3.897   6.896 -0.3736 -0.5117 -0.3882
   11MOL   H531 7351   5.887   4.038   6.957 -1.1333 -1.3194 -0.1730
   11MOL   H532 7352   6.111   3.910   7.119 -0.5607 -0.4259  0.8476
   11MOL   H533 7353   6.012   4.041   7.169  0.9652 -0.5230  1.2002
   11MOL   H534 7354   6.118   4.156   6.951  0.7284  1.7184  2.0485
   11MOL   H535 7355   6.216   4.008   6.938  0.5120  1.4632 -1.4990
   11MOL   H536 7356   6.324   4.021   7.129 -0.7707 -0.4903 -0.8352
   11MOL   H537 7357   6.346   4.144   7.011 -1.4498  0.0879 -0.7598
   11MOL   H538 7358   6.172   4.200   7.260 -0.0432 -2.2340 -0.1285
   11MOL   H539 7359   6.230   4.313   7.142 -0.8248  0.3812  1.0413
   11MOL   H540 7360   6.443   4.165   7.294 -0.3596  0.3344  1.5828
   11MOL   H541 7361   6.464   4.286   7.179 -0.1075 -0.1037 -0.5947
   11MOL   H542 7362   6.316   4.439   7.346 -0.2458 -0.6757 -1.4675
   11MOL   H543 7363   6.482   4.400   7.389  0.5512 -1.4780  0.3184
   11MOL   H544 7364   6.413   4.205   7.510  0.5267  0.7059 -1.6604
   11MOL   H545 7365   6.239   4.243   7.492 -0.6237  3.2942 -0.2669
   11MOL   N546 7366   6.262   4.340   0.002  0.5661 -0.4665 -0.1497
   11MOL   C547 7367   6.242   4.409   0.132  0.3976  0.8562  0.6566
   11MOL   C548 7368   6.125   4.358   0.223  0.2469  0.1347 -0.0969
   11MOL   C549 7369   6.015   4.280   0.142  0.1702  0.0965 -0.3989
   11MOL   C550 7370   5.892   4.251   0.226 -0.0308  0.5723  0.4349
   11MOL   C551 7371   5.784   4.162   0.164  0.7065  0.3968  0.6627
   11MOL   C552 7372   5.661   4.149   0.260 -0.8496 -0.0348 -0.4032
   11MOL   C553 7373   5.547   4.060   0.213  0.3427  0.6731 -1.0613
   11MOL   C554 7374   5.420   4.059   0.300  0.0677  0.1762 -0.1880
   11MOL   C555 7375   5.329   3.948   0.241 -0.4587 -0.2265 -0.9551
   11MOL   C556 7376   5.197   3.927   0.324  0.4439  0.4761 -0.6072
   11MOL   C557 7377   5.085   4.004   0.258  0.2642  0.4793  0.0856
   11MOL   O558 7378   5.053   3.980   0.144  0.7179 -0.9106  0.3677
   11MOL   H559 7379   6.208   4.256   7.709 -1.7434  0.7076  1.9721
   11MOL   H560 7380   6.331   4.412   0.195 -0.3089  3.2387  1.6184
   11MOL   H561 7381   6.237   4.516   0.111  0.9524  0.8484  0.4697
   11MOL   H562 7382   6.085   4.443   0.279  2.0478  2.2939 -1.9528
   11MOL   H563 7383   6.171   4.295   0.298 -0.9540  1.9164  2.1976
   11MOL   H564 7384   5.974   4.319   0.049  1.8571  0.4923 -0.9877
   11MOL   H565 7385   6.069   4.193   0.104  0.0044 -0.5470  0.8195
   11MOL   H566 7386   5.840   4.342   0.253 -1.8009 -0.9686  2.3625
   11MOL   H567 7387   5.926   4.206   0.319 -1.1493 -1.7234 -0.2273
   11MOL   H568 7388   5.825   4.062   0.152  1.5785  0.8150  0.1169
   11MOL   H569 7389   5.763   4.187   0.059 -0.5015  1.2412  1.0938
   11MOL   H570 7390   5.702   4.112   0.354  1.6705  1.5579 -0.8266
   11MOL   H571 7391   5.628   4.253   0.262  0.6683  0.4749 -0.5451
   11MOL   H572 7392   5.586   3.959   0.202  3.1601  1.4724  1.1953
   11MOL   H573 7393   5.526   4.088   0.110  1.3708 -1.7959 -2.0000
   11MOL   H574 7394   5.447   4.053   0.406 -0.3005  0.1086 -0.0968
   11MOL   H575 7395   5.384   4.161   0.288  3.2224  1.6050  1.8101
   11MOL   H576 7396   5.372   3.847   0.241 -1.1530 -0.5270 -0.1186
   11MOL   H577 7397   5.305   3.983   0.141 -1.3993  0.3195 -0.5465
   11MOL   H578 7398   5.194   3.958   0.428 -2.2176 -0.4142 -0.3824
   11MOL   H579 7399   5.175   3.821   0.332  0.8926  0.4444  0.2430
   11MOL   N580 7400   5.026   4.099   0.329 -0.0154 -0.4588  0.2636
   11MOL   C581 7401   4.925   4.188   0.267 -0.0310  0.2079 -0.2412
   11MOL   C582 7402   4.976   4.313   0.209  0.5938  0.7807 -0.0005
   11MOL   C583 7403   4.866   4.421   0.183 -0.2593 -0.5455 -0.1600
   11MOL   C584 7404   4.942   4.531   0.104 -0.2773 -0.5587 -0.2843
   11MOL   C585 7405   4.849   4.653   0.086 -0.3766 -0.0914  0.2709
   11MOL   C586 7406   4.899   4.759   7.704  0.1229  0.2582 -0.0628
   11MOL   C587 7407   4.816   4.888   7.715  0.2446  0.0852 -0.1965
   11MOL   C588 7408   4.662   4.879   7.696 -0.3605  0.6518 -0.1562
   11MOL   C589 7409   4.592   5.014   7.681  0.2686  0.1907  0.2718
   11MOL   C590 7410   4.442   5.029   7.671  0.2035  0.1724  0.4217
   11MOL   C591 7411   4.387   5.166   7.627  0.1026 -0.1939  0.1958
   11MOL   O592 7412   4.461   5.251   7.576  0.3122  0.3755  0.7816
   11MOL   H593 7413   5.035   4.091   0.429  2.0137  0.8911  0.2191
   11MOL   H594 7414   4.857   4.123   0.212 -0.8828 -1.2322  2.3911
   11MOL   H595 7415   4.856   4.219   0.346 -0.0790 -0.4660 -0.0169
   11MOL   H596 7416   5.032   4.279   0.122  0.6401  0.3759  0.1857
   11MOL   H597 7417   5.054   4.357   0.271  1.9528 -0.8027 -0.5544
   11MOL   H598 7418   4.792   4.388   0.110  0.1033 -0.4873 -0.5556
   11MOL   H599 7419   4.815   4.449   0.275  0.6001 -0.9750  0.4467
   11MOL   H600 7420   4.950   4.495   0.001 -1.8459  1.3619 -1.1334
   11MOL   H601 7421   5.037   4.561   0.148 -1.3602  0.8757  1.1424
   11MOL   H602 7422   4.815   4.698   0.179  0.3617 -0.7276  0.8522
   11MOL   H603 7423   4.758   4.610   0.045 -0.0846 -1.5211  1.0957
   11MOL   H604 7424   5.001   4.797   7.715  0.4555 -0.8550  0.8547
   11MOL   H605 7425   4.891   4.713   7.606  3.6284  0.2669 -0.4144
   11MOL   H606 7426   4.856   4.958   7.642 -0.1642  0.1551 -0.3587
   11MOL   H607 7427   4.844   4.935   0.093 -1.7135 -1.2145  1.0811
   11MOL   H608 7428   4.646   4.825   7.603 -0.3212 -0.0266  0.2285
   11MOL   H609 7429   4.620   4.810   0.053 -0.6015 -1.6924 -2.4549
   11MOL   H610 7430   4.626   5.056   7.586 -1.5570 -0.4655 -0.6791
   11MOL   H611 7431   4.627   5.088   0.037 -0.9838  1.6388 -0.5933
   11MOL   H612 7432   4.407   5.011   0.057 -1.2102 -2.0586 -0.4366
   11MOL   H613 7433   4.386   4.947   7.626  1.4598  0.0041 -0.8624
   11MOL   N614 7434   4.262   5.189   7.664 -0.0174 -0.1084  0.2000
   11MOL   C615 7435   4.202   5.323   7.677 -0.4619  0.7677 -0.1443
   11MOL   C616 7436   4.167   5.361   0.106 -0.1800 -0.1873 -0.0729
   11MOL   C617 7437   4.046   5.278   0.162  0.6019  0.5336 -0.2565
   11MOL   C618 7438   3.961   5.355   0.277  0.1583 -0.2323  0.5762
   11MOL   C619 7439   3.880   5.259   0.356 -0.3934  0.6346  0.0581
   11MOL   C620 7440   3.795   5.316   0.474 -1.0635  0.3651 -0.1745
   11MOL   C621 7441   3.687   5.224   0.521  0.1144 -0.0472 -0.7582
   11MOL   C622 7442   3.740   5.105   0.593  0.2051  0.6770 -0.0003
   11MOL   C623 7443   3.657   4.973   0.586 -0.0368  0.3750  0.1089
   11MOL   C624 7444   3.729   4.851   0.644 -0.2866 -0.0031  0.0447
   11MOL   C625 7445   3.836   4.808   0.557 -0.1752  0.1139  0.2168
   11MOL   O626 7446   3.819   4.807   0.438  0.1604 -0.7278  0.2114
   11MOL   H627 7447   4.210   5.110   7.701  0.9854 -2.3355 -2.9423
   11MOL   H628 7448   4.113   5.331   7.614 -1.3646  1.5416  1.2015
   11MOL   H629 7449   4.258   5.408   7.638  1.8330 -0.3958  0.5105
   11MOL   H630 7450   4.142   5.467   0.112 -2.2076 -0.6170 -0.5316
   11MOL   H631 7451   4.256   5.342   0.167  0.1996  0.0272 -0.5586
   11MOL   H632 7452   3.976   5.231   0.093 -0.1033 -1.6897  1.9151
   11MOL   H633 7453   4.090   5.191   0.210 -0.8138  1.5182  2.9678
   11MOL   H634 7454   3.905   5.431   0.222  0.3207 -2.2613 -2.5049
   11MOL   H635 7455   4.027   5.397   0.353 -0.2639  0.7910  0.3914
   11MOL   H636 7456   3.938   5.172   0.388 -0.1787  0.7914  0.0950
   11MOL   H637 7457   3.814   5.205   0.288  0.0345  1.6977 -1.2102
   11MOL   H638 7458   3.842   5.368   0.557  0.5835  0.6799 -1.2766
   11MOL   H639 7459   3.735   5.397   0.431 -2.2550 -1.2807 -1.6661
   11MOL   H640 7460   3.622   5.187   0.442 -1.9046 -0.9903  1.3093
   11MOL   H641 7461   3.615   5.272   0.588 -0.6476 -1.8844 -0.2396
   11MOL   H642 7462   3.841   5.075   0.565 -0.1128 -0.1231 -0.2957
   11MOL   H643 7463   3.741   5.130   0.699 -1.1954 -1.9666  0.6622
   11MOL   H644 7464   3.624   4.946   0.485  1.9540 -0.5310 -0.3122
   11MOL   H645 7465   3.565   4.981   0.645 -0.5339 -0.2013 -0.5657
   11MOL   H646 7466   3.663   4.769   0.673  0.3781  0.5066  3.2563
   11MOL   H647 7467   3.766   4.885   0.741 -2.3388 -2.1856  1.6477
   11MOL   N648 7468   3.957   4.766   0.607 -0.0575 -0.2913  0.5009
   11MOL   C649 7469   4.073   4.723   0.524 -0.0868  0.1974  0.2551
   11MOL   C650 7470   4.191   4.696   0.612 -0.4784  0.3437  0.3615
   11MOL   C651 7471   4.319   4.639   0.541 -0.1423 -0.2380 -0.5901
   11MOL   C652 7472   4.429   4.580   0.635  0.3963 -0.6280 -0.3821
   11MOL   C653 7473   4.502   4.688   0.708  0.5942 -0.0519  0.0664
   11MOL   C654 7474   4.610   4.630   0.795  0.1332  0.1785  0.0992
   11MOL   C655 7475   4.690   4.740   0.863  0.5074  0.5679 -0.0376
   11MOL   C656 7476   4.782   4.682   0.962  0.1062 -0.1691  0.2846
   11MOL   C657 7477   4.837   4.795   1.048 -0.4610 -0.3479  0.0701
   11MOL   C658 7478   4.913   4.764   1.176  0.2385 -1.2526  0.0947
   11MOL   C659 7479   5.061   4.703   1.161 -0.0825  0.0535  0.4621
   11MOL   O660 7480   5.138   4.746   1.070 -0.3241  0.4890  0.2354
   11MOL   H661 7481   3.953   4.763   0.708  1.4687  2.0425  0.6724
   11MOL   H662 7482   4.097   4.803   0.455 -0.6021  0.6199  0.5584
   11MOL   H663 7483   4.040   4.632   0.474 -1.6678  1.1147 -0.4115
   11MOL   H664 7484   4.159   4.630   0.693 -1.0534 -0.0260 -0.1686
   11MOL   H665 7485   4.211   4.790   0.662 -2.3852  0.7946  0.3153
   11MOL   H666 7486   4.286   4.556   0.478 -1.6632 -0.6749  0.7550
   11MOL   H667 7487   4.363   4.710   0.470 -2.1557  0.1094 -1.5226
   11MOL   H668 7488   4.502   4.519   0.582  2.0133  0.5815  0.4421
   11MOL   H669 7489   4.367   4.523   0.705 -0.7380 -0.0573 -0.8957
   11MOL   H670 7490   4.430   4.742   0.769 -0.2999 -0.5923 -0.4895
   11MOL   H671 7491   4.546   4.756   0.635 -1.8361  0.9825 -0.5016
   11MOL   H672 7492   4.552   4.567   0.862 -0.6181 -1.5472 -2.0888
   11MOL   H673 7493   4.676   4.569   0.734 -1.3218 -0.4966 -0.8428
   11MOL   H674 7494   4.620   4.803   0.919  1.3355 -0.3800  2.0945
   11MOL   H675 7495   4.742   4.802   0.790 -0.8438  1.3311 -0.3811
   11MOL   H676 7496   4.727   4.608   1.020  0.4969 -0.6591  0.0411
   11MOL   H677 7497   4.860   4.624   0.913 -1.6629 -0.7861 -1.8782
   11MOL   H678 7498   4.749   4.854   1.074 -1.1203 -1.2125 -0.1905
   11MOL   H679 7499   4.897   4.854   0.977 -0.4532  0.6454  0.8821
   11MOL   H680 7500   4.872   4.684   1.237 -2.2039  1.6846  2.4584
   11MOL   H681 7501   4.917   4.847   1.247 -0.7475 -0.8462 -0.3192
   11MOL   H682 7502   5.097   4.621   1.224  1.6970  1.6271  1.5567
   12MOL     N1 7503   4.261   1.341   6.760  0.3829 -0.9517  0.2114
   12MOL     C2 7504   4.305   1.208   6.727  0.3657  0.4960  0.9732
   12MOL     C3 7505   4.392   1.145   6.841 -0.2038 -0.1713 -0.5100
   12MOL     C4 7506   4.419   0.999   6.811  0.7076  0.1197 -0.3996
   12MOL     C5 7507   4.522   0.941   6.917  0.1108 -0.6174 -0.7068
   12MOL     C6 7508   4.470   0.957   7.050  0.5834 -0.6362 -0.0235
   12MOL     C7 7509   4.555   0.880   7.157 -0.4021 -0.1257  0.3404
   12MOL     C8 7510   4.504   0.897   7.298 -0.5736 -0.6677 -0.9337
   12MOL     C9 7511   4.537   1.041   7.366 -0.0391 -0.2047  0.3698
   12MOL    C10 7512   4.463   1.049   7.502 -0.3865  0.3836 -0.3405
   12MOL    C11 7513   4.441   1.187   7.553 -0.9323  0.1201 -0.3672
   12MOL    C12 7514   4.582   1.246   7.606  0.6397 -0.4204  0.3837
   12MOL    O13 7515   4.690   1.188   7.605 -0.0698  0.2085 -0.0041
   12MOL    H14 7516   4.205   1.375   6.683  2.3226 -1.5063 -1.4894
   12MOL    H15 7517   4.370   1.209   6.639 -1.7798 -0.9500 -0.6786
   12MOL    H16 7518   4.214   1.153   6.703 -0.4796  1.6694  1.4217
   12MOL    H17 7519   4.323   1.155   6.924 -2.0652 -1.2392 -1.8771
   12MOL    H18 7520   4.485   1.200   6.858  0.3726 -1.0768 -0.6317
   12MOL    H19 7521   4.324   0.946   6.806  0.3462  0.2937  3.0284
   12MOL    H20 7522   4.468   0.994   6.714  1.0204  1.3305 -0.3166
   12MOL    H21 7523   4.616   0.996   6.914 -1.6013  2.4875  0.7278
   12MOL    H22 7524   4.539   0.834   6.904 -1.0175 -1.1460  1.8852
   12MOL    H23 7525   4.367   0.923   7.053  0.5172 -0.9030 -3.4387
   12MOL    H24 7526   4.459   1.060   7.083  1.9004 -0.5953  0.3402
   12MOL    H25 7527   4.548   0.775   7.132  0.2773 -0.2387  0.6157
   12MOL    H26 7528   4.660   0.911   7.146  0.3468 -2.2361  1.3476
   12MOL    H27 7529   4.564   0.831   7.361  1.5734  0.6602 -1.5150
   12MOL    H28 7530   4.399   0.872   7.308 -0.9242  1.3174  0.5815
   12MOL    H29 7531   4.642   1.069   7.367 -0.1042  0.0264  0.7514
   12MOL    H30 7532   4.499   1.124   7.307 -0.2063 -1.5829 -1.5019
   12MOL    H31 7533   4.529   0.999   7.573 -0.4640 -0.0952 -0.6046
   12MOL    H32 7534   4.367   0.999   7.489 -1.5399  1.5154  3.2080
   12MOL    H33 7535   4.378   1.190   7.642 -0.2174  1.9954  0.1111
   12MOL    H34 7536   4.395   1.249   7.476 -2.6554 -0.1923  0.3996
   12MOL    H35 7537   4.344   1.398   6.754  1.0875 -2.0025 -0.1593
   12MOL    N36 7538   4.577   1.369   7.655 -0.2309  1.2161 -0.3265
   12MOL    C37 7539   4.473   1.461   7.673  0.4873  0.3733 -0.0473
   12MOL    C38 7540   4.415   1.463   0.101 -0.3726  0.0745 -0.2002
   12MOL    C39 7541   4.521   1.475   0.214 -0.0083  0.3760  0.3217
   12MOL    C40 7542   4.458   1.478   0.357  0.3587 -0.1039  0.5386
   12MOL    C41 7543   4.423   1.337   0.395  0.4344  0.8008  0.8819
   12MOL    C42 7544   4.402   1.333   0.550 -0.2520  0.0048  0.4978
   12MOL    C43 7545   4.325   1.216   0.603 -0.3752  0.1569  0.1061
   12MOL    C44 7546   4.391   1.078   0.589  0.0825 -0.0435  0.2216
   12MOL    C45 7547   4.520   1.051   0.669  0.2988  0.0727  0.0356
   12MOL    C46 7548   4.562   0.902   0.670  0.1554 -1.0885  0.2665
   12MOL    C47 7549   4.696   0.888   0.739  0.4468  0.0161 -0.1444
   12MOL    O48 7550   4.794   0.954   0.708 -0.1297 -0.1649  0.0044
   12MOL    H49 7551   4.671   1.379   7.691  0.8561 -4.2849 -1.1633
   12MOL    H50 7552   4.529   1.554   7.658 -1.0631  1.1993 -0.8218
   12MOL    H51 7553   4.396   1.449   7.597 -0.3130  2.3898  0.4076
   12MOL    H52 7554   4.357   1.371   0.112 -1.3827  0.5303 -1.5840
   12MOL    H53 7555   4.338   1.538   0.119 -0.2431 -0.2448  1.7773
   12MOL    H54 7556   4.590   1.393   0.194 -0.4554 -0.0115  0.3444
   12MOL    H55 7557   4.568   1.572   0.202  0.4048  0.1740  0.3217
   12MOL    H56 7558   4.379   1.550   0.376 -0.0894 -0.6455  0.7515
   12MOL    H57 7559   4.535   1.525   0.420  0.5057 -0.6082  0.7391
   12MOL    H58 7560   4.499   1.268   0.361 -1.4443 -0.4404 -0.9115
   12MOL    H59 7561   4.327   1.311   0.349 -0.7676  0.6313  3.4168
   12MOL    H60 7562   4.485   1.359   0.615 -0.4166  0.5977  0.4764
   12MOL    H61 7563   4.343   1.424   0.560  0.5394  0.3508  2.2235
   12MOL    H62 7564   4.233   1.215   0.545 -0.1867  2.2527 -0.2891
   12MOL    H63 7565   4.294   1.232   0.707 -0.1925 -0.5079  0.2637
   12MOL    H64 7566   4.321   1.002   0.624  2.2107 -1.6034  1.2703
   12MOL    H65 7567   4.411   1.049   0.485  1.5852 -0.8045  0.7041
   12MOL    H66 7568   4.523   1.098   0.767  0.3226  2.6567 -1.1502
   12MOL    H67 7569   4.598   1.105   0.615 -0.3921  0.6165 -0.4294
   12MOL    H68 7570   4.571   0.866   0.568 -3.3456 -1.9514  0.2054
   12MOL    H69 7571   4.483   0.837   0.706 -0.2948 -1.0056 -0.5650
   12MOL    N70 7572   4.706   0.802   0.843  0.4339  0.4943 -0.0173
   12MOL    C71 7573   4.825   0.791   0.920 -0.3249 -0.5342  0.4054
   12MOL    C72 7574   4.822   0.888   1.037 -0.1900 -0.8455 -0.2144
   12MOL    C73 7575   4.933   0.870   1.137  0.4018 -0.1281  0.5347
   12MOL    C74 7576   5.067   0.869   1.061  0.4472 -0.0552 -0.4289
   12MOL    C75 7577   5.187   0.872   1.163  0.0148 -0.4834 -0.3894
   12MOL    C76 7578   5.319   0.847   1.098 -0.1666 -0.2784  0.3720
   12MOL    C77 7579   5.430   0.904   1.190  0.0295  0.6022  0.2956
   12MOL    C78 7580   5.563   0.904   1.117  0.2111 -0.4723  0.1816
   12MOL    C79 7581   5.678   0.965   1.192  0.6818  0.0410  1.3470
   12MOL    C80 7582   5.815   0.949   1.115 -0.0548  0.1705 -0.7833
   12MOL    C81 7583   5.823   1.048   1.001  0.4993 -0.4139 -0.0357
   12MOL    O82 7584   5.808   1.170   1.029  0.1360  0.6037 -0.4269
   12MOL    H83 7585   4.629   0.746   0.876 -0.4889  1.0219 -1.2587
   12MOL    H84 7586   4.836   0.692   0.963  1.3695 -0.5391 -0.0278
   12MOL    H85 7587   4.913   0.797   0.856 -1.2042 -2.7111 -1.0589
   12MOL    H86 7588   4.731   0.884   1.097  0.8229  0.6364  1.4772
   12MOL    H87 7589   4.827   0.989   0.996  1.2769 -0.6367  0.4408
   12MOL    H88 7590   4.917   0.954   1.203  0.8065  2.2066 -2.2315
   12MOL    H89 7591   4.919   0.777   1.193 -0.7682  1.2631  2.5826
   12MOL    H90 7592   5.079   0.946   0.985 -0.4327 -0.5920 -1.1272
   12MOL    H91 7593   5.057   0.774   1.009  1.6553 -1.0479  1.1146
   12MOL    H92 7594   5.164   0.813   1.251 -1.2626 -1.0466 -1.0971
   12MOL    H93 7595   5.175   0.974   1.201  2.2633 -0.3896  0.1629
   12MOL    H94 7596   5.333   0.741   1.079  0.2589 -0.2049  0.2699
   12MOL    H95 7597   5.315   0.902   1.004 -0.8482 -1.9250 -0.5900
   12MOL    H96 7598   5.449   0.846   1.281  0.7414  0.3933  0.0126
   12MOL    H97 7599   5.406   1.007   1.215  0.2125  0.7883 -0.3148
   12MOL    H98 7600   5.581   0.798   1.098  0.1754 -0.6053  0.8565
   12MOL    H99 7601   5.571   0.953   1.021 -2.0355 -1.8329 -0.7382
   12MOL   H100 7602   5.685   0.911   1.286 -0.5637 -2.0256  0.2886
   12MOL   H101 7603   5.660   1.070   1.216 -0.8251 -0.1937  1.2818
   12MOL   H102 7604   5.833   0.849   1.078 -0.2397 -0.9248  1.9594
   12MOL   H103 7605   5.904   0.956   1.178 -0.1162  1.5146 -0.8157
   12MOL   N104 7606   5.865   1.015   0.879 -0.4241  0.4765  0.5392
   12MOL   C105 7607   5.872   1.106   0.770  0.2826 -0.2729  0.5900
   12MOL   C106 7608   5.927   1.051   0.642  0.1252  0.4995 -0.0245
   12MOL   C107 7609   5.954   1.155   0.538  0.2598 -0.5152  0.7447
   12MOL   C108 7610   6.031   1.110   0.408 -0.0639  0.0137  0.6366
   12MOL   C109 7611   6.180   1.078   0.418 -0.0135  0.0449 -0.0717
   12MOL   C110 7612   6.261   1.200   0.403  0.1550  0.1625 -0.5047
   12MOL   C111 7613   6.410   1.163   0.405 -0.3164  0.2049 -0.2464
   12MOL   C112 7614   6.504   1.284   0.385 -0.2945  0.2963 -0.5720
   12MOL   C113 7615   6.652   1.241   0.346 -0.6256  0.1654 -0.0268
   12MOL   C114 7616   6.755   1.357   0.332  0.3659 -0.3686 -0.4637
   12MOL   C115 7617   6.719   1.461   0.218 -0.1087 -0.8669 -0.4256
   12MOL   O116 7618   6.654   1.429   0.117  0.4271 -0.5002  0.4665
   12MOL   H117 7619   5.894   0.919   0.869 -2.5911 -0.0515 -1.1510
   12MOL   H118 7620   5.775   1.147   0.741 -0.4203 -1.4747  1.1935
   12MOL   H119 7621   5.919   1.197   0.809 -0.3019 -0.3117  1.4050
   12MOL   H120 7622   5.870   0.961   0.623  1.1958 -0.7399  2.3950
   12MOL   H121 7623   6.025   1.006   0.662  0.0646  0.9768  1.4351
   12MOL   H122 7624   5.863   1.205   0.506 -0.5556 -1.9859  0.7114
   12MOL   H123 7625   6.003   1.240   0.586 -0.7529  0.7612 -0.4374
   12MOL   H124 7626   6.015   1.184   0.329  2.2921  0.9753  1.0048
   12MOL   H125 7627   5.971   1.025   0.375  1.0341 -0.4716 -0.1503
   12MOL   H126 7628   6.205   1.015   0.333  0.5838 -1.5678  1.2680
   12MOL   H127 7629   6.204   1.020   0.507 -1.7708 -1.5086 -0.5896
   12MOL   H128 7630   6.233   1.253   0.312 -0.3733  1.2776  0.2961
   12MOL   H129 7631   6.243   1.270   0.485  0.3569 -1.2185  0.7481
   12MOL   H130 7632   6.425   1.083   0.333 -0.4450 -2.0852  2.2106
   12MOL   H131 7633   6.436   1.120   0.502  0.7879 -0.4355 -0.8188
   12MOL   H132 7634   6.474   1.345   0.299  0.1096  1.7150  0.2754
   12MOL   H133 7635   6.506   1.348   0.473  1.5728 -2.1305  1.2156
   12MOL   H134 7636   6.639   1.183   0.255 -1.7073  1.1444 -0.5121
   12MOL   H135 7637   6.699   1.178   0.421 -1.6676  0.3559  0.8011
   12MOL   H136 7638   6.860   1.330   0.340 -0.0307 -1.0563  3.0954
   12MOL   H137 7639   6.740   1.421   0.419  1.9668  0.4350 -0.7610
   12MOL   N138 7640   6.767   1.585   0.243 -0.0054  0.2132 -0.4823
   12MOL   C139 7641   6.780   1.705   0.156 -0.5468 -0.3922 -0.1427
   12MOL   C140 7642   6.927   1.734   0.116  0.7841  0.1792  0.2737
   12MOL   C141 7643   6.948   1.867   0.044  0.7085 -0.3796  0.1746
   12MOL   C142 7644   7.095   1.910   0.043  0.7451  0.1581 -0.9709
   12MOL   C143 7645   7.116   2.043   7.683  0.9608 -0.1058  0.5734
   12MOL   C144 7646   7.057   2.047   7.543 -0.0377  0.2051 -0.3461
   12MOL   C145 7647   7.093   1.926   7.456  0.1451  0.4896 -0.1087
   12MOL   C146 7648   7.063   1.956   7.310  0.6410  0.2554 -0.2709
   12MOL   C147 7649   7.101   1.842   7.212  0.4625 -0.5709  0.8032
   12MOL   C148 7650   7.034   1.703   7.241 -0.3246 -0.5113  0.5127
   12MOL   C149 7651   6.880   1.691   7.257  0.8392 -0.2749  0.1258
   12MOL   O150 7652   6.802   1.758   7.192  0.2898 -0.4591  0.2625
   12MOL   H151 7653   6.816   1.597   0.331  0.1034  0.4930 -0.5821
   12MOL   H152 7654   6.711   1.687   0.073 -1.4241  0.8853  0.3024
   12MOL   H153 7655   6.749   1.792   0.214  3.3004 -0.8259  2.7221
   12MOL   H154 7656   6.964   1.649   0.060  0.3111 -1.5342  2.4973
   12MOL   H155 7657   6.986   1.746   0.207  1.1097  3.3090 -0.2672
   12MOL   H156 7658   6.910   1.854   7.658  1.2094 -2.1090  0.1933
   12MOL   H157 7659   6.891   1.947   0.090  0.2097  0.1432 -1.3101
   12MOL   H158 7660   7.147   1.825   7.715  0.5988 -1.0818  1.1866
   12MOL   H159 7661   7.135   1.920   0.144 -3.3944  2.0065  0.6235
   12MOL   H160 7662   7.222   2.063   7.694  1.3248 -1.3104 -0.5584
   12MOL   H161 7663   7.064   2.126   0.016  0.5543  0.6488 -1.0787
   12MOL   H162 7664   6.949   2.054   7.535  0.0490 -0.1576 -2.0304
   12MOL   H163 7665   7.089   2.145   7.509 -1.5700  1.2036  0.9828
   12MOL   H164 7666   7.049   1.835   7.498  1.4632  0.0883  0.4337
   12MOL   H165 7667   7.200   1.909   7.470 -0.0057 -1.0713 -0.7081
   12MOL   H166 7668   6.956   1.976   7.301 -0.0654 -2.0755  2.0920
   12MOL   H167 7669   7.114   2.048   7.282  1.2733  0.2678  0.9122
   12MOL   H168 7670   7.210   1.833   7.203  0.6567  2.2611 -0.2393
   12MOL   H169 7671   7.063   1.862   7.112 -0.1819  0.6461  1.2774
   12MOL   H170 7672   7.080   1.663   7.332  1.5664  1.7212  0.5850
   12MOL   H171 7673   7.069   1.633   7.165  0.2267 -0.4700  0.7289
   12MOL   N172 7674   6.838   1.598   7.339  0.8161 -0.2631 -0.0746
   12MOL   C173 7675   6.702   1.546   7.351 -0.3137 -0.1691  0.9717
   12MOL   C174 7676   6.624   1.612   7.463  0.8147 -0.0903 -0.0397
   12MOL   C175 7677   6.490   1.545   7.483  0.1364 -0.5576 -0.6871
   12MOL   C176 7678   6.399   1.619   7.588  0.2708 -0.3819  1.1706
   12MOL   C177 7679   6.248   1.572   7.577  0.0734  0.4685  0.0818
   12MOL   C178 7680   6.224   1.420   7.606  0.0174  0.5150 -0.2568
   12MOL   C179 7681   6.075   1.398   7.638 -0.9242  0.4003 -0.0882
   12MOL   C180 7682   5.989   1.417   7.513 -0.2194  0.3369  0.5261
   12MOL   C181 7683   5.834   1.390   7.532  0.6803 -0.1271 -0.7717
   12MOL   C182 7684   5.764   1.395   7.391 -0.6276  0.7043  0.0073
   12MOL   C183 7685   5.615   1.391   7.405  0.7985  0.4166 -0.3691
   12MOL   O184 7686   5.552   1.288   7.391  0.1355 -0.4337 -0.0947
   12MOL   H185 7687   6.914   1.557   7.391  3.1745 -0.2771 -3.3431
   12MOL   H186 7688   6.640   1.561   7.263 -1.8963 -1.6053  1.8064
   12MOL   H187 7689   6.705   1.438   7.368  1.3322 -0.6793 -2.1900
   12MOL   H188 7690   6.610   1.719   7.448  0.3548  0.2956  2.8032
   12MOL   H189 7691   6.678   1.604   7.558  0.1303 -0.3809  0.3289
   12MOL   H190 7692   6.428   1.524   7.396  0.3578 -2.3840 -0.4174
   12MOL   H191 7693   6.505   1.442   7.516 -1.8974 -0.5601  0.2545
   12MOL   H192 7694   6.407   1.727   7.579  0.2559 -0.3646  1.3757
   12MOL   H193 7695   6.432   1.601   7.691 -0.4688 -0.8089  1.3347
   12MOL   H194 7696   6.202   1.593   7.480  0.6957 -2.2091 -0.8109
   12MOL   H195 7697   6.181   1.634   7.638 -1.8439 -0.2670 -1.2145
   12MOL   H196 7698   6.252   1.367   7.515 -0.5768  1.7831 -1.1860
   12MOL   H197 7699   6.285   1.391   7.693  0.8147  0.0689 -0.9556
   12MOL   H198 7700   6.044   1.469   7.715 -1.4147  0.8810 -0.7199
   12MOL   H199 7701   6.053   1.298   7.674 -0.5435 -0.0147 -1.0167
   12MOL   H200 7702   5.997   1.522   7.483 -1.1415  0.6369  1.3018
   12MOL   H201 7703   6.020   1.362   7.425  0.8532  0.8492  0.5754
   12MOL   H202 7704   5.792   1.465   7.600  0.1168  0.7546 -2.0622
   12MOL   H203 7705   5.817   1.299   7.588 -0.5792  1.1339  0.9642
   12MOL   H204 7706   5.798   1.319   7.320  0.9478  0.1194  1.3593
   12MOL   H205 7707   5.794   1.493   7.354 -1.3633 -0.2704 -3.3328
   12MOL   N206 7708   5.562   1.509   7.448 -0.5665 -0.4382 -0.7464
   12MOL   C207 7709   5.424   1.527   7.493  0.3695 -0.1082 -0.4619
   12MOL   C208 7710   5.356   1.655   7.443  0.8800 -0.2705  0.0990
   12MOL   C209 7711   5.332   1.651   7.296 -0.2832  0.3802  0.0906
   12MOL   C210 7712   5.255   1.761   7.233 -0.2848 -0.5605  0.1528
   12MOL   C211 7713   5.237   1.752   7.080  0.7871  0.3545 -0.0084
   12MOL   C212 7714   5.136   1.647   7.045 -0.4830 -0.0687  0.4968
   12MOL   C213 7715   5.097   1.639   6.893 -0.5884  0.0097  0.1122
   12MOL   C214 7716   5.031   1.771   6.839  0.6450 -0.0671  0.5706
   12MOL   C215 7717   4.971   1.761   6.704  0.0048  0.4462 -0.5066
   12MOL   C216 7718   4.924   1.899   6.655 -1.0571  0.5807 -0.5868
   12MOL   C217 7719   5.034   1.988   6.606 -0.5235  0.9100  0.1598
   12MOL   O218 7720   5.083   2.086   6.668 -0.0587  0.3734  0.4576
   12MOL   H219 7721   5.621   1.587   7.472 -0.4109 -0.5205 -0.8615
   12MOL   H220 7722   5.421   1.523   7.602 -1.2692 -0.8621 -0.5197
   12MOL   H221 7723   5.367   1.437   7.469  1.5666 -0.5108 -1.8583
   12MOL   H222 7724   5.403   1.748   7.473 -0.9143  0.2385  1.4202
   12MOL   H223 7725   5.262   1.651   7.499  0.0008 -0.5434 -1.3895
   12MOL   H224 7726   5.432   1.645   7.254 -0.3040  0.8384 -0.0252
   12MOL   H225 7727   5.284   1.553   7.288  1.2333 -0.4345  0.7233
   12MOL   H226 7728   5.307   1.854   7.257 -1.1323  0.2441 -1.0449
   12MOL   H227 7729   5.160   1.769   7.285  0.2336 -0.6772  1.1188
   12MOL   H228 7730   5.333   1.738   7.030  1.0558  0.2446  0.5325
   12MOL   H229 7731   5.199   1.849   7.049 -0.6664 -0.9668 -2.4467
   12MOL   H230 7732   5.178   1.552   7.077  0.4148 -0.4850 -1.8702
   12MOL   H231 7733   5.050   1.659   7.112  0.1727  0.2280  1.2860
   12MOL   H232 7734   5.032   1.553   6.875 -0.0629  0.1084 -2.5411
   12MOL   H233 7735   5.176   1.618   6.821 -0.5947 -1.4348  0.5232
   12MOL   H234 7736   4.943   1.793   6.899 -1.0914 -3.6687 -0.4965
   12MOL   H235 7737   5.095   1.858   6.849  0.4329  0.0906  0.5652
   12MOL   H236 7738   4.894   1.685   6.693  1.5548 -1.4290  1.0786
   12MOL   H237 7739   5.041   1.711   6.637 -3.2428 -1.5470 -2.5239
   12MOL   H238 7740   4.851   1.950   6.717 -0.2547  1.0663 -0.0360
   12MOL   H239 7741   4.859   1.882   6.569 -0.6931 -0.5629 -0.6382
   12MOL   N240 7742   5.071   1.962   6.479 -0.3067  0.8073 -0.1785
   12MOL   C241 7743   5.159   2.053   6.409 -0.4548 -0.6007  0.5280
   12MOL   C242 7744   5.242   1.974   6.312 -0.0528  1.1475  0.3856
   12MOL   C243 7745   5.302   2.052   6.195 -0.3031  0.8547 -0.3981
   12MOL   C244 7746   5.405   1.975   6.110 -0.3509 -0.0539  0.0837
   12MOL   C245 7747   5.437   2.037   5.976  0.3893 -0.0753 -0.2837
   12MOL   C246 7748   5.558   1.967   5.907 -0.0542  1.4280  0.0999
   12MOL   C247 7749   5.585   2.031   5.768 -0.3755  0.1398 -1.0689
   12MOL   C248 7750   5.599   2.189   5.760  0.0441 -0.5205 -0.1030
   12MOL   C249 7751   5.469   2.265   5.710 -0.4190  1.1754  0.2275
   12MOL   C250 7752   5.482   2.420   5.719 -0.2247  0.7883 -0.7512
   12MOL   C251 7753   5.564   2.480   5.610  0.8845 -0.3208  0.3799
   12MOL   O252 7754   5.550   2.446   5.491 -0.6489 -0.6209 -0.0144
   12MOL   H253 7755   5.018   1.895   6.424 -0.8488  1.2733 -0.2353
   12MOL   H254 7756   5.223   2.115   6.471 -0.6497 -0.0043  0.1446
   12MOL   H255 7757   5.089   2.116   6.353 -1.8630 -0.4991  2.3618
   12MOL   H256 7758   5.181   1.904   6.254 -1.1973  1.4306  1.2173
   12MOL   H257 7759   5.323   1.918   6.358 -0.6688 -0.7101 -0.7101
   12MOL   H258 7760   5.224   2.088   6.128 -3.0592 -2.5190  0.7981
   12MOL   H259 7761   5.354   2.141   6.228 -1.3195  1.5320 -0.6004
   12MOL   H260 7762   5.371   1.876   6.081  0.3028  0.2595 -1.8280
   12MOL   H261 7763   5.491   1.963   6.175  0.1724 -1.2844 -0.8198
   12MOL   H262 7764   5.460   2.141   5.997 -0.5052 -0.5184  3.2956
   12MOL   H263 7765   5.355   2.036   5.905 -0.4173  0.4744  0.6270
   12MOL   H264 7766   5.653   1.973   5.960 -0.5257  1.7475  0.9165
   12MOL   H265 7767   5.539   1.860   5.897 -0.6772  1.4819  0.6609
   12MOL   H266 7768   5.515   1.997   5.692 -2.0307  0.0924  0.4408
   12MOL   H267 7769   5.684   1.991   5.744 -0.5235 -2.9134  2.8311
   12MOL   H268 7770   5.617   2.214   5.865 -0.1300 -1.1111  0.0700
   12MOL   H269 7771   5.694   2.213   5.713 -0.4505  0.0511 -0.8146
   12MOL   H270 7772   5.383   2.237   5.771  1.0768 -0.4644  1.6390
   12MOL   H271 7773   5.438   2.237   5.609 -1.6181  0.7117  0.7120
   12MOL   H272 7774   5.511   2.450   5.820  0.2451 -0.9021 -0.3608
   12MOL   H273 7775   5.380   2.457   5.710  0.0859  1.3796 -1.8432
   12MOL   N274 7776   5.653   2.570   5.639 -0.2501 -0.1595  0.0450
   12MOL   C275 7777   5.753   2.621   5.548 -0.3385 -0.6910  0.6804
   12MOL   C276 7778   5.882   2.539   5.540  0.3447  0.3768  0.6592
   12MOL   C277 7779   5.986   2.616   5.455 -0.4701  0.2387 -0.2655
   12MOL   C278 7780   5.966   2.597   5.303 -0.4333  0.1758  0.1465
   12MOL   C279 7781   5.998   2.719   5.217  0.0489 -0.2086  0.5994
   12MOL   C280 7782   5.906   2.837   5.251 -0.0386  0.0278  0.1924
   12MOL   C281 7783   5.963   2.952   5.163 -0.3162  0.2455  0.5294
   12MOL   C282 7784   5.860   3.069   5.136  0.3044  0.6522 -0.2065
   12MOL   C283 7785   5.837   3.147   5.264  0.0162 -0.5034  0.8394
   12MOL   C284 7786   5.714   3.242   5.258 -0.0587 -0.2165 -0.4696
   12MOL   C285 7787   5.583   3.169   5.239  0.0095  0.0101 -0.5717
   12MOL   O286 7788   5.551   3.065   5.305 -0.1052 -0.3789  0.3149
   12MOL   H287 7789   5.667   2.596   5.735  0.2082  0.6066 -0.2295
   12MOL   H288 7790   5.772   2.718   5.594  1.9568 -0.3496 -0.9426
   12MOL   H289 7791   5.710   2.643   5.451 -0.1673  0.3859  0.8450
   12MOL   H290 7792   5.857   2.438   5.508 -1.2227  1.3462 -1.3124
   12MOL   H291 7793   5.931   2.519   5.636  1.2836 -1.6568 -0.2285
   12MOL   H292 7794   5.985   2.722   5.484 -0.9541  0.1897 -0.1109
   12MOL   H293 7795   6.086   2.580   5.480 -0.7828  0.9799  2.1802
   12MOL   H294 7796   5.867   2.557   5.281  0.7435 -2.6094 -0.3694
   12MOL   H295 7797   6.030   2.516   5.267 -0.3596 -0.2931  1.3103
   12MOL   H296 7798   5.988   2.695   5.111 -1.2275 -0.6459  0.8137
   12MOL   H297 7799   6.101   2.745   5.242 -0.3498  0.1647  1.8624
   12MOL   H298 7800   5.804   2.808   5.227 -0.4076  0.0893  1.6505
   12MOL   H299 7801   5.909   2.864   5.356 -0.3173 -0.7582  0.4075
   12MOL   H300 7802   5.991   2.911   5.066  2.4672 -0.8042  1.7305
   12MOL   H301 7803   6.059   2.995   5.191  0.2825 -0.6859 -0.0586
   12MOL   H302 7804   5.893   3.131   5.052  0.4292 -0.3589 -0.9056
   12MOL   H303 7805   5.771   3.022   5.094 -0.4731 -0.0271  2.1310
   12MOL   H304 7806   5.924   3.212   5.273  0.4469 -0.9172 -0.2497
   12MOL   H305 7807   5.833   3.093   5.358  0.4928 -2.1544 -0.0706
   12MOL   H306 7808   5.731   3.314   5.178  2.2503  0.1385  0.3001
   12MOL   H307 7809   5.703   3.302   5.348  1.4185 -1.2507  0.4236
   12MOL   N308 7810   5.497   3.219   5.151 -0.1078  0.3533  0.1799
   12MOL   C309 7811   5.366   3.156   5.128  0.4758 -0.7335  0.0228
   12MOL   C310 7812   5.382   3.023   5.047  0.1867 -0.8555 -0.2767
   12MOL   C311 7813   5.438   3.041   4.903  0.1618  0.8803  0.1533
   12MOL   C312 7814   5.469   2.908   4.831  0.2603 -0.4946 -0.3963
   12MOL   C313 7815   5.609   2.859   4.857  0.4549 -0.2532  0.0366
   12MOL   C314 7816   5.621   2.713   4.800 -0.1968 -0.2469 -0.2336
   12MOL   C315 7817   5.754   2.651   4.844  0.6349  0.0450 -0.2833
   12MOL   C316 7818   5.779   2.507   4.790 -0.5296 -0.3253 -0.7455
   12MOL   C317 7819   5.898   2.442   4.863 -0.2249  0.1234 -0.3051
   12MOL   C318 7820   6.036   2.492   4.812  1.0151 -0.0992 -0.4000
   12MOL   C319 7821   6.144   2.391   4.838 -0.4932 -0.5831  0.3624
   12MOL   O320 7822   6.177   2.300   4.755  0.5076 -0.6044 -0.5024
   12MOL   H321 7823   5.526   3.293   5.088  0.4781  0.1095  0.1584
   12MOL   H322 7824   5.317   3.221   5.056  0.1806  1.3608  2.0659
   12MOL   H323 7825   5.300   3.170   5.213 -0.1375  1.7454 -0.8074
   12MOL   H324 7826   5.286   2.974   5.032 -0.2253 -0.3765  0.7823
   12MOL   H325 7827   5.446   2.960   5.108  0.6109 -1.1287 -0.9996
   12MOL   H326 7828   5.365   3.098   4.845  0.0171 -0.0713 -0.6134
   12MOL   H327 7829   5.528   3.102   4.899  1.2624 -0.6239  1.6562
   12MOL   H328 7830   5.449   2.915   4.724  0.0189 -1.9902 -0.4617
   12MOL   H329 7831   5.399   2.832   4.866  1.2165 -1.3385 -0.3007
   12MOL   H330 7832   5.629   2.864   4.964  2.9987 -1.3957 -0.3485
   12MOL   H331 7833   5.678   2.928   4.809  1.0132 -0.4496  0.5494
   12MOL   H332 7834   5.532   2.653   4.819 -0.2524  0.0378  0.4182
   12MOL   H333 7835   5.622   2.724   4.691 -0.6632  1.9158 -0.0464
   12MOL   H334 7836   5.756   2.647   4.953  0.3583  0.7893 -0.2506
   12MOL   H335 7837   5.843   2.713   4.835  0.9386 -0.4897 -1.0063
   12MOL   H336 7838   5.697   2.435   4.791 -0.4045 -0.4796  2.2002
   12MOL   H337 7839   5.804   2.516   4.685  0.1004 -0.6280 -0.6209
   12MOL   H338 7840   5.895   2.334   4.851 -1.0136 -0.0045  0.8981
   12MOL   H339 7841   5.888   2.444   4.972 -2.3153 -3.2239 -0.3673
   12MOL   H340 7842   6.068   2.588   4.853  1.8085 -0.8785  0.8312
   12MOL   H341 7843   6.033   2.499   4.703 -1.7728 -1.0513 -0.4336
   12MOL   N342 7844   6.200   2.398   4.963  0.0649  0.0719 -0.4363
   12MOL   C343 7845   6.286   2.292   5.016  0.5093  0.6042 -0.0118
   12MOL   C344 7846   6.207   2.202   5.105  0.8840  0.1951 -0.0027
   12MOL   C345 7847   6.088   2.124   5.039  0.1853 -0.0180 -0.0119
   12MOL   C346 7848   6.052   2.006   5.133  0.5006  0.5054 -0.1130
   12MOL   C347 7849   5.919   1.932   5.101  0.1006 -0.5308  0.4580
   12MOL   C348 7850   5.881   1.819   5.201  0.1593 -0.2106  0.4182
   12MOL   C349 7851   5.888   1.851   5.350  0.3024  0.0986 -0.4045
   12MOL   C350 7852   5.880   1.728   5.446 -0.0427  0.0464  0.7217
   12MOL   C351 7853   5.869   1.774   5.591 -0.5029  0.6242  0.3976
   12MOL   C352 7854   5.853   1.665   5.700 -0.7597 -0.1391  0.1058
   12MOL   C353 7855   5.828   1.711   5.846 -0.2887 -0.2801 -0.1130
   12MOL   O354 7856   5.856   1.830   5.886  0.4477 -0.3782  0.0054
   12MOL   H355 7857   6.195   2.481   5.021  0.2792  0.2286 -0.6398
   12MOL   H356 7858   6.334   2.236   4.936  1.1631 -1.7008  1.9234
   12MOL   H357 7859   6.366   2.335   5.077 -0.9160  1.0775  1.5714
   12MOL   H358 7860   6.161   2.255   5.188  1.6657  1.4631 -0.3811
   12MOL   H359 7861   6.279   2.144   5.163 -1.0728 -0.3946  1.9507
   12MOL   H360 7862   5.998   2.183   5.025 -0.2103 -0.5883  0.1154
   12MOL   H361 7863   6.119   2.083   4.943 -2.3465 -1.9366 -0.0570
   12MOL   H362 7864   6.044   2.039   5.236  1.6169 -0.9822  0.4638
   12MOL   H363 7865   6.132   1.932   5.128  2.2565  2.3552  0.3656
   12MOL   H364 7866   5.920   1.895   4.999 -1.5643  0.5405  0.0197
   12MOL   H365 7867   5.838   2.005   5.097 -0.4077 -1.0568  0.9454
   12MOL   H366 7868   5.779   1.791   5.174  0.4738 -0.9264 -0.0439
   12MOL   H367 7869   5.938   1.728   5.181 -0.6079 -0.3903 -1.0132
   12MOL   H368 7870   5.813   1.925   5.378 -1.5671 -1.8961  0.0524
   12MOL   H369 7871   5.982   1.896   5.381  1.3938 -3.2317  1.4268
   12MOL   H370 7872   5.799   1.664   5.414  0.7962  0.0361 -1.4754
   12MOL   H371 7873   5.977   1.678   5.436 -0.0592  0.1838 -0.1310
   12MOL   H372 7874   5.787   1.845   5.588 -1.0086  0.1307  1.8132
   12MOL   H373 7875   5.960   1.824   5.621  0.5182 -0.9628 -0.0071
   12MOL   H374 7876   5.943   1.603   5.707 -2.6514 -3.0165 -0.3586
   12MOL   H375 7877   5.780   1.589   5.672  0.1934 -1.1457  0.3119
   12MOL   N376 7878   5.763   1.618   5.914 -0.2237 -0.1157 -0.1909
   12MOL   C377 7879   5.706   1.637   6.050  0.1240 -0.3013 -0.1082
   12MOL   C378 7880   5.622   1.521   6.093  0.5894 -0.1012 -0.0946
   12MOL   C379 7881   5.565   1.530   6.236 -0.3089 -0.1376 -0.5229
   12MOL   C380 7882   5.443   1.445   6.255 -0.2629 -0.3213  0.0527
   12MOL   C381 7883   5.378   1.459   6.392 -0.1428  0.3807 -0.5187
   12MOL   C382 7884   5.463   1.405   6.517 -0.2760  0.0408  0.0125
   12MOL   C383 7885   5.386   1.432   6.652 -0.1069 -0.4834  0.8777
   12MOL   C384 7886   5.440   1.353   6.770 -0.5252 -0.6173  0.3714
   12MOL   C385 7887   5.366   1.368   6.906 -0.0264 -0.6182 -0.4269
   12MOL   C386 7888   5.405   1.271   7.016 -0.0818  0.3098  0.0672
   12MOL   C387 7889   5.332   1.131   7.024 -0.2801 -0.2457  0.2839
   12MOL   O388 7890   5.294   1.077   6.924  0.1250 -0.0424  0.1203
   12MOL   H389 7891   5.768   1.523   5.880 -3.2574 -0.3184 -0.1895
   12MOL   H390 7892   5.783   1.661   6.124  0.6550 -0.0332 -0.7408
   12MOL   H391 7893   5.641   1.725   6.047  0.7058  0.1078 -1.1066
   12MOL   H392 7894   5.670   1.425   6.072  0.2372 -0.0556 -1.1844
   12MOL   H393 7895   5.536   1.511   6.026 -0.0074  2.0438  0.3312
   12MOL   H394 7896   5.642   1.510   6.310  0.1477  0.7716 -0.7400
   12MOL   H395 7897   5.532   1.632   6.256 -1.7213 -0.4786 -1.0482
   12MOL   H396 7898   5.456   1.340   6.228  0.4346 -0.3864  0.6166
   12MOL   H397 7899   5.376   1.476   6.175 -0.7846 -0.6486  0.3648
   12MOL   H398 7900   5.286   1.400   6.394 -0.7965  1.2993 -2.4359
   12MOL   H399 7901   5.347   1.561   6.415  2.4746  0.9224  0.8689
   12MOL   H400 7902   5.477   1.297   6.510 -0.2980 -0.4045  5.4175
   12MOL   H401 7903   5.562   1.452   6.514 -0.2882  0.0318 -0.7570
   12MOL   H402 7904   5.279   1.418   6.640  0.0169 -0.4228 -0.2824
   12MOL   H403 7905   5.404   1.538   6.670  1.8815 -0.3577 -1.6483
   12MOL   H404 7906   5.439   1.253   6.727  1.3915 -0.7574  0.6290
   12MOL   H405 7907   5.542   1.388   6.781 -0.6535 -0.2980  0.5863
   12MOL   H406 7908   5.261   1.368   6.878  0.0511  2.9010 -0.9351
   12MOL   H407 7909   5.373   1.472   6.938 -1.5304 -1.1925  1.8729
   12MOL   H408 7910   5.394   1.321   7.112 -0.0600  2.8081 -1.2034
   12MOL   H409 7911   5.508   1.240   6.999  0.3807  1.0692  1.4260
   12MOL   N410 7912   5.305   1.083   7.149  0.6529 -0.7572  0.6311
   12MOL   C411 7913   5.226   0.968   7.184 -0.7894  0.2079 -0.0834
   12MOL   C412 7914   5.159   0.989   7.327 -0.2809  0.2742 -0.3939
   12MOL   C413 7915   5.067   1.109   7.350 -0.3855  0.8789 -0.2790
   12MOL   C414 7916   4.944   1.107   7.262 -0.8241 -0.7031  0.2265
   12MOL   C415 7917   4.861   1.237   7.268  0.4124 -0.3658 -0.0054
   12MOL   C416 7918   4.758   1.263   7.157 -0.4127  0.2337 -0.0801
   12MOL   C417 7919   4.813   1.335   7.041  0.1691 -0.7223  0.6080
   12MOL   C418 7920   4.734   1.328   6.906 -0.0057 -0.9423  0.0766
   12MOL   C419 7921   4.794   1.412   6.791  0.0020 -0.2426 -0.7511
   12MOL   C420 7922   4.723   1.407   6.654  0.2410 -0.0394 -0.1037
   12MOL   C421 7923   4.605   1.507   6.660 -0.0682  0.2784  0.6665
   12MOL   O422 7924   4.495   1.469   6.700  0.2970  0.4364  0.9933
   12MOL   H423 7925   5.343   1.128   7.231 -3.1610 -0.5782  2.4296
   12MOL   H424 7926   5.153   0.946   7.106 -0.1054  1.5565 -1.1219
   12MOL   H425 7927   5.291   0.881   7.191 -0.3775  0.4874 -0.4357
   12MOL   H426 7928   5.233   0.987   7.407 -2.3218 -2.1358  1.5008
   12MOL   H427 7929   5.097   0.904   7.356 -3.2641  1.8218 -2.0196
   12MOL   H428 7930   5.031   1.098   7.452  0.6719  1.0160  0.1177
   12MOL   H429 7931   5.122   1.203   7.350 -2.9597  2.4611  1.9579
   12MOL   H430 7932   4.886   1.020   7.295 -2.2663  0.3526  0.5353
   12MOL   H431 7933   4.959   1.093   7.155 -0.6584  0.5472  0.0820
   12MOL   H432 7934   4.928   1.321   7.289 -1.3883  1.2045 -0.4253
   12MOL   H433 7935   4.811   1.226   7.365  1.2441  0.0570  0.4780
   12MOL   H434 7936   4.710   1.170   7.126  1.9649 -1.1839  0.3322
   12MOL   H435 7937   4.670   1.314   7.196 -1.0363 -1.3176  0.5852
   12MOL   H436 7938   4.913   1.297   7.022  0.0234 -0.6248 -0.3881
   12MOL   H437 7939   4.823   1.439   7.073  1.5962 -1.1269  1.5016
   12MOL   H438 7940   4.720   1.227   6.867 -1.0233  0.0547 -2.2510
   12MOL   H439 7941   4.634   1.366   6.925  0.1674 -0.6281  0.3572
   12MOL   H440 7942   4.895   1.373   6.779  0.4405  0.5685  0.2205
   12MOL   H441 7943   4.796   1.511   6.837  0.9350 -1.0892  1.0561
   12MOL   H442 7944   4.689   1.304   6.644  1.0745 -0.4584  1.2846
   12MOL   H443 7945   4.800   1.428   6.579  1.9519 -2.3732  0.9329
   12MOL   N444 7946   4.630   1.635   6.630  0.0695  0.7252 -0.1917
   12MOL   C445 7947   4.536   1.751   6.633 -0.0051 -0.4901  0.1093
   12MOL   C446 7948   4.443   1.770   6.756 -0.0852  0.1448  0.1073
   12MOL   C447 7949   4.360   1.906   6.739 -0.3587 -0.3521  0.3334
   12MOL   C448 7950   4.293   1.948   6.868  1.0778 -0.4641 -0.5797
   12MOL   C449 7951   4.166   1.866   6.899  0.5277 -0.2795 -0.1467
   12MOL   C450 7952   4.076   1.918   7.011 -0.0589 -0.1351  0.4379
   12MOL   C451 7953   3.941   1.844   7.020 -0.7852 -0.1133  0.7082
   12MOL   C452 7954   3.853   1.911   7.131  0.0050  0.5076  0.3854
   12MOL   C453 7955   3.722   1.836   7.168 -0.3062  0.3006 -0.0672
   12MOL   C454 7956   3.746   1.702   7.243 -0.1193  0.3793  0.8155
   12MOL   C455 7957   3.649   1.586   7.222 -1.2343  0.2505  0.0490
   12MOL   O456 7958   3.569   1.562   7.310 -0.0105 -0.1612  0.0398
   12MOL   H457 7959   4.719   1.675   6.605  0.0025  1.6352  0.9501
   12MOL   H458 7960   4.611   1.830   6.628 -2.7163  2.1231 -1.1677
   12MOL   H459 7961   4.488   1.746   6.535  1.1829 -0.8107 -0.4747
   12MOL   H460 7962   4.518   1.785   6.834  0.5929  2.3798 -0.9445
   12MOL   H461 7963   4.382   1.682   6.778 -0.1745 -0.1499 -1.2992
   12MOL   H462 7964   4.423   1.986   6.700  0.3557 -1.2999 -0.4961
   12MOL   H463 7965   4.284   1.887   6.664  0.7024 -1.7062 -0.4248
   12MOL   H464 7966   4.271   2.055   6.866  2.4600 -0.1359  0.6678
   12MOL   H465 7967   4.364   1.944   6.951 -0.2085 -2.4697  0.4376
   12MOL   H466 7968   4.196   1.764   6.923 -0.6403 -0.4224  0.7746
   12MOL   H467 7969   4.111   1.854   6.805 -0.5078  3.5364 -0.1233
   12MOL   H468 7970   4.127   1.928   7.106 -0.5861  1.2120  0.5912
   12MOL   H469 7971   4.040   2.016   6.978  1.9473 -0.0985 -1.7338
   12MOL   H470 7972   3.956   1.740   7.048  0.6051 -0.7630 -2.2987
   12MOL   H471 7973   3.884   1.848   6.927  1.1692  0.7001 -0.4779
   12MOL   H472 7974   3.912   1.918   7.222  0.3459  1.3030  0.1085
   12MOL   H473 7975   3.816   2.006   7.091 -3.3279 -0.9227 -0.1545
   12MOL   H474 7976   3.671   1.825   7.072  1.4636  0.7672 -1.0989
   12MOL   H475 7977   3.656   1.899   7.228 -0.7062 -0.1461 -0.0401
   12MOL   H476 7978   3.743   1.722   7.350 -0.6454 -1.2944  1.1307
   12MOL   H477 7979   3.848   1.665   7.234 -0.4131 -1.0802  3.0829
   12MOL   N478 7980   3.662   1.506   7.118 -0.0887  0.3724  0.4746
   12MOL   C479 7981   3.594   1.381   7.092 -0.5980 -0.0199  0.1351
   12MOL   C480 7982   3.495   1.392   6.975  0.9036 -0.5654 -0.0955
   12MOL   C481 7983   3.427   1.260   6.938 -0.6227 -0.2915 -0.2081
   12MOL   C482 7984   3.533   1.153   6.905 -0.2075 -0.3881 -0.0415
   12MOL   C483 7985   3.463   1.015   6.880  0.2306 -0.2045 -0.2255
   12MOL   C484 7986   3.415   0.943   7.010 -0.2367 -0.4560 -0.6088
   12MOL   C485 7987   3.316   0.841   6.978  0.2410 -0.2560 -0.2104
   12MOL   C486 7988   3.279   0.759   7.105 -0.1746 -0.0443  0.1794
   12MOL   C487 7989   3.179   0.641   7.097  0.0662  0.1985  0.4785
   12MOL   C488 7990   3.096   0.620   7.224  0.2619 -0.6440  0.5259
   12MOL   C489 7991   2.969   0.715   7.230  0.0426 -0.1587 -0.2962
   12MOL   O490 7992   2.980   0.834   7.188  0.1856 -0.4304  0.0707
   12MOL   H491 7993   3.736   1.515   7.050 -0.6173 -0.8613 -0.2753
   12MOL   H492 7994   3.682   1.322   7.067  0.9525  1.9610  0.8302
   12MOL   H493 7995   3.557   1.348   7.190 -1.6916  0.2438 -0.1785
   12MOL   H494 7996   3.529   1.425   6.877  0.0108  0.9186  0.0737
   12MOL   H495 7997   3.431   1.479   6.994  1.7191  0.3360 -1.4236
   12MOL   H496 7998   3.364   1.220   7.018  0.2769 -1.4298 -0.0623
   12MOL   H497 7999   3.362   1.281   6.853 -2.0962 -0.6431  0.8145
   12MOL   H498 8000   3.602   1.136   6.988  2.4905 -1.3039 -2.3557
   12MOL   H499 8001   3.587   1.196   6.820 -1.0999  1.6274  0.3868
   12MOL   H500 8002   3.527   0.960   6.811  0.9750  0.9523 -0.4767
   12MOL   H501 8003   3.375   1.041   6.820  0.9471 -1.0436 -1.6692
   12MOL   H502 8004   3.495   0.892   7.064 -0.8860 -1.3793 -0.4987
   12MOL   H503 8005   3.366   1.013   7.077 -1.3540 -1.4575 -0.3578
   12MOL   H504 8006   3.350   0.788   6.889 -0.8167  0.2508 -0.9292
   12MOL   H505 8007   3.223   0.892   6.953  0.9668  2.1857  1.9133
   12MOL   H506 8008   3.366   0.721   7.161 -0.4588  0.2698  0.8390
   12MOL   H507 8009   3.231   0.823   7.178 -0.5714  1.6332 -1.5438
   12MOL   H508 8010   3.231   0.550   7.067 -0.4709 -0.5392  1.7741
   12MOL   H509 8011   3.120   0.641   7.005  0.4145  0.0574  0.2505
   12MOL   H510 8012   3.161   0.640   7.308  0.3197 -0.2577  0.3901
   12MOL   H511 8013   3.074   0.513   7.218  0.6977 -0.6783 -0.7374
   12MOL   N512 8014   2.851   0.670   7.274 -0.5697  0.0638 -0.0018
   12MOL   C513 8015   2.736   0.753   7.307  0.3381 -0.3091 -0.0791
   12MOL   C514 8016   2.656   0.682   7.419  0.8476 -0.1339 -0.4969
   12MOL   C515 8017   2.522   0.753   7.443  0.2709  0.6993 -0.2010
   12MOL   C516 8018   2.445   0.716   7.574  0.5240  0.4763  0.4664
   12MOL   C517 8019   2.399   0.573   7.574  0.2416  0.4396  0.1171
   12MOL   C518 8020   2.308   0.531   7.688 -0.1489  0.2293  0.7380
   12MOL   C519 8021   2.258   0.386   7.666 -0.5307  0.2425  0.6166
   12MOL   C520 8022   2.362   0.276   7.685 -1.1572 -0.4041  0.0175
   12MOL   C521 8023   2.419   0.260   0.112 -0.1791  0.0828 -0.7245
   12MOL   C522 8024   2.530   0.348   0.170  0.7705  0.7196 -0.5317
   12MOL   C523 8025   2.652   0.375   0.093 -0.8211 -0.5918  0.1359
   12MOL   O524 8026   2.724   0.283   0.048  0.2695 -0.4080 -0.0427
   12MOL   H525 8027   2.858   0.574   7.306 -0.6312  0.6063  1.6828
   12MOL   H526 8028   2.763   0.853   7.340 -0.7580 -0.1363  0.3213
   12MOL   H527 8029   2.682   0.754   7.212 -3.0265  2.1526  1.7515
   12MOL   H528 8030   2.718   0.684   7.508  0.3564 -0.3478 -0.1493
   12MOL   H529 8031   2.639   0.577   7.396  2.6296 -0.3882 -0.6590
   12MOL   H530 8032   2.521   0.862   7.440 -2.1205  0.7684  1.6114
   12MOL   H531 8033   2.454   0.740   7.359  0.7022 -0.6879 -0.3323
   12MOL   H532 8034   2.358   0.779   7.591 -0.0256 -0.1160 -0.1399
   12MOL   H533 8035   2.511   0.726   7.661 -0.0640 -1.9471  1.2431
   12MOL   H534 8036   2.488   0.510   7.581 -1.4780 -1.8895  2.5520
   12MOL   H535 8037   2.350   0.560   7.478 -2.5636  0.4968  1.4723
   12MOL   H536 8038   2.360   0.558   0.064 -0.5364  3.1621  0.1687
   12MOL   H537 8039   2.219   0.595   7.684 -0.8964 -0.7738  1.1216
   12MOL   H538 8040   2.235   0.366   7.561  1.5685  0.8887  0.0119
   12MOL   H539 8041   2.168   0.367   0.009 -1.1445  3.5055  0.8309
   12MOL   H540 8042   2.329   0.184   7.636  0.2536 -0.6989 -0.4079
   12MOL   H541 8043   2.454   0.290   7.629 -1.3292 -1.3859 -0.5146
   12MOL   H542 8044   2.462   0.160   0.119 -1.4884 -0.4060  0.5083
   12MOL   H543 8045   2.335   0.247   0.179  0.0461 -0.1247 -0.4824
   12MOL   H544 8046   2.575   0.299   0.256 -1.8431  0.0171  0.5101
   12MOL   H545 8047   2.481   0.432   0.218 -1.1309  0.6762 -2.2742
   12MOL   N546 8048   2.697   0.504   0.100  0.1980 -0.1876  0.1147
   12MOL   C547 8049   2.825   0.550   0.050 -0.2831 -0.0615 -0.5516
   12MOL   C548 8050   2.841   0.700   0.081 -0.3950 -0.4807 -0.4445
   12MOL   C549 8051   2.966   0.760   0.033  0.6015  0.0420 -0.2041
   12MOL   C550 8052   2.960   0.912   0.015 -0.6090 -0.0869 -0.5632
   12MOL   C551 8053   2.904   0.964   7.594 -0.1270  0.0411  0.4915
   12MOL   C552 8054   2.895   1.118   7.589  0.7889  0.0538  1.4486
   12MOL   C553 8055   2.859   1.163   7.444  0.6979 -0.0872  0.1043
   12MOL   C554 8056   2.834   1.317   7.428 -0.0036  0.0980  0.4689
   12MOL   C555 8057   2.715   1.368   7.515 -0.0926  0.9895 -0.1945
   12MOL   C556 8058   2.683   1.518   7.511 -0.1732  0.1517  0.3356
   12MOL   C557 8059   2.750   1.600   7.624  0.7730  0.8627  0.0339
   12MOL   O558 8060   2.857   1.565   7.671  0.2322 -0.0447  0.2814
   12MOL   H559 8061   2.631   0.576   0.124  0.0311  0.3507 -1.8763
   12MOL   H560 8062   2.910   0.505   0.101 -0.7703 -0.2048  0.1415
   12MOL   H561 8063   2.838   0.536   7.659 -3.5105  1.4070 -1.1996
   12MOL   H562 8064   2.808   0.730   0.180  2.9156  2.3206 -0.1046
   12MOL   H563 8065   2.759   0.751   0.031 -1.8915 -1.3750  1.0325
   12MOL   H564 8066   3.048   0.747   0.104  2.2264 -1.7667 -2.3336
   12MOL   H565 8067   2.991   0.724   7.649 -1.9688  1.8482 -1.5765
   12MOL   H566 8068   3.053   0.964   0.038  0.0363 -0.8800 -1.3505
   12MOL   H567 8069   2.891   0.940   0.095 -1.2896  0.9311 -1.4707
   12MOL   H568 8070   2.808   0.915   7.584 -1.4127  2.4546  0.6500
   12MOL   H569 8071   2.974   0.929   7.519 -0.7486  1.5251 -0.8081
   12MOL   H570 8072   2.816   1.154   7.654  0.9407  0.1394  1.5875
   12MOL   H571 8073   2.980   1.181   7.615  1.8064 -0.0954 -1.3775
   12MOL   H572 8074   2.766   1.121   7.406 -0.7590  1.2527  2.0784
   12MOL   H573 8075   2.942   1.136   7.378  1.0131  0.0675  0.4363
   12MOL   H574 8076   2.924   1.377   7.446 -0.8625  2.0190 -1.3510
   12MOL   H575 8077   2.814   1.330   7.322 -1.8543  0.4729  0.8511
   12MOL   H576 8078   2.726   1.343   7.621  1.1945 -0.2122 -0.6043
   12MOL   H577 8079   2.630   1.309   7.482  0.0409 -0.8946  2.6405
   12MOL   H578 8080   2.576   1.535   7.528 -0.1676 -0.8776  1.5235
   12MOL   H579 8081   2.703   1.559   7.412  2.1799 -2.5746 -0.3576
   12MOL   N580 8082   2.687   1.707   7.665  0.0557  0.3246  0.2941
   12MOL   C581 8083   2.719   1.801   0.053  0.6948 -0.8074 -0.0904
   12MOL   C582 8084   2.587   1.838   0.127  0.0754 -0.1925  0.3157
   12MOL   C583 8085   2.602   1.934   0.245 -0.0351 -1.0246  0.1029
   12MOL   C584 8086   2.480   1.942   0.334 -0.2833  0.0909  0.1745
   12MOL   C585 8087   2.496   2.007   0.469  0.2186  0.7926  0.0187
   12MOL   C586 8088   2.554   2.156   0.463 -0.6975 -0.5544 -0.0288
   12MOL   C587 8089   2.559   2.218   0.611  0.1782 -0.2249 -0.5287
   12MOL   C588 8090   2.616   2.373   0.613  0.3737  0.4063 -0.1148
   12MOL   C589 8091   2.626   2.435   0.742  0.3056  0.3070 -0.1388
   12MOL   C590 8092   2.497   2.504   0.798 -0.0342  0.4751  0.4575
   12MOL   C591 8093   2.394   2.411   0.841 -0.1742 -0.2389 -0.0149
   12MOL   O592 8094   2.407   2.350   0.948 -0.4472  0.3599  0.2950
   12MOL   H593 8095   2.604   1.730   7.612  0.7940  4.5572  0.8371
   12MOL   H594 8096   2.787   1.762   0.129 -0.0150 -1.8406  0.0126
   12MOL   H595 8097   2.774   1.882   0.003 -0.9334  1.5946  1.9059
   12MOL   H596 8098   2.526   1.754   0.162 -0.6015 -0.5381 -1.6645
   12MOL   H597 8099   2.522   1.888   0.056 -1.2367 -1.3773  0.6563
   12MOL   H598 8100   2.695   1.939   0.302  0.3182  1.2574 -0.6407
   12MOL   H599 8101   2.622   2.030   0.198  0.4551 -0.8020  0.7589
   12MOL   H600 8102   2.420   1.851   0.341  0.1711 -0.1477  1.0795
   12MOL   H601 8103   2.401   1.992   0.278  0.4082  1.1132  0.1017
   12MOL   H602 8104   2.540   1.946   0.547  1.4871  0.4984 -0.9177
   12MOL   H603 8105   2.402   2.006   0.524 -0.8701 -0.1747 -1.8197
   12MOL   H604 8106   2.647   2.156   0.406  0.5910 -2.0653  1.9857
   12MOL   H605 8107   2.482   2.201   0.395 -0.4875 -1.1861 -0.6767
   12MOL   H606 8108   2.618   2.149   0.671  0.5407 -0.0461 -0.6792
   12MOL   H607 8109   2.464   2.214   0.665  0.4866 -0.5443 -0.0090
   12MOL   H608 8110   2.718   2.356   0.580 -0.6158 -1.1658 -2.5425
   12MOL   H609 8111   2.555   2.436   0.549 -0.6058  1.6393  1.9900
   12MOL   H610 8112   2.699   2.515   0.743 -0.2035  0.8104 -1.6881
   12MOL   H611 8113   2.653   2.356   0.812 -4.7180 -1.7205 -0.2419
   12MOL   H612 8114   2.459   2.574   0.725  1.3018  1.6968  0.9021
   12MOL   H613 8115   2.518   2.559   0.890  0.8296  0.0151  0.5514
   12MOL   N614 8116   2.295   2.389   0.754  0.4924 -0.2902 -0.2705
   12MOL   C615 8117   2.179   2.316   0.793 -0.7652 -0.4719  0.5899
   12MOL   C616 8118   2.102   2.272   0.671  0.3698  0.7126  0.8199
   12MOL   C617 8119   1.966   2.191   0.708 -0.1882 -1.2094 -0.1402
   12MOL   C618 8120   1.884   2.138   0.590  0.0711 -0.6088 -0.2881
   12MOL   C619 8121   1.931   2.000   0.548 -0.5861 -0.3758 -0.1747
   12MOL   C620 8122   1.915   1.957   0.406 -0.5245 -0.0775 -0.0613
   12MOL   C621 8123   1.761   1.930   0.376  0.4272  0.0831 -0.9474
   12MOL   C622 8124   1.743   1.846   0.252  0.0949  0.3316  0.1156
   12MOL   C623 8125   1.592   1.836   0.192 -0.7320  0.6759 -0.3568
   12MOL   C624 8126   1.574   1.743   0.072 -0.3168 -0.1706 -0.6209
   12MOL   C625 8127   1.640   1.794   7.653  0.6720 -0.0482  0.6778
   12MOL   O626 8128   1.665   1.913   7.641 -0.1331  0.0982  0.0905
   12MOL   H627 8129   2.283   2.436   0.666  0.1742 -0.3974 -0.2843
   12MOL   H628 8130   2.124   2.382   0.861 -0.0451  0.8382 -0.1067
   12MOL   H629 8131   2.210   2.223   0.842 -0.2690 -0.4330  0.3439
   12MOL   H630 8132   2.172   2.206   0.619  0.4235  1.3048  0.1246
   12MOL   H631 8133   2.085   2.368   0.622  0.4666  0.3362  0.0403
   12MOL   H632 8134   1.996   2.112   0.775  0.7436 -0.2738  0.5524
   12MOL   H633 8135   1.898   2.259   0.760 -1.3604 -1.7403 -0.9563
   12MOL   H634 8136   1.881   2.206   0.504 -0.5522  0.2133  0.3834
   12MOL   H635 8137   1.777   2.142   0.610  0.1410  1.2505 -0.1639
   12MOL   H636 8138   1.898   1.917   0.609  1.3728 -0.1759  1.2043
   12MOL   H637 8139   2.033   1.988   0.583 -0.1858  0.8937 -0.8568
   12MOL   H638 8140   1.956   2.025   0.331  0.4612 -0.4649  0.1173
   12MOL   H639 8141   1.961   1.860   0.393  0.4161  0.4270 -0.5466
   12MOL   H640 8142   1.700   2.020   0.366 -0.8060 -0.6920 -0.6056
   12MOL   H641 8143   1.704   1.886   0.458 -0.6316  1.5658 -0.8585
   12MOL   H642 8144   1.813   1.885   0.178  0.5615  0.2283  0.5044
   12MOL   H643 8145   1.774   1.743   0.267  0.6164  0.6252  1.0704
   12MOL   H644 8146   1.556   1.935   0.162 -1.5183  0.9348  1.4171
   12MOL   H645 8147   1.530   1.802   0.274  0.8932 -1.1895  0.1346
   12MOL   H646 8148   1.469   1.719   0.051 -1.0710  2.0587  0.3890
   12MOL   H647 8149   1.620   1.647   0.097  1.6419  0.5747 -1.2837
   12MOL   N648 8150   1.675   1.700   7.563 -0.4822 -0.1874  0.0248
   12MOL   C649 8151   1.744   1.709   7.430  0.1450 -0.1179  0.8233
   12MOL   C650 8152   1.737   1.573   7.353 -0.7325 -0.1739 -0.5577
   12MOL   C651 8153   1.824   1.585   7.220 -0.5914  1.2099 -0.0891
   12MOL   C652 8154   1.828   1.448   7.146 -0.6330  0.0023 -0.0480
   12MOL   C653 8155   1.869   1.450   7.000 -0.7346 -0.1741  0.2868
   12MOL   C654 8156   1.877   1.308   6.936 -0.1318 -0.3034  0.1329
   12MOL   C655 8157   2.002   1.229   6.977 -0.8505 -0.3276  0.0368
   12MOL   C656 8158   1.999   1.092   6.904  0.0846  0.5357 -0.5947
   12MOL   C657 8159   2.116   1.006   6.943 -0.6940 -0.1331 -0.3932
   12MOL   C658 8160   2.095   0.853   6.969  0.4265  0.6115  0.3659
   12MOL   C659 8161   2.023   0.773   6.864  0.5296 -0.1497 -0.5515
   12MOL   O660 8162   2.003   0.812   6.749 -0.5389  0.1917  0.1669
   12MOL   H661 8163   1.645   1.607   7.590  0.0900 -0.7139 -1.1290
   12MOL   H662 8164   1.847   1.731   7.459 -0.4736  2.7690  1.0628
   12MOL   H663 8165   1.693   1.780   7.365  1.5029  0.6225  0.5530
   12MOL   H664 8166   1.634   1.541   7.340 -0.9619  0.4646 -0.3348
   12MOL   H665 8167   1.774   1.497   7.422 -2.0502  0.5371  0.9769
   12MOL   H666 8168   1.781   1.663   7.156  2.0603  0.3808 -3.0170
   12MOL   H667 8169   1.928   1.608   7.245 -0.3642 -1.3234  1.4470
   12MOL   H668 8170   1.732   1.396   7.151 -0.8051  0.2714 -0.4945
   12MOL   H669 8171   1.903   1.393   7.202 -1.2811  0.8231  1.6552
   12MOL   H670 8172   1.965   1.497   6.976 -1.4242 -0.0516 -2.3334
   12MOL   H671 8173   1.801   1.522   6.955  1.7937  0.1560 -3.1991
   12MOL   H672 8174   1.792   1.257   6.983  0.6263 -1.3749  0.3559
   12MOL   H673 8175   1.853   1.312   6.830 -0.3933 -0.0611  0.2003
   12MOL   H674 8176   2.008   1.194   7.080  0.5501 -2.3916 -0.7173
   12MOL   H675 8177   2.091   1.290   6.958 -1.5321  0.8821  0.6312
   12MOL   H676 8178   1.895   1.059   6.909 -0.6197  2.9302  1.7814
   12MOL   H677 8179   2.012   1.109   6.797  0.1806  1.0187 -0.5048
   12MOL   H678 8180   2.172   1.047   7.027  0.0571 -0.8382 -0.5417
   12MOL   H679 8181   2.190   1.007   6.864 -0.9903 -2.8180 -0.7693
   12MOL   H680 8182   2.040   0.854   7.064 -0.5676  1.5159 -0.2029
   12MOL   H681 8183   2.195   0.810   6.972 -0.4489 -2.0731 -4.1482
   12MOL   H682 8184   1.986   0.682   6.910 -2.0217  1.3793  0.5870
   13MOL     N1 8185   6.257   3.251   6.996 -1.2192  0.3375 -0.9055
   13MOL     C2 8186   6.234   3.387   7.043  0.4516  0.1120 -0.2335
   13MOL     C3 8187   6.354   3.478   7.040  0.6331  0.1137 -0.1518
   13MOL     C4 8188   6.314   3.600   7.113  1.0518  0.0275 -0.0944
   13MOL     C5 8189   6.424   3.713   7.106  0.4317  0.0538 -0.5683
   13MOL     C6 8190   6.543   3.680   7.181  0.0339 -0.4152 -0.3139
   13MOL     C7 8191   6.631   3.806   7.196 -0.3630  0.1279 -0.4979
   13MOL     C8 8192   6.624   3.888   7.321  0.2977  0.3394 -0.8445
   13MOL     C9 8193   6.665   3.804   7.442 -0.1293  0.3144 -0.0831
   13MOL    C10 8194   6.705   3.886   7.568  0.7361  0.1974 -0.2492
   13MOL    C11 8195   6.590   3.977   7.617 -0.3191  0.9460  0.0089
   13MOL    C12 8196   6.635   4.073   0.013  0.4439 -0.2064  0.2448
   13MOL    O13 8197   6.754   4.106   0.024 -0.5610  0.3124  0.2244
   13MOL    H14 8198   6.308   3.238   6.909 -1.4920 -2.7717 -0.6476
   13MOL    H15 8199   6.192   3.375   7.143 -0.3259  3.7377 -0.0397
   13MOL    H16 8200   6.153   3.419   6.978  0.3771 -0.8907 -0.6353
   13MOL    H17 8201   6.384   3.519   6.943  0.0567  3.0017  0.8222
   13MOL    H18 8202   6.439   3.431   7.089  1.3850 -0.9978 -2.4828
   13MOL    H19 8203   6.220   3.643   7.077  1.8255 -0.0262 -2.2558
   13MOL    H20 8204   6.283   3.576   7.215  3.2645  0.6300  0.7667
   13MOL    H21 8205   6.370   3.797   7.150 -1.5633 -0.8454 -1.2324
   13MOL    H22 8206   6.456   3.736   7.005 -1.0059  0.6744 -0.8967
   13MOL    H23 8207   6.585   3.604   7.116 -1.2764 -0.9959 -0.5063
   13MOL    H24 8208   6.516   3.628   7.273  3.2888 -1.3235  0.1776
   13MOL    H25 8209   6.733   3.772   7.180 -0.0948 -0.2436  1.8192
   13MOL    H26 8210   6.622   3.867   7.106 -1.0548  0.3000 -0.3124
   13MOL    H27 8211   6.521   3.918   7.338  0.7305  1.9569 -0.9942
   13MOL    H28 8212   6.681   3.979   7.301  0.6021  0.2183 -0.5217
   13MOL    H29 8213   6.592   3.728   7.469 -0.5803  0.2550 -1.4356
   13MOL    H30 8214   6.761   3.761   7.413 -0.3486  0.6811 -1.3758
   13MOL    H31 8215   6.793   3.944   7.541 -1.6396  3.5505 -1.1384
   13MOL    H32 8216   6.732   3.815   7.646 -0.4953 -0.8054 -0.7118
   13MOL    H33 8217   6.504   3.927   7.661 -0.7375  0.9022 -0.8538
   13MOL    H34 8218   6.555   4.045   7.541  0.7757  1.2114 -0.2739
   13MOL    H35 8219   6.164   3.224   6.969 -0.5381 -0.0570 -2.9686
   13MOL    N36 8220   6.542   4.116   0.099  0.7807 -0.2052 -0.3489
   13MOL    C37 8221   6.565   4.181   0.219  0.2748  0.4181 -0.4320
   13MOL    C38 8222   6.631   4.086   0.327  0.0723 -0.3859 -1.0098
   13MOL    C39 8223   6.623   4.143   0.469  0.6851 -0.0905 -0.0061
   13MOL    C40 8224   6.645   4.036   0.582 -0.3461  0.0360 -0.7982
   13MOL    C41 8225   6.637   4.083   0.728 -0.4558 -0.9535  0.1126
   13MOL    C42 8226   6.757   4.171   0.778 -0.4601  0.3769 -0.4251
   13MOL    C43 8227   6.758   4.211   0.923  0.7587  0.3287  0.7608
   13MOL    C44 8228   6.862   4.315   0.955  0.3391 -0.0914 -0.0474
   13MOL    C45 8229   6.903   4.342   1.103 -0.0200  0.0661  0.2616
   13MOL    C46 8230   6.990   4.468   1.121 -0.5180  0.3172  0.2651
   13MOL    C47 8231   6.936   4.599   1.081  0.5186 -0.0526 -0.0065
   13MOL    O48 8232   6.844   4.644   1.151 -0.3608 -0.0945 -0.3913
   13MOL    H49 8233   6.448   4.082   0.080  0.5659  1.3908 -2.2739
   13MOL    H50 8234   6.624   4.272   0.207 -0.1342  0.9311  1.2658
   13MOL    H51 8235   6.468   4.221   0.247 -0.0709 -0.5764 -0.1998
   13MOL    H52 8236   6.736   4.066   0.306  0.0329 -1.4695 -0.2514
   13MOL    H53 8237   6.584   3.988   0.315  0.7911 -0.9447  0.5684
   13MOL    H54 8238   6.703   4.215   0.483  0.7778 -0.2869  0.4920
   13MOL    H55 8239   6.526   4.190   0.481 -0.6221 -2.7520  0.2197
   13MOL    H56 8240   6.747   3.997   0.581  0.2162  1.4885 -0.1387
   13MOL    H57 8241   6.567   3.960   0.570  0.4293 -1.2185  1.8985
   13MOL    H58 8242   6.637   3.993   0.790  0.4368 -0.2495  1.1415
   13MOL    H59 8243   6.544   4.137   0.749 -0.7377 -1.0059 -0.9498
   13MOL    H60 8244   6.839   4.101   0.759 -1.4035 -1.1040  0.7659
   13MOL    H61 8245   6.777   4.260   0.719  2.4575  0.2933  0.3547
   13MOL    H62 8246   6.746   4.129   0.994  0.9420 -0.3146  0.0544
   13MOL    H63 8247   6.665   4.262   0.948  0.2764 -1.4004  2.7035
   13MOL    H64 8248   6.952   4.288   0.899  0.6472  0.1940  0.3073
   13MOL    H65 8249   6.827   4.411   0.918  1.4244  0.0582 -0.6960
   13MOL    H66 8250   6.965   4.261   1.142  0.9307  0.2545 -0.8496
   13MOL    H67 8251   6.816   4.350   1.168 -0.4725 -1.6772 -0.0816
   13MOL    H68 8252   7.083   4.454   1.067 -1.1671  1.3310 -1.1303
   13MOL    H69 8253   7.032   4.477   1.221 -0.6863 -4.3575  0.8885
   13MOL    N70 8254   6.983   4.674   0.984 -0.6221 -0.2684 -0.4089
   13MOL    C71 8255   6.945   4.813   0.954  0.2680  0.0073  0.3486
   13MOL    C72 8256   6.940   4.836   0.803 -0.5248  0.2038  0.1947
   13MOL    C73 8257   6.884   4.981   0.762  0.0021  0.1907 -0.3397
   13MOL    C74 8258   6.849   5.004   0.610 -0.2426 -0.1649  0.0615
   13MOL    C75 8259   6.817   5.158   0.578  0.4769  0.0672 -0.5788
   13MOL    C76 8260   6.770   5.192   0.441 -0.2498  0.3156  0.1784
   13MOL    C77 8261   6.756   5.345   0.408  0.2275  0.1952 -0.3588
   13MOL    C78 8262   6.692   5.358   0.262  0.1957  0.2847 -1.2268
   13MOL    C79 8263   6.677   5.500   0.207  0.0684 -0.9129  0.8337
   13MOL    C80 8264   6.569   5.581   0.279  0.4662  0.4256 -0.7631
   13MOL    C81 8265   6.486   5.666   0.189 -0.9040  0.1461  0.1775
   13MOL    O82 8266   6.541   5.720   0.092 -0.7965  0.5065  0.0692
   13MOL    H83 8267   7.049   4.626   0.924 -1.3189 -0.3211 -1.1354
   13MOL    H84 8268   6.846   4.830   0.995  0.9770 -0.5105  2.3266
   13MOL    H85 8269   7.026   4.866   1.004  2.4178 -1.1288 -1.8189
   13MOL    H86 8270   6.889   4.749   0.761 -0.3061  1.0435 -1.8944
   13MOL    H87 8271   7.039   4.835   0.757 -1.3029  0.0846 -1.5158
   13MOL    H88 8272   6.793   5.005   0.817 -0.2099 -2.4962  0.5261
   13MOL    H89 8273   6.961   5.054   0.790 -0.0430  0.5316 -1.0730
   13MOL    H90 8274   6.755   4.955   0.585 -1.3711  2.5378 -1.2175
   13MOL    H91 8275   6.931   4.982   0.542 -1.2877 -0.1695 -1.2267
   13MOL    H92 8276   6.914   5.206   0.592  1.1219 -1.0766 -1.0721
   13MOL    H93 8277   6.744   5.192   0.651 -0.1784 -2.4897  0.0001
   13MOL    H94 8278   6.834   5.141   0.369 -2.3190 -2.0997 -0.0211
   13MOL    H95 8279   6.672   5.148   0.420 -0.7015  1.4605 -0.1657
   13MOL    H96 8280   6.854   5.393   0.411  1.4298 -2.1248 -1.8138
   13MOL    H97 8281   6.695   5.395   0.483  2.3638 -0.8854  2.1887
   13MOL    H98 8282   6.752   5.310   0.186 -0.7343 -3.3376  0.2194
   13MOL    H99 8283   6.598   5.303   0.263 -0.3016  1.1188 -0.5014
   13MOL   H100 8284   6.656   5.501   0.100 -1.1542  0.3367  1.0688
   13MOL   H101 8285   6.772   5.546   0.231 -0.7309  0.2974  1.7483
   13MOL   H102 8286   6.612   5.641   0.360  0.3493  0.8809 -1.0412
   13MOL   H103 8287   6.501   5.506   0.321 -0.3204  1.1819 -0.6785
   13MOL   N104 8288   6.355   5.667   0.213  0.4283  0.1859 -0.3698
   13MOL   C105 8289   6.252   5.727   0.135  0.0549 -0.2692  0.5677
   13MOL   C106 8290   6.144   5.767   0.237 -0.7539  0.5682  0.4805
   13MOL   C107 8291   6.049   5.865   0.164 -0.4968 -0.0850  0.7702
   13MOL   C108 8292   5.929   5.912   0.242  0.1040 -0.4936  0.0555
   13MOL   C109 8293   5.860   6.041   0.185 -0.2092 -0.2748 -0.1669
   13MOL   C110 8294   5.738   6.087   0.278 -0.0791 -0.3473 -0.0696
   13MOL   C111 8295   5.621   6.155   0.207  0.8155 -0.0703  0.0778
   13MOL   C112 8296   5.513   6.197   0.300  1.0523  0.0786  0.0997
   13MOL   C113 8297   5.390   6.237   0.222  0.5021 -0.1658 -0.2456
   13MOL   C114 8298   5.261   6.253   0.314  0.3203  0.0413 -0.8133
   13MOL   C115 8299   5.195   6.121   0.346 -0.1391 -0.0995  0.0092
   13MOL   O116 8300   5.147   6.057   0.256  0.0489 -0.0971  0.0997
   13MOL   H117 8301   6.317   5.609   0.286 -0.3621  0.7507 -0.3194
   13MOL   H118 8302   6.282   5.820   0.087 -0.3787 -0.0619  0.6941
   13MOL   H119 8303   6.213   5.667   0.053 -1.3675  0.8570  0.4062
   13MOL   H120 8304   6.191   5.814   0.323  1.1711 -2.3761  1.1072
   13MOL   H121 8305   6.094   5.684   0.287  0.2508 -0.3457 -0.0260
   13MOL   H122 8306   6.100   5.957   0.134 -1.0339 -0.4129 -1.1437
   13MOL   H123 8307   6.025   5.829   0.065  1.1788  0.3945  0.1700
   13MOL   H124 8308   5.969   5.932   0.341  0.0299 -0.5101  0.0884
   13MOL   H125 8309   5.853   5.834   0.244 -4.4650  3.7058  0.8405
   13MOL   H126 8310   5.832   6.022   0.081 -0.9922  1.1074 -0.2249
   13MOL   H127 8311   5.934   6.121   0.180  0.5816 -1.0588 -1.3168
   13MOL   H128 8312   5.696   6.002   0.332 -3.8584  1.2242 -0.3634
   13MOL   H129 8313   5.771   6.163   0.348 -2.1884  1.5680 -1.0964
   13MOL   H130 8314   5.575   6.079   0.145  2.2023 -0.5217 -0.4113
   13MOL   H131 8315   5.653   6.242   0.150  1.1398 -1.0106 -1.1962
   13MOL   H132 8316   5.491   6.109   0.361  3.0335 -0.5543 -0.0557
   13MOL   H133 8317   5.552   6.276   0.365  0.8986 -0.2207  0.5588
   13MOL   H134 8318   5.370   6.172   0.137  2.9505 -1.0240 -0.2058
   13MOL   H135 8319   5.408   6.329   0.166 -0.0390  0.9100  1.3140
   13MOL   H136 8320   5.183   6.299   0.252  0.4144  0.8523 -0.3334
   13MOL   H137 8321   5.271   6.318   0.401 -0.7996 -0.8333 -0.0115
   13MOL   N138 8322   5.182   6.101   0.477 -0.1746  0.3178 -0.2167
   13MOL   C139 8323   5.128   5.980   0.542 -0.3682  0.2526  0.0697
   13MOL   C140 8324   5.025   6.020   0.651  0.6345  0.0237 -1.0126
   13MOL   C141 8325   4.917   5.924   0.679 -0.7325 -0.3048 -0.1786
   13MOL   C142 8326   4.820   5.977   0.779 -0.4923 -0.0605  0.3805
   13MOL   C143 8327   4.680   5.913   0.778 -0.7854 -0.4295 -0.5656
   13MOL   C144 8328   4.586   5.992   0.872 -0.3012 -0.3056 -0.2266
   13MOL   C145 8329   4.440   5.963   0.851  0.5370  0.9055 -0.1720
   13MOL   C146 8330   4.343   6.034   0.946  0.6409  0.0748 -0.8931
   13MOL   C147 8331   4.347   6.189   0.938  0.2569  0.5023 -0.5766
   13MOL   C148 8332   4.257   6.252   1.050  0.3787  0.6655 -0.4854
   13MOL   C149 8333   4.277   6.405   1.061 -0.8728 -0.3124 -0.1183
   13MOL   O150 8334   4.331   6.453   1.160  0.7104 -0.4025  0.2823
   13MOL   H151 8335   5.211   6.172   0.543 -0.2424 -1.7021  2.0887
   13MOL   H152 8336   5.064   5.923   0.474 -0.5679  1.9087 -1.1823
   13MOL   H153 8337   5.205   5.912   0.577  1.5425  3.1608  1.7250
   13MOL   H154 8338   4.988   6.120   0.630  1.9458  1.4438  3.1226
   13MOL   H155 8339   5.079   6.025   0.745 -0.3238  1.2770 -0.5223
   13MOL   H156 8340   4.858   5.918   0.587 -0.7482 -1.0507 -0.1233
   13MOL   H157 8341   4.955   5.826   0.708 -2.6420 -1.3230 -1.0276
   13MOL   H158 8342   4.819   6.085   0.772  1.9108 -0.0469 -0.3116
   13MOL   H159 8343   4.864   5.968   0.879  0.7955  0.5363 -0.1252
   13MOL   H160 8344   4.682   5.809   0.809 -2.2236 -0.7288 -1.4406
   13MOL   H161 8345   4.643   5.917   0.675  0.2166  0.8376 -0.9018
   13MOL   H162 8346   4.613   5.989   0.978 -0.0274  0.8046 -0.2536
   13MOL   H163 8347   4.594   6.099   0.849 -0.9839 -0.4785 -1.2747
   13MOL   H164 8348   4.427   5.855   0.848  1.7774  0.7412  0.3090
   13MOL   H165 8349   4.410   5.997   0.752  0.0773 -0.3502 -0.4745
   13MOL   H166 8350   4.238   6.009   0.929  0.4967 -1.2776  1.6540
   13MOL   H167 8351   4.370   5.998   1.045 -0.4292  0.6454 -0.3833
   13MOL   H168 8352   4.321   6.226   0.838 -3.1139 -1.9923 -0.7297
   13MOL   H169 8353   4.449   6.214   0.965  0.2409  0.6610 -0.6595
   13MOL   H170 8354   4.290   6.216   1.148  1.2192 -1.2528 -1.4309
   13MOL   H171 8355   4.152   6.227   1.039  0.9016 -1.1687 -1.6427
   13MOL   N172 8356   4.235   6.476   0.956  0.1120  0.5589  0.6613
   13MOL   C173 8357   4.210   6.616   0.962 -0.6522  0.0710 -0.6232
   13MOL   C174 8358   4.058   6.647   0.960  0.2519 -0.0319  0.4454
   13MOL   C175 8359   3.981   6.590   0.838  0.5294 -0.3111 -0.7665
   13MOL   C176 8360   3.822   6.618   0.854 -0.3535 -0.0762  0.7553
   13MOL   C177 8361   3.745   6.575   0.730 -0.2393  0.0889 -0.6516
   13MOL   C178 8362   3.616   6.660   0.726  0.0614 -0.0166  0.1303
   13MOL   C179 8363   3.534   6.622   0.604  0.0217 -0.0253 -0.2437
   13MOL   C180 8364   3.429   6.711   0.559 -0.4621  0.2674 -0.3590
   13MOL   C181 8365   3.302   6.704   0.641  0.6895  0.7265 -0.3028
   13MOL   C182 8366   3.205   6.800   0.584 -0.3440 -0.6171  0.0065
   13MOL   C183 8367   3.062   6.786   0.635 -0.4848 -0.6780  0.3666
   13MOL   O184 8368   3.011   6.676   0.630 -0.0433 -0.2599 -0.0660
   13MOL   H185 8369   4.199   6.423   0.878 -0.9407 -0.2119  1.6513
   13MOL   H186 8370   4.245   6.670   1.050 -2.8671  2.5150 -1.1472
   13MOL   H187 8371   4.250   6.669   0.875  0.3001  2.7760  1.3769
   13MOL   H188 8372   4.047   6.755   0.956  1.6743  0.0637 -1.2882
   13MOL   H189 8373   4.009   6.619   1.054  0.4110  1.0617  0.8657
   13MOL   H190 8374   4.011   6.638   0.746 -0.4267 -0.0661 -0.9581
   13MOL   H191 8375   3.998   6.482   0.832  2.6110 -0.1524  1.6365
   13MOL   H192 8376   3.808   6.719   0.892  0.6619  0.4452 -0.2252
   13MOL   H193 8377   3.789   6.555   0.937 -0.9572 -1.0365 -0.2027
   13MOL   H194 8378   3.730   6.468   0.743  0.5342  0.1927  1.3224
   13MOL   H195 8379   3.814   6.591   0.647  1.6527  1.6697  1.1516
   13MOL   H196 8380   3.556   6.649   0.816  0.8803 -1.3064  0.5216
   13MOL   H197 8381   3.645   6.765   0.719  0.2406 -0.0717  0.0498
   13MOL   H198 8382   3.485   6.525   0.606  0.1152 -0.1091 -1.5878
   13MOL   H199 8383   3.601   6.608   0.519 -0.0427 -0.1661 -0.2715
   13MOL   H200 8384   3.463   6.814   0.553  0.8105 -0.1619 -0.5969
   13MOL   H201 8385   3.407   6.677   0.457 -3.0652 -1.4150  0.7244
   13MOL   H202 8386   3.309   6.730   0.747 -1.8250 -0.3412  0.1585
   13MOL   H203 8387   3.261   6.603   0.644  0.3515  0.9063  3.1145
   13MOL   H204 8388   3.196   6.785   0.477 -1.4231  3.3169 -0.5347
   13MOL   H205 8389   3.236   6.904   0.588  1.8762 -1.1960 -1.0422
   13MOL   N206 8390   3.003   6.901   0.670 -0.5243  0.6960  0.3668
   13MOL   C207 8391   2.873   6.901   0.743 -0.0135 -1.1307  0.4727
   13MOL   C208 8392   2.878   6.948   0.893 -0.1616 -0.4777 -0.5361
   13MOL   C209 8393   2.997   6.876   0.966 -0.8804 -0.3424  0.0211
   13MOL   C210 8394   2.998   6.899   1.118 -0.8873 -0.4313  0.1613
   13MOL   C211 8395   3.029   7.041   1.155  0.3089  0.0266 -0.9483
   13MOL   C212 8396   3.005   7.068   1.301 -0.7864 -0.0231  0.5658
   13MOL   C213 8397   3.121   7.011   1.380  0.4663  0.1979 -0.1001
   13MOL   C214 8398   3.114   7.052   1.527 -0.0311  0.0075  0.4586
   13MOL   C215 8399   3.204   6.965   1.613  0.3012 -0.0498  0.7698
   13MOL   C216 8400   3.357   6.968   1.593 -0.3853  0.0787 -0.0898
   13MOL   C217 8401   3.425   6.884   1.702 -0.7267  0.2005  0.1740
   13MOL   O218 8402   3.468   6.926   1.809  0.2650  0.2564  0.1047
   13MOL   H219 8403   3.063   6.982   0.667  0.0856  0.2427  0.0459
   13MOL   H220 8404   2.824   6.803   0.738 -0.2091 -0.9633 -0.9267
   13MOL   H221 8405   2.813   6.969   0.683 -0.7576 -1.9012  0.3211
   13MOL   H222 8406   2.783   6.911   0.933  0.0677 -1.0881 -0.5465
   13MOL   H223 8407   2.881   7.056   0.906  1.2265 -0.5518 -0.1630
   13MOL   H224 8408   2.990   6.769   0.946 -1.8823 -0.3501  0.3969
   13MOL   H225 8409   3.087   6.912   0.915 -1.2061 -1.8560 -1.6946
   13MOL   H226 8410   3.066   6.832   1.171  1.1497  0.8749 -0.7609
   13MOL   H227 8411   2.905   6.864   1.164 -2.0324 -0.1807 -1.9456
   13MOL   H228 8412   2.975   7.111   1.091 -3.5088 -3.0820 -1.3125
   13MOL   H229 8413   3.135   7.048   1.128  0.8156 -0.4211  0.7984
   13MOL   H230 8414   2.996   7.177   1.308  0.7986  0.1853 -0.3983
   13MOL   H231 8415   2.919   7.015   1.342 -0.1033 -0.9822  0.7787
   13MOL   H232 8416   3.213   7.053   1.339  0.1325  0.2412 -0.8163
   13MOL   H233 8417   3.127   6.903   1.372  0.4592  0.1594  0.4042
   13MOL   H234 8418   3.145   7.156   1.522 -1.3524  0.2983 -4.1772
   13MOL   H235 8419   3.010   7.043   1.557 -0.1518 -3.5560 -0.8151
   13MOL   H236 8420   3.166   6.864   1.595 -0.3982 -0.2897  3.4671
   13MOL   H237 8421   3.194   6.988   1.719 -0.7023  3.7184 -0.0637
   13MOL   H238 8422   3.393   7.071   1.601 -2.9300  0.9824  0.3444
   13MOL   H239 8423   3.401   6.932   1.500 -0.2994  0.7637 -0.3209
   13MOL   N240 8424   3.439   6.755   1.678 -0.2204  0.0988  0.4076
   13MOL   C241 8425   3.494   6.659   1.770  0.2990  0.6816  0.3183
   13MOL   C242 8426   3.473   6.518   1.720 -0.3617  0.5306 -0.2716
   13MOL   C243 8427   3.560   6.471   1.595  0.8186  0.1946  0.1034
   13MOL   C244 8428   3.544   6.329   1.563 -0.6021 -0.3436 -0.1790
   13MOL   C245 8429   3.412   6.314   1.491  0.4336  0.1934 -0.5185
   13MOL   C246 8430   3.408   6.173   1.434  0.6938 -0.2032 -0.1166
   13MOL   C247 8431   3.263   6.121   1.408 -0.2451  0.3956 -0.1506
   13MOL   C248 8432   3.262   5.976   1.359 -0.4623  0.5211 -0.0001
   13MOL   C249 8433   3.111   5.926   1.341  0.5821 -0.4607  0.2208
   13MOL   C250 8434   3.105   5.770   1.326 -0.2896 -0.5891 -0.5289
   13MOL   C251 8435   3.203   5.695   1.424 -0.4415  0.4474 -0.1107
   13MOL   O252 8436   3.214   5.721   1.542 -0.5622 -0.4723 -0.4176
   13MOL   H253 8437   3.397   6.714   1.595  1.5472 -0.5093 -0.2120
   13MOL   H254 8438   3.449   6.666   1.869 -0.7092  1.3602 -0.1830
   13MOL   H255 8439   3.602   6.675   1.782  1.1584 -2.7880 -1.9757
   13MOL   H256 8440   3.366   6.516   1.699  0.0855  0.9665 -2.7684
   13MOL   H257 8441   3.493   6.447   1.800 -0.2753  0.8453 -0.0133
   13MOL   H258 8442   3.538   6.536   1.510 -0.1752  1.5525  1.3753
   13MOL   H259 8443   3.664   6.496   1.614  0.8360 -1.2293  1.9416
   13MOL   H260 8444   3.553   6.278   1.658  2.6002  2.0864  0.9084
   13MOL   H261 8445   3.622   6.311   1.489  0.3989  2.3261  0.1517
   13MOL   H262 8446   3.389   6.388   1.414  0.6061 -1.7838 -2.5242
   13MOL   H263 8447   3.335   6.324   1.567  1.7748 -1.2371  1.0548
   13MOL   H264 8448   3.462   6.172   1.339 -0.9237  0.4086 -1.0542
   13MOL   H265 8449   3.463   6.103   1.498 -0.1577  0.7664  1.7284
   13MOL   H266 8450   3.211   6.186   1.338  0.8881  0.2727 -1.1214
   13MOL   H267 8451   3.202   6.133   1.498 -0.6851  2.3872 -0.7020
   13MOL   H268 8452   3.324   5.957   1.272 -1.4881 -0.9545 -0.4248
   13MOL   H269 8453   3.311   5.921   1.439 -2.9423 -0.0629  1.1940
   13MOL   H270 8454   3.064   5.965   1.251  1.8096 -3.1046 -1.6441
   13MOL   H271 8455   3.050   5.963   1.423  0.4298  0.3760 -0.2594
   13MOL   H272 8456   3.140   5.747   1.226  0.6444  0.0631 -0.3632
   13MOL   H273 8457   3.005   5.728   1.338 -1.1611  1.4458 -0.4125
   13MOL   N274 8458   3.293   5.613   1.362 -0.1363  0.1226 -0.4461
   13MOL   C275 8459   3.367   5.511   1.445 -0.7828  0.3470  0.3755
   13MOL   C276 8460   3.489   5.444   1.370 -0.7299  0.2572  1.0519
   13MOL   C277 8461   3.558   5.331   1.452 -0.3705 -0.6588  0.7941
   13MOL   C278 8462   3.683   5.281   1.374 -0.0589  0.6050  0.3799
   13MOL   C279 8463   3.770   5.179   1.456 -0.0443  0.1885 -0.5503
   13MOL   C280 8464   3.894   5.149   1.381  0.3138  0.0734  1.5588
   13MOL   C281 8465   3.878   5.097   1.244 -0.4196 -0.1341  0.0150
   13MOL   C282 8466   3.784   4.977   1.243  0.6570  0.3468  0.1176
   13MOL   C283 8467   3.777   4.879   1.126 -0.1474  0.4589 -0.2926
   13MOL   C284 8468   3.672   4.771   1.154  0.2817 -1.0449  0.5585
   13MOL   C285 8469   3.638   4.694   1.024  0.4088 -0.5882 -0.3499
   13MOL   O286 8470   3.718   4.613   0.976 -0.8388  0.3172  0.3313
   13MOL   H287 8471   3.291   5.609   1.261 -0.4389 -1.9813 -0.3862
   13MOL   H288 8472   3.302   5.430   1.476 -0.4713 -0.5193 -1.2183
   13MOL   H289 8473   3.413   5.557   1.533  0.2256  0.3691 -0.1512
   13MOL   H290 8474   3.564   5.520   1.346 -1.2417  0.5231  0.3028
   13MOL   H291 8475   3.454   5.417   1.270 -2.2170  4.6680  0.2957
   13MOL   H292 8476   3.591   5.378   1.545  1.2766 -0.0416 -0.0765
   13MOL   H293 8477   3.492   5.249   1.480 -0.9157 -0.5151 -0.0574
   13MOL   H294 8478   3.745   5.367   1.351 -1.1921  1.3906  0.1966
   13MOL   H295 8479   3.643   5.248   1.278 -0.9757 -2.1958  1.6675
   13MOL   H296 8480   3.712   5.090   1.482 -1.0830  1.1767  0.5437
   13MOL   H297 8481   3.807   5.221   1.549  1.3284 -0.3566 -0.8455
   13MOL   H298 8482   3.958   5.237   1.375  0.2012  0.2414  2.6262
   13MOL   H299 8483   3.958   5.078   1.433  0.7233  0.2024  1.2306
   13MOL   H300 8484   3.980   5.075   1.211 -0.4436  1.5723 -1.2574
   13MOL   H301 8485   3.843   5.185   1.191  0.2035 -0.6640 -1.2922
   13MOL   H302 8486   3.802   4.921   1.335  1.6909 -2.1383 -1.5228
   13MOL   H303 8487   3.688   5.024   1.262  0.0482 -0.8895  0.1347
   13MOL   H304 8488   3.875   4.837   1.102  0.0667  0.9048 -0.2029
   13MOL   H305 8489   3.756   4.944   1.042 -1.3837  0.8635  0.3135
   13MOL   H306 8490   3.585   4.832   1.179  0.6540  0.6740 -2.1411
   13MOL   H307 8491   3.711   4.705   1.231 -1.5090 -0.4168  2.0386
   13MOL   N308 8492   3.513   4.697   0.973  0.7058 -0.0027  0.1762
   13MOL   C309 8493   3.463   4.600   0.867 -0.3091 -0.2168 -0.7353
   13MOL   C310 8494   3.324   4.637   0.816 -0.1002 -0.7062 -0.5108
   13MOL   C311 8495   3.294   4.575   0.682 -0.0133  0.4728 -0.1176
   13MOL   C312 8496   3.358   4.650   0.565  0.1150 -0.5723  0.2364
   13MOL   C313 8497   3.403   4.568   0.444  0.6615  0.2949  0.1628
   13MOL   C314 8498   3.459   4.671   0.345 -0.1010  0.3106  0.9625
   13MOL   C315 8499   3.490   4.607   0.206  0.4526  0.2533  0.4989
   13MOL   C316 8500   3.561   4.703   0.107 -0.7083  0.3448 -0.0409
   13MOL   C317 8501   3.709   4.725   0.154  0.2596  0.8471 -0.1168
   13MOL   C318 8502   3.749   4.873   0.155  0.1901  0.4724  0.5995
   13MOL   C319 8503   3.901   4.901   0.115 -0.6078 -0.3564 -0.3435
   13MOL   O320 8504   3.934   4.936   0.001  0.3061  0.0536  0.2858
   13MOL   H321 8505   3.442   4.742   1.028  0.1193  0.4571 -0.9521
   13MOL   H322 8506   3.455   4.499   0.907  0.1839 -1.2394 -3.1538
   13MOL   H323 8507   3.523   4.600   0.776 -1.1945  2.0189 -1.3363
   13MOL   H324 8508   3.314   4.746   0.817 -1.0313 -0.7813  0.8892
   13MOL   H325 8509   3.250   4.604   0.890 -1.6400 -0.8139 -2.0830
   13MOL   H326 8510   3.341   4.477   0.694  2.0922  1.5459  0.7115
   13MOL   H327 8511   3.186   4.562   0.671 -0.2085 -0.7430  2.7879
   13MOL   H328 8512   3.434   4.724   0.587 -1.5047  1.0059  0.6924
   13MOL   H329 8513   3.291   4.723   0.520  1.4652 -0.4237 -1.5677
   13MOL   H330 8514   3.314   4.522   0.401  0.9526 -0.5447  0.4608
   13MOL   H331 8515   3.475   4.489   0.465  2.1670  1.3320 -0.9920
   13MOL   H332 8516   3.382   4.745   0.325  0.1844  0.4013  0.1815
   13MOL   H333 8517   3.550   4.716   0.382 -0.4702  0.5379  1.5989
   13MOL   H334 8518   3.402   4.564   0.157 -0.0981  1.4765  0.4059
   13MOL   H335 8519   3.553   4.520   0.227 -2.4110 -2.3104 -1.0646
   13MOL   H336 8520   3.554   4.664   0.005  0.1760 -1.6595  0.6175
   13MOL   H337 8521   3.512   4.800   0.102 -2.1742 -0.3793 -0.0096
   13MOL   H338 8522   3.775   4.659   0.097 -0.2654 -0.2637  0.5525
   13MOL   H339 8523   3.726   4.687   0.255 -0.3433  1.1544  0.1011
   13MOL   H340 8524   3.720   4.925   0.247 -0.4902 -0.3628  0.8616
   13MOL   H341 8525   3.695   4.919   0.073  2.9613  2.8477  0.0192
   13MOL   N342 8526   3.988   4.883   0.217 -0.0650  0.2222  0.7656
   13MOL   C343 8527   4.134   4.865   0.191  0.1202 -0.0243  0.7502
   13MOL   C344 8528   4.167   4.720   0.142 -0.3161 -0.4258 -0.5163
   13MOL   C345 8529   4.311   4.701   0.091 -0.2919  0.6572  0.9469
   13MOL   C346 8530   4.343   4.553   0.040 -0.0340 -0.1297 -0.2478
   13MOL   C347 8531   4.474   4.550   7.679 -0.4456 -0.4591  0.2521
   13MOL   C348 8532   4.495   4.408   7.616  1.0079 -0.4731 -0.2813
   13MOL   C349 8533   4.641   4.378   7.572  0.4672 -0.0881  0.0560
   13MOL   C350 8534   4.690   4.233   7.582  0.0771  0.0389  0.0159
   13MOL   C351 8535   4.832   4.216   7.516 -0.4643  0.8033  0.1487
   13MOL   C352 8536   4.891   4.090   7.568  0.3561  0.0005  0.8079
   13MOL   C353 8537   5.039   4.073   7.521 -0.1504 -0.3396 -0.2650
   13MOL   O354 8538   5.063   4.090   7.404  0.2838 -0.0066  0.3428
   13MOL   H355 8539   3.945   4.870   0.308  2.1730 -0.9992  1.7023
   13MOL   H356 8540   4.174   4.940   0.123 -0.1881  0.0564  0.6563
   13MOL   H357 8541   4.193   4.887   0.280 -1.0601 -0.1340  1.5813
   13MOL   H358 8542   4.095   4.686   0.068  0.1297  0.4368 -1.3651
   13MOL   H359 8543   4.162   4.658   0.231 -1.6026 -1.0208 -0.9935
   13MOL   H360 8544   4.315   4.780   0.016 -0.2185  0.8448  1.1510
   13MOL   H361 8545   4.392   4.717   0.162 -0.9568  0.3109  1.7860
   13MOL   H362 8546   4.253   4.521   7.703  0.8659 -0.3641 -1.6537
   13MOL   H363 8547   4.356   4.485   0.124  1.0797 -2.7399 -2.4778
   13MOL   H364 8548   4.556   4.575   0.029 -1.3949  1.6233  0.6849
   13MOL   H365 8549   4.470   4.623   7.598 -0.7601 -0.6195  0.1213
   13MOL   H366 8550   4.473   4.340   7.699 -2.5213 -0.1444 -0.8468
   13MOL   H367 8551   4.434   4.394   7.526  0.9314 -0.1340 -0.2832
   13MOL   H368 8552   4.710   4.452   7.614  2.4928 -0.3847 -2.6553
   13MOL   H369 8553   4.658   4.408   7.469  0.9669 -0.4928  0.0169
   13MOL   H370 8554   4.697   4.208   7.688  2.9491  0.5791 -0.0058
   13MOL   H371 8555   4.612   4.180   7.527  1.9436 -0.2631 -2.4027
   13MOL   H372 8556   4.900   4.299   7.535 -0.0787  1.0443 -2.0837
   13MOL   H373 8557   4.823   4.217   7.407 -0.6160  0.7604  0.1612
   13MOL   H374 8558   4.828   4.008   7.535 -0.2312  1.3424 -1.5187
   13MOL   H375 8559   4.888   4.081   7.677 -1.1308 -0.9088  0.6956
   13MOL   N376 8560   5.133   4.065   7.609  0.0105 -0.4073  0.1157
   13MOL   C377 8561   5.280   4.048   7.579  1.1072 -0.0327 -0.0447
   13MOL   C378 8562   5.352   4.175   7.610 -0.1078 -0.4381  0.0407
   13MOL   C379 8563   5.322   4.290   7.513 -0.3690 -0.1606  0.6415
   13MOL   C380 8564   5.363   4.270   7.364 -0.3019 -0.4195  0.2158
   13MOL   C381 8565   5.395   4.404   7.306 -0.1986 -0.4324  0.5343
   13MOL   C382 8566   5.403   4.403   7.153  0.0637 -0.2686  0.4495
   13MOL   C383 8567   5.417   4.551   7.100 -0.2402  0.0270 -0.2385
   13MOL   C384 8568   5.447   4.553   6.951  0.3832  0.7909 -1.0167
   13MOL   C385 8569   5.437   4.699   6.887 -0.4243  0.1194  0.0707
   13MOL   C386 8570   5.486   4.711   6.742  0.6012  0.1259  0.4598
   13MOL   C387 8571   5.642   4.733   6.730  1.3314 -0.5239 -0.3740
   13MOL   O388 8572   5.692   4.834   6.770 -0.1144 -0.0096  0.0852
   13MOL   H389 8573   5.109   4.050   7.706  0.4139 -1.2868  0.0820
   13MOL   H390 8574   5.310   3.966   7.645  1.2945  0.0793  0.0091
   13MOL   H391 8575   5.298   4.012   7.478 -0.3040 -0.3615 -0.1909
   13MOL   H392 8576   5.458   4.153   7.610 -0.3695 -1.8860  1.6196
   13MOL   H393 8577   5.331   4.206   7.713 -1.5115  0.8585 -0.6142
   13MOL   H394 8578   5.217   4.313   7.529 -0.4275 -0.2890  0.4403
   13MOL   H395 8579   5.384   4.374   7.544  2.4226 -1.4700 -1.2240
   13MOL   H396 8580   5.275   4.230   7.314  0.7273 -2.4112 -0.0549
   13MOL   H397 8581   5.436   4.191   7.347  1.5450  1.3229 -0.1374
   13MOL   H398 8582   5.486   4.442   7.353  0.8065 -1.4145 -0.5936
   13MOL   H399 8583   5.318   4.477   7.330 -0.9052 -0.5888 -1.1277
   13MOL   H400 8584   5.496   4.356   7.120  0.7613  0.7189  0.9513
   13MOL   H401 8585   5.322   4.351   7.102 -0.3650 -1.7207  2.5492
   13MOL   H402 8586   5.500   4.603   7.148 -0.8944  1.8276 -0.9745
   13MOL   H403 8587   5.324   4.603   7.123 -0.5430  0.5099 -2.4217
   13MOL   H404 8588   5.545   4.509   6.934  0.3813  0.3126  0.1389
   13MOL   H405 8589   5.367   4.490   6.909  0.2773  0.5442 -0.4427
   13MOL   H406 8590   5.502   4.763   6.946  0.0374  1.1266 -1.4987
   13MOL   H407 8591   5.335   4.736   6.895 -1.0117 -1.6619  1.3552
   13MOL   H408 8592   5.443   4.802   6.699  1.7490  0.0459 -0.8781
   13MOL   H409 8593   5.438   4.629   6.688 -3.4409  2.9505 -0.4598
   13MOL   N410 8594   5.706   4.630   6.678 -0.0609 -0.4069 -0.5067
   13MOL   C411 8595   5.848   4.632   6.643  0.2157 -0.7415  0.5929
   13MOL   C412 8596   5.874   4.686   6.500  0.7935 -0.2723  0.1186
   13MOL   C413 8597   6.020   4.691   6.459  0.0771  0.2121  0.0144
   13MOL   C414 8598   6.044   4.739   6.312 -0.1553  0.2146 -0.2616
   13MOL   C415 8599   6.185   4.698   6.264 -0.1761 -0.4230  0.2499
   13MOL   C416 8600   6.302   4.770   6.338 -0.8075  0.3489 -0.4052
   13MOL   C417 8601   6.439   4.725   6.278  0.8558  0.2323 -0.6676
   13MOL   C418 8602   6.493   4.590   6.326 -0.1619 -0.3942 -0.2534
   13MOL   C419 8603   6.535   4.593   6.469 -0.1772  0.1615 -0.4741
   13MOL   C420 8604   6.643   4.485   6.514  0.5424 -0.1217  0.7009
   13MOL   C421 8605   6.599   4.346   6.480 -0.4788  0.7578 -0.2887
   13MOL   O422 8606   6.497   4.296   6.527 -0.5349 -0.4618  0.4110
   13MOL   H423 8607   5.647   4.558   6.640 -3.7312  1.6660  0.9840
   13MOL   H424 8608   5.907   4.697   6.707  2.1637 -1.9665  0.0797
   13MOL   H425 8609   5.879   4.527   6.647  0.6642 -0.6073  0.7037
   13MOL   H426 8610   5.851   4.793   6.501  0.0166 -0.4472  1.0775
   13MOL   H427 8611   5.809   4.637   6.427  0.3717  1.3509 -0.6329
   13MOL   H428 8612   6.072   4.756   6.530  0.6196  0.2995 -0.4499
   13MOL   H429 8613   6.064   4.592   6.467  0.6399  0.4717  0.1633
   13MOL   H430 8614   6.022   4.846   6.314 -0.9722  0.0466 -0.1269
   13MOL   H431 8615   5.978   4.697   6.237 -0.1391 -1.4281  0.6237
   13MOL   H432 8616   6.197   4.740   6.164 -1.1743 -1.1443 -0.1809
   13MOL   H433 8617   6.194   4.590   6.259  0.3336 -0.3675 -0.1340
   13MOL   H434 8618   6.286   4.877   6.323 -1.4514  0.6417  2.2106
   13MOL   H435 8619   6.293   4.755   6.445  1.0448 -2.0740 -0.5477
   13MOL   H436 8620   6.519   4.799   6.282  1.4802 -0.4681 -0.0395
   13MOL   H437 8621   6.420   4.706   6.172 -1.2319  0.0765 -0.2958
   13MOL   H438 8622   6.421   4.510   6.311  2.3764 -2.8503  0.3379
   13MOL   H439 8623   6.578   4.573   6.260  0.7244 -0.2255  0.8346
   13MOL   H440 8624   6.448   4.593   6.534 -0.4288  3.3073 -0.7436
   13MOL   H441 8625   6.580   4.689   6.495  0.6055 -0.2119 -0.4380
   13MOL   H442 8626   6.673   4.499   6.618  2.1004  2.6528 -0.0562
   13MOL   H443 8627   6.730   4.504   6.451  0.1917  1.2576  0.6242
   13MOL   N444 8628   6.689   4.276   6.403 -0.5025 -0.1077 -0.3041
   13MOL   C445 8629   6.669   4.130   6.393  0.5692  0.5570 -0.4013
   13MOL   C446 8630   6.787   4.055   6.332 -0.7689  0.3239 -0.1567
   13MOL   C447 8631   6.896   4.018   6.429 -1.2570  0.1810 -0.3532
   13MOL   C448 8632   6.972   4.138   6.483 -0.2363 -0.2298  0.1585
   13MOL   C449 8633   7.105   4.105   6.556  0.3224  0.0050  0.3499
   13MOL   C450 8634   7.173   4.226   6.617  0.1544 -0.3014 -0.3549
   13MOL   C451 8635   7.290   4.186   6.702 -0.2881  0.0204 -0.4197
   13MOL   C452 8636   7.379   4.303   6.737 -0.0898  0.0295 -0.1432
   13MOL   C453 8637   7.513   4.254   6.799 -0.2562  0.5826 -0.6533
   13MOL   C454 8638   7.590   4.376   6.855  0.3150 -0.0900 -0.2849
   13MOL   C455 8639   0.023   4.360   6.875 -0.1597 -0.4489  1.6526
   13MOL   O456 8640   0.098   4.335   6.779  0.4416  0.5812  0.2362
   13MOL   H457 8641   6.756   4.320   6.341 -1.1027  1.0922 -0.1250
   13MOL   H458 8642   6.647   4.094   6.494 -0.8649  0.6074 -0.6964
   13MOL   H459 8643   6.575   4.117   6.340 -0.0353 -2.1646  1.2302
   13MOL   H460 8644   6.833   4.100   6.244  0.2426  2.2689  1.3516
   13MOL   H461 8645   6.739   3.971   6.281  0.1765 -1.0438  1.1481
   13MOL   H462 8646   6.852   3.961   6.511  1.4462  0.0498  1.0624
   13MOL   H463 8647   6.962   3.949   6.376 -0.9151 -1.2798  1.8891
   13MOL   H464 8648   6.908   4.188   6.557 -0.4370  0.1305 -0.2603
   13MOL   H465 8649   6.989   4.216   6.409 -2.2919 -1.4445 -1.6531
   13MOL   H466 8650   7.191   4.073   6.498  1.6868 -3.6502  4.0835
   13MOL   H467 8651   7.082   4.030   6.631  0.7478  1.0604  1.5512
   13MOL   H468 8652   7.220   4.288   6.540  0.5781  1.2478  1.1307
   13MOL   H469 8653   7.098   4.281   6.674 -0.2113 -0.9162 -0.2375
   13MOL   H470 8654   7.347   4.112   6.646  1.1245  0.7623  0.0030
   13MOL   H471 8655   7.263   4.133   6.794  2.9856  1.6541  1.5866
   13MOL   H472 8656   7.395   4.374   6.657 -2.0148  1.0840  0.3602
   13MOL   H473 8657   7.319   4.349   6.816  1.5570  0.2320  1.0176
   13MOL   H474 8658   7.583   4.202   6.734 -0.8532 -1.4156  0.2750
   13MOL   H475 8659   7.499   4.187   6.883  0.4939  2.8086  1.3125
   13MOL   H476 8660   7.538   4.420   6.940  1.8927 -0.3665  0.8494
   13MOL   H477 8661   7.584   4.451   6.776 -1.3966 -0.1318 -0.2109
   13MOL   N478 8662   0.077   4.385   6.997  0.5517  0.3910 -0.0799
   13MOL   C479 8663   0.212   4.353   7.048  0.4210  0.6870  0.1310
   13MOL   C480 8664   0.210   4.212   7.119  0.3612  0.1650 -0.2345
   13MOL   C481 8665   0.345   4.165   7.180  0.5488  0.0551 -0.1003
   13MOL   C482 8666   0.392   4.248   7.305  0.1769 -0.0661  0.0365
   13MOL   C483 8667   0.308   4.229   7.437  0.1052 -0.2968 -0.2167
   13MOL   C484 8668   0.291   4.087   7.488  1.0566 -0.0717 -0.1421
   13MOL   C485 8669   0.152   4.025   7.478 -0.0793  0.0350 -0.4966
   13MOL   C486 8670   0.048   4.102   7.568 -0.1108 -0.2806  0.8041
   13MOL   C487 8671   7.657   3.993   7.615  0.2890 -0.2228 -0.2589
   13MOL   C488 8672   7.521   4.044   7.675 -0.1110 -0.0667 -0.3322
   13MOL   C489 8673   7.549   4.086   0.103 -0.3520  0.1135  0.2280
   13MOL   O490 8674   7.594   4.198   0.130  0.2332  0.0268 -0.1167
   13MOL   H491 8675   0.011   4.399   7.072  1.9373  0.7270  1.1010
   13MOL   H492 8676   0.286   4.354   6.967  0.9682  0.1879  0.6218
   13MOL   H493 8677   0.236   4.428   7.124  0.3038  2.0707 -1.1583
   13MOL   H494 8678   0.174   4.137   7.049  0.3511  0.0589 -0.1142
   13MOL   H495 8679   0.132   4.217   7.195  2.9368  2.5927  2.3905
   13MOL   H496 8680   0.353   4.062   7.214  3.1380  0.3158  0.1707
   13MOL   H497 8681   0.418   4.153   7.100  0.8747 -2.6001  0.5359
   13MOL   H498 8682   0.388   4.351   7.269  1.9716  0.6470  1.8344
   13MOL   H499 8683   0.496   4.217   7.313  0.0910 -0.6806 -1.0467
   13MOL   H500 8684   0.211   4.276   7.424  0.1394 -0.0203  0.5073
   13MOL   H501 8685   0.361   4.287   7.513  0.5797 -0.2386 -0.5839
   13MOL   H502 8686   0.367   4.029   7.435  0.5011  0.6178 -1.7100
   13MOL   H503 8687   0.321   4.086   7.593  0.6232  0.7632 -0.0045
   13MOL   H504 8688   0.168   3.924   7.514 -2.2775 -0.2162 -0.1918
   13MOL   H505 8689   0.115   4.017   7.375  1.3123 -0.1791 -0.9916
   13MOL   H506 8690   0.096   4.140   7.659 -0.6836 -1.0060  1.4140
   13MOL   H507 8691   7.713   4.183   7.514 -0.5753 -0.6293  0.7136
   13MOL   H508 8692   7.710   3.915   7.670 -0.6019  0.6553  1.8930
   13MOL   H509 8693   7.625   3.940   7.525  0.5229 -1.4753  0.3842
   13MOL   H510 8694   7.443   3.968   7.666 -2.0918  1.9607 -0.8272
   13MOL   H511 8695   7.477   4.132   7.628  0.6451 -0.2918 -1.4632
   13MOL   N512 8696   7.525   3.990   0.193 -0.4708  0.4521  0.9113
   13MOL   C513 8697   7.508   3.997   0.339  0.4680 -0.0966  0.1796
   13MOL   C514 8698   7.641   3.984   0.414 -0.2508  0.0929 -0.6743
   13MOL   C515 8699   7.633   3.944   0.559  0.2042 -0.0763  0.2317
   13MOL   C516 8700   0.052   3.897   0.619 -0.1437  0.4890 -0.2011
   13MOL   C517 8701   0.034   3.851   0.764  0.0146 -0.4043 -0.7657
   13MOL   C518 8702   0.041   3.967   0.860  0.0846  0.2592  0.8096
   13MOL   C519 8703   0.005   3.930   1.002 -0.1393  0.4509  0.4262
   13MOL   C520 8704   0.017   4.053   1.089  1.2728 -0.0105  0.4230
   13MOL   C521 8705   0.016   4.027   1.240 -0.3326 -0.3904 -1.2844
   13MOL   C522 8706   0.018   4.151   1.318 -0.1797 -0.6310  0.0448
   13MOL   C523 8707   7.670   4.147   1.459 -0.0359 -0.7735  0.5151
   13MOL   O524 8708   7.609   4.043   1.487 -0.1962  0.2883 -1.0363
   13MOL   H525 8709   7.502   3.900   0.155  0.9774  0.3875  0.1312
   13MOL   H526 8710   7.463   4.093   0.363 -1.2914 -0.2837 -2.1720
   13MOL   H527 8711   7.442   3.916   0.369  1.4691 -0.4925  1.3364
   13MOL   H528 8712   7.686   4.082   0.398  1.4038 -0.5431 -0.0035
   13MOL   H529 8713   7.714   3.928   0.354  0.2471  2.3049 -2.2269
   13MOL   H530 8714   7.603   4.033   0.614  1.7063 -0.6637  2.0668
   13MOL   H531 8715   7.555   3.870   0.579 -1.5874  2.0747  1.3440
   13MOL   H532 8716   0.128   3.973   0.606  1.6669 -1.7699 -3.3741
   13MOL   H533 8717   0.082   3.813   0.557 -1.7060  1.1923 -1.9338
   13MOL   H534 8718   0.120   3.784   0.772  0.8305  0.5757 -1.1882
   13MOL   H535 8719   7.664   3.788   0.786  1.1369 -2.5397 -2.2940
   13MOL   H536 8720   0.139   4.014   0.849 -0.7266  1.8119  0.0097
   13MOL   H537 8721   7.695   4.051   0.827  2.7597  2.4360  1.1978
   13MOL   H538 8722   0.073   3.858   1.048 -1.4163 -3.0891 -2.9347
   13MOL   H539 8723   7.629   3.871   1.008  1.1147 -1.9851 -2.7981
   13MOL   H540 8724   0.103   4.112   1.057  1.0383  0.6483  0.9740
   13MOL   H541 8725   7.645   4.110   1.060  2.0470  0.9429 -0.0939
   13MOL   H542 8726   0.098   3.961   1.270 -0.1625 -0.0566 -1.0178
   13MOL   H543 8727   7.638   3.974   1.259 -0.7667  0.5470 -0.8161
   13MOL   H544 8728   7.683   4.229   1.262 -1.4078 -0.8935  0.7610
   13MOL   H545 8729   0.120   4.189   1.324 -0.9062  1.2110  1.2468
   13MOL   N546 8730   7.677   4.256   1.529  0.1688 -0.5314 -0.3797
   13MOL   C547 8731   7.606   4.270   1.654  0.3659  0.6077 -0.0036
   13MOL   C548 8732   7.571   4.414   1.682 -0.1255 -0.9489 -0.1381
   13MOL   C549 8733   7.456   4.442   1.774 -0.4426 -0.4951  0.2585
   13MOL   C550 8734   7.393   4.576   1.734 -0.5898 -0.3371 -0.3798
   13MOL   C551 8735   7.461   4.699   1.782 -0.0546 -0.0389 -0.1607
   13MOL   C552 8736   7.383   4.824   1.729 -0.4804 -0.1071  0.5963
   13MOL   C553 8737   7.461   4.955   1.730 -0.1928 -0.4875  0.0399
   13MOL   C554 8738   7.376   5.070   1.673 -0.2282  0.5247  0.2516
   13MOL   C555 8739   7.444   5.197   1.680 -0.1624  0.0261  0.1762
   13MOL   C556 8740   7.383   5.303   1.587 -0.5625  0.2161  0.1226
   13MOL   C557 8741   7.242   5.356   1.626 -0.3659 -0.7668 -0.2331
   13MOL   O558 8742   7.214   5.372   1.745  0.1755 -0.0885  0.5403
   13MOL   H559 8743   0.007   4.337   1.491  1.8702 -0.4651  1.6939
   13MOL   H560 8744   7.509   4.220   1.646  0.2029  1.2805 -2.6746
   13MOL   H561 8745   7.664   4.220   1.732  0.2599 -1.7300 -1.3706
   13MOL   H562 8746   7.526   4.448   1.589  0.9893 -0.2664 -0.4370
   13MOL   H563 8747   7.653   4.483   1.698 -0.2280  0.1096 -3.6465
   13MOL   H564 8748   7.372   4.374   1.779 -1.5771  0.8445 -0.1893
   13MOL   H565 8749   7.486   4.449   1.878  2.2620  0.5513 -0.5418
   13MOL   H566 8750   7.293   4.586   1.775 -0.7122 -1.3739 -0.3924
   13MOL   H567 8751   7.373   4.581   1.627  0.8418 -0.0664 -0.6473
   13MOL   H568 8752   7.565   4.709   1.754  0.1991  1.8226  1.2938
   13MOL   H569 8753   7.467   4.697   1.891  0.3491 -3.4697 -0.1951
   13MOL   H570 8754   7.343   4.797   1.631  1.4198 -0.2338 -0.1754
   13MOL   H571 8755   7.296   4.845   1.791  0.2589 -0.0144  1.6212
   13MOL   H572 8756   7.547   4.953   1.663 -0.7809 -1.4342 -0.6859
   13MOL   H573 8757   7.489   4.977   1.833 -1.2531 -0.7115  0.3743
   13MOL   H574 8758   7.354   5.056   1.567 -0.3754 -0.5742  0.4216
   13MOL   H575 8759   7.286   5.076   1.734  0.1409  0.1123  0.8411
   13MOL   H576 8760   7.549   5.181   1.655 -0.1909 -1.1187  0.7754
   13MOL   H577 8761   7.437   5.241   1.779 -0.7423  1.6482 -0.5738
   13MOL   H578 8762   7.392   5.276   1.481  0.9867 -2.3961  0.8626
   13MOL   H579 8763   7.448   5.390   1.596  0.5006 -0.3132 -2.0196
   13MOL   N580 8764   7.162   5.380   1.525  0.3168  0.3043  0.0621
   13MOL   C581 8765   7.021   5.417   1.542  0.9034  0.5958  1.1129
   13MOL   C582 8766   6.934   5.299   1.562 -0.1053 -0.8325 -0.4264
   13MOL   C583 8767   6.781   5.318   1.563  0.1849  0.5646 -0.2153
   13MOL   C584 8768   6.728   5.393   1.688  0.1189  0.3658 -0.5383
   13MOL   C585 8769   6.703   5.302   1.807 -0.8483  0.1974 -0.6755
   13MOL   C586 8770   6.642   5.391   1.919 -0.0915  0.2250  0.4998
   13MOL   C587 8771   6.643   5.336   2.058  0.6934  0.4084 -0.0933
   13MOL   C588 8772   6.563   5.207   2.066 -0.8065 -0.2929  0.0574
   13MOL   C589 8773   6.500   5.183   2.208 -0.6629  0.3410 -0.9940
   13MOL   C590 8774   6.384   5.087   2.202 -0.1957 -0.3263  0.3712
   13MOL   C591 8775   6.379   4.986   2.312 -0.2026  0.8077  0.1608
   13MOL   O592 8776   6.394   5.016   2.428  0.6092  0.0260  0.2511
   13MOL   H593 8777   7.212   5.386   1.437 -0.0282  0.1232 -0.1456
   13MOL   H594 8778   6.999   5.494   1.616 -1.9072  0.1982  0.7589
   13MOL   H595 8779   6.999   5.467   1.447  0.5949 -0.5334  0.5755
   13MOL   H596 8780   6.962   5.240   1.649  0.7241 -0.2144 -0.2702
   13MOL   H597 8781   6.968   5.238   1.478  2.4454  0.2852 -0.2616
   13MOL   H598 8782   6.757   5.372   1.471 -1.8219  0.0607 -0.0007
   13MOL   H599 8783   6.735   5.220   1.552 -0.9902  1.2702 -1.7772
   13MOL   H600 8784   6.637   5.450   1.664  0.5342  1.2172 -0.1236
   13MOL   H601 8785   6.803   5.469   1.707  1.3082 -0.8852 -0.2049
   13MOL   H602 8786   6.802   5.267   1.836 -1.1516 -0.8853 -0.9471
   13MOL   H603 8787   6.639   5.216   1.787 -0.4453 -0.7135  1.7971
   13MOL   H604 8788   6.687   5.490   1.916 -1.2164  0.8011  2.0092
   13MOL   H605 8789   6.537   5.397   1.889 -0.1043  0.9120  0.6717
   13MOL   H606 8790   6.595   5.405   2.127 -1.1346  0.1586 -1.1090
   13MOL   H607 8791   6.745   5.316   2.091  0.2933  0.6090  1.2830
   13MOL   H608 8792   6.482   5.216   1.994  0.4233  4.7065 -0.8596
   13MOL   H609 8793   6.631   5.129   2.031 -1.6065 -1.0292  0.1246
   13MOL   H610 8794   6.452   5.273   2.248 -2.3107 -0.4288 -1.1984
   13MOL   H611 8795   6.564   5.159   2.293  1.3981  0.8874 -2.3574
   13MOL   H612 8796   6.370   5.039   2.105  0.7383  1.1332 -0.5126
   13MOL   H613 8797   6.289   5.139   2.205  0.3683  0.8307 -1.1202
   13MOL   N614 8798   6.376   4.857   2.276  0.2327 -0.6674  0.1691
   13MOL   C615 8799   6.411   4.742   2.357  0.0755  0.0946 -1.0453
   13MOL   C616 8800   6.365   4.609   2.295 -0.1329  0.5669 -1.1071
   13MOL   C617 8801   6.417   4.484   2.373  0.2858 -0.1670  0.6370
   13MOL   C618 8802   6.347   4.354   2.331  0.1271  0.5623  0.4697
   13MOL   C619 8803   6.367   4.231   2.420 -0.3580  0.7036 -0.0469
   13MOL   C620 8804   6.503   4.167   2.401  0.2990 -0.4220  0.4466
   13MOL   C621 8805   6.511   4.023   2.459 -0.0333 -0.3136 -0.0816
   13MOL   C622 8806   6.630   3.952   2.403 -0.3711 -0.4240 -0.2533
   13MOL   C623 8807   6.621   3.803   2.416  0.3413  0.8219  0.9712
   13MOL   C624 8808   6.591   3.738   2.556  0.0562 -0.2938  0.9111
   13MOL   C625 8809   6.718   3.736   2.646 -0.3103 -0.0797  0.3466
   13MOL   O626 8810   6.815   3.802   2.621 -0.7375 -0.4936  0.6050
   13MOL   H627 8811   6.372   4.832   2.178 -1.1420  0.5733 -0.1177
   13MOL   H628 8812   6.385   4.754   2.462  0.8245  2.8538 -1.1254
   13MOL   H629 8813   6.519   4.736   2.353  0.0845  0.2447 -1.0689
   13MOL   H630 8814   6.402   4.605   2.192  1.3265 -0.4264 -0.5599
   13MOL   H631 8815   6.257   4.602   2.284 -0.0573 -2.2644 -0.3791
   13MOL   H632 8816   6.526   4.486   2.365  0.1114  2.2292 -1.9061
   13MOL   H633 8817   6.403   4.497   2.480  2.9548 -3.1140  1.4038
   13MOL   H634 8818   6.367   4.342   2.225 -0.2732  1.0578  0.3358
   13MOL   H635 8819   6.240   4.370   2.342  0.2768  1.5552  0.4557
   13MOL   H636 8820   6.291   4.158   2.394 -0.1838  0.5320 -0.0695
   13MOL   H637 8821   6.353   4.260   2.525  0.8331 -1.1670  0.6704
   13MOL   H638 8822   6.526   4.156   2.295  0.7036 -2.1250  0.6840
   13MOL   H639 8823   6.576   4.229   2.454  0.3804  1.2521 -1.5754
   13MOL   H640 8824   6.422   3.966   2.435 -1.0231  1.2904 -0.2914
   13MOL   H641 8825   6.530   4.026   2.566 -1.1549 -0.8426  0.1327
   13MOL   H642 8826   6.637   3.965   2.296  1.6120  2.9380  0.2215
   13MOL   H643 8827   6.722   3.996   2.443  0.9677 -0.9021 -2.7076
   13MOL   H644 8828   6.705   3.749   2.372 -0.4833 -0.9090  1.4707
   13MOL   H645 8829   6.545   3.769   2.346  2.6127 -0.1853 -1.0759
   13MOL   H646 8830   6.552   3.641   2.525  3.2235 -1.0114 -1.0304
   13MOL   H647 8831   6.516   3.801   2.604 -0.1235  0.1951  0.0105
   13MOL   N648 8832   6.734   3.643   2.744 -0.3813  0.2666 -0.1720
   13MOL   C649 8833   6.854   3.610   2.817 -0.1058 -0.2735  0.4506
   13MOL   C650 8834   6.912   3.480   2.756 -0.4606 -0.4106 -0.2546
   13MOL   C651 8835   7.045   3.428   2.804  0.0305 -0.6656  0.3362
   13MOL   C652 8836   7.096   3.315   2.711  0.4201  0.0264  0.0974
   13MOL   C653 8837   7.152   3.372   2.582 -0.0251  0.0752 -0.2402
   13MOL   C654 8838   7.278   3.285   2.542  0.3913  0.1357  0.3276
   13MOL   C655 8839   7.329   3.329   2.400 -0.3588 -0.2763  0.5655
   13MOL   C656 8840   7.351   3.479   2.382  0.0506  0.1726  0.5352
   13MOL   C657 8841   7.387   3.510   2.237  0.1133 -0.2484  0.7772
   13MOL   C658 8842   7.490   3.616   2.229 -0.7427 -0.9472  0.0214
   13MOL   C659 8843   7.449   3.762   2.233 -0.1212  0.6092  0.2897
   13MOL   O660 8844   7.335   3.796   2.225 -0.2793  0.7927 -0.4888
   13MOL   H661 8845   6.655   3.582   2.759  0.6760 -0.3293  3.5439
   13MOL   H662 8846   6.830   3.587   2.921 -0.0568 -0.4075  0.4322
   13MOL   H663 8847   6.929   3.690   2.819  2.2928 -2.3531 -2.4279
   13MOL   H664 8848   6.921   3.502   2.650 -1.2544  1.0024 -0.0385
   13MOL   H665 8849   6.831   3.407   2.762 -1.2401  0.2648 -2.1491
   13MOL   H666 8850   7.120   3.506   2.817 -0.2115 -0.6618  1.8047
   13MOL   H667 8851   7.039   3.392   2.906  2.0370  0.3369  0.8401
   13MOL   H668 8852   7.014   3.247   2.687  0.1825  0.2661  0.2276
   13MOL   H669 8853   7.165   3.254   2.768  2.4728  0.1605 -2.2000
   13MOL   H670 8854   7.188   3.472   2.604 -2.6726  1.2616 -1.1932
   13MOL   H671 8855   7.080   3.376   2.500  1.8448  0.5048 -1.8922
   13MOL   H672 8856   7.348   3.282   2.625 -0.0153  1.4855  0.7433
   13MOL   H673 8857   7.250   3.180   2.532  0.9451  0.0995 -0.8830
   13MOL   H674 8858   7.257   3.284   2.331 -0.9968 -0.9556  1.6586
   13MOL   H675 8859   7.428   3.285   2.383  0.1102  0.5448  1.1386
   13MOL   H676 8860   7.261   3.530   2.417 -0.3730  1.1516 -1.8423
   13MOL   H677 8861   7.436   3.507   2.444  0.0547  0.2254  0.5068
   13MOL   H678 8862   7.308   3.533   2.165  0.0316  0.7671  1.1847
   13MOL   H679 8863   7.436   3.425   2.189 -0.5787 -0.1098 -0.1997
   13MOL   H680 8864   7.534   3.601   2.131 -1.6669 -0.5957 -0.4596
   13MOL   H681 8865   7.559   3.609   2.313 -2.2978 -2.4762  1.1948
   13MOL   H682 8866   7.526   3.838   2.240 -0.3738  0.7110  2.2351
   14MOL     N1 8867   1.296   4.945   4.024 -0.2100  0.4579 -0.0949
   14MOL     C2 8868   1.250   5.074   4.077 -0.3017 -1.0694  0.7003
   14MOL     C3 8869   1.110   5.068   4.145  0.2240 -0.1287  0.0608
   14MOL     C4 8870   1.071   5.206   4.191 -0.9771 -0.4534 -0.0031
   14MOL     C5 8871   0.935   5.211   4.265 -0.5353  0.5962 -0.3565
   14MOL     C6 8872   0.889   5.345   4.326  0.3410 -0.1176  0.4496
   14MOL     C7 8873   0.883   5.459   4.217  0.2113  0.1821 -0.0191
   14MOL     C8 8874   0.817   5.587   4.277  0.1994  0.1094  0.1687
   14MOL     C9 8875   0.752   5.683   4.165  0.0294  0.7412 -0.1933
   14MOL    C10 8876   0.632   5.761   4.219  0.0233 -0.0457 -0.0949
   14MOL    C11 8877   0.524   5.792   4.114  0.1228 -0.6780 -0.6104
   14MOL    C12 8878   0.431   5.673   4.088 -0.2296 -0.0169 -0.6835
   14MOL    O13 8879   0.348   5.639   4.165 -0.0922 -0.1939 -0.5526
   14MOL    H14 8880   1.237   4.923   3.945 -1.4113 -0.1967  0.9589
   14MOL    H15 8881   1.245   5.143   3.993 -2.6864 -1.1945  0.6993
   14MOL    H16 8882   1.317   5.126   4.145  1.2840 -0.6550 -1.1334
   14MOL    H17 8883   1.109   5.007   4.236  1.7491 -0.2499  0.0103
   14MOL    H18 8884   1.033   5.036   4.074  0.3345  0.0814 -0.1529
   14MOL    H19 8885   1.146   5.263   4.246 -0.3980 -1.8397  0.6757
   14MOL    H20 8886   1.056   5.259   4.097  0.4264 -0.1476 -0.0671
   14MOL    H21 8887   0.948   5.138   4.345 -1.6220 -0.0937 -0.8044
   14MOL    H22 8888   0.855   5.196   4.193 -0.9592  1.8223 -0.1534
   14MOL    H23 8889   0.939   5.379   4.417  0.6680  0.1199  0.1835
   14MOL    H24 8890   0.788   5.333   4.364 -0.2715  0.2147 -1.0483
   14MOL    H25 8891   0.976   5.490   4.170 -1.3886  3.4752 -1.2200
   14MOL    H26 8892   0.826   5.421   4.132 -0.2325  0.4842  0.1417
   14MOL    H27 8893   0.889   5.645   4.334  0.7632  1.3334 -1.7259
   14MOL    H28 8894   0.741   5.561   4.350  0.6753  0.0037  0.6241
   14MOL    H29 8895   0.832   5.742   4.123  2.1605 -1.0419  1.2191
   14MOL    H30 8896   0.731   5.611   4.086 -1.3189 -2.1760  2.6803
   14MOL    H31 8897   0.672   5.852   4.265  0.7080 -0.3461 -0.0951
   14MOL    H32 8898   0.578   5.721   4.305  1.7267  1.3807  1.6804
   14MOL    H33 8899   0.569   5.836   4.025 -0.6282  1.0175 -0.1819
   14MOL    H34 8900   0.478   5.880   4.160 -0.4352 -0.4925 -1.5225
   14MOL    H35 8901   1.387   4.961   3.983  1.2928 -3.7615  1.2944
   14MOL    N36 8902   0.451   5.611   3.975  0.2433 -0.2886 -0.0957
   14MOL    C37 8903   0.373   5.498   3.927 -0.1741 -0.5316  0.2408
   14MOL    C38 8904   0.450   5.404   3.838 -0.3055  0.5123 -0.4525
   14MOL    C39 8905   0.571   5.343   3.902 -0.0330  0.6854  0.2358
   14MOL    C40 8906   0.632   5.216   3.819 -0.2737  0.4004  0.2482
   14MOL    C41 8907   0.765   5.171   3.874 -0.5161  0.0740  0.1449
   14MOL    C42 8908   0.832   5.060   3.795 -0.8923  0.2447 -0.0240
   14MOL    C43 8909   0.783   4.913   3.814  0.1615 -0.2920 -0.2504
   14MOL    C44 8910   0.874   4.823   3.733  0.0123 -0.4236 -0.0205
   14MOL    C45 8911   0.997   4.786   3.812  0.3814 -0.4001 -0.5533
   14MOL    C46 8912   1.110   4.737   3.717  0.1690  0.0784 -0.1356
   14MOL    C47 8913   1.191   4.843   3.652  0.1265 -0.6505  0.1616
   14MOL    O48 8914   1.277   4.908   3.721  0.0075 -0.3011  0.2620
   14MOL    H49 8915   0.537   5.628   3.925  0.4390  0.2680  0.4229
   14MOL    H50 8916   0.324   5.451   4.012 -0.6137  0.6454  0.6470
   14MOL    H51 8917   0.295   5.544   3.866  0.4575  3.3386  2.2435
   14MOL    H52 8918   0.470   5.446   3.740  0.0005 -0.4815 -0.8172
   14MOL    H53 8919   0.391   5.317   3.810  0.3364 -0.1846  0.3040
   14MOL    H54 8920   0.649   5.418   3.915  2.0087 -1.3268 -0.1466
   14MOL    H55 8921   0.552   5.309   4.004 -0.0782  1.4801  0.4955
   14MOL    H56 8922   0.647   5.257   3.719 -0.4794  2.1962  0.9388
   14MOL    H57 8923   0.565   5.130   3.807  0.0316  0.2589 -0.4920
   14MOL    H58 8924   0.740   5.137   3.975  0.2455  0.0201  0.3172
   14MOL    H59 8925   0.821   5.265   3.871  1.7735 -1.2240  1.2365
   14MOL    H60 8926   0.833   5.084   3.689  1.3249  0.7593  0.1012
   14MOL    H61 8927   0.938   5.073   3.815  0.0048 -2.0652 -2.8080
   14MOL    H62 8928   0.686   4.909   3.765  0.0177  1.6170 -0.1648
   14MOL    H63 8929   0.775   4.881   3.917  3.0265  1.8523  0.7152
   14MOL    H64 8930   0.805   4.740   3.715 -1.4527  0.6894  0.2894
   14MOL    H65 8931   0.897   4.868   3.636  0.7164 -1.5633 -0.3902
   14MOL    H66 8932   0.964   4.708   3.881 -0.4054  0.7024  0.3267
   14MOL    H67 8933   1.030   4.859   3.885  0.7059 -1.7981  0.7402
   14MOL    H68 8934   1.057   4.676   3.644  1.3121 -0.7783 -0.2801
   14MOL    H69 8935   1.181   4.671   3.767 -0.7002  0.2285  1.3044
   14MOL    N70 8936   1.169   4.874   3.524 -0.0918  0.0808  0.5791
   14MOL    C71 8937   1.196   4.993   3.451 -0.0442  0.2945 -0.2055
   14MOL    C72 8938   1.102   5.098   3.495 -0.3592  0.3752 -0.4184
   14MOL    C73 8939   1.113   5.225   3.409 -0.4652 -0.1415 -0.5023
   14MOL    C74 8940   0.999   5.319   3.444  0.0209 -0.3714  0.6845
   14MOL    C75 8941   0.984   5.430   3.342  0.4764  0.4711 -1.2046
   14MOL    C76 8942   0.851   5.500   3.374 -0.0592  0.4590  0.2684
   14MOL    C77 8943   0.809   5.591   3.262  0.2530 -0.7250 -0.2568
   14MOL    C78 8944   0.727   5.519   3.153  0.1846  0.4183 -0.2354
   14MOL    C79 8945   0.639   5.619   3.077  0.2907  0.5006  0.1889
   14MOL    C80 8946   0.553   5.546   2.972 -0.1184 -1.0189  0.2770
   14MOL    C81 8947   0.632   5.495   2.855  0.2543 -0.6679 -0.1534
   14MOL    O82 8948   0.640   5.563   2.754 -0.0121  0.2471  0.2075
   14MOL    H83 8949   1.091   4.818   3.493 -1.5943  2.2629  0.3242
   14MOL    H84 8950   1.303   5.015   3.455  0.0795 -0.1550 -0.9156
   14MOL    H85 8951   1.176   4.971   3.347  0.8178  0.9188 -0.5090
   14MOL    H86 8952   1.112   5.123   3.601 -1.8042  2.6001 -0.7850
   14MOL    H87 8953   1.002   5.055   3.483 -0.1582 -0.3273  0.4158
   14MOL    H88 8954   1.211   5.268   3.426 -0.1723 -1.4864  1.4029
   14MOL    H89 8955   1.108   5.202   3.303  1.1151 -0.6092 -0.4813
   14MOL    H90 8956   1.012   5.374   3.537 -0.4881  2.2189 -0.7244
   14MOL    H91 8957   0.913   5.253   3.452  0.3343 -0.7776  0.7524
   14MOL    H92 8958   0.967   5.378   3.248  2.0942 -1.2969 -0.5398
   14MOL    H93 8959   1.069   5.497   3.332  1.5099 -0.2977  1.8916
   14MOL    H94 8960   0.773   5.431   3.408  0.0976  0.2004  0.1090
   14MOL    H95 8961   0.880   5.578   3.445 -0.0437  0.2163  0.5329
   14MOL    H96 8962   0.892   5.646   3.217  0.4038  1.1979  2.2611
   14MOL    H97 8963   0.758   5.677   3.306  1.3431 -1.3047  2.2236
   14MOL    H98 8964   0.784   5.449   3.092 -1.6950  0.2222 -1.8499
   14MOL    H99 8965   0.663   5.454   3.213 -0.4089  1.3301  0.1346
   14MOL   H100 8966   0.702   5.691   3.025 -1.1565  0.1210 -2.1695
   14MOL   H101 8967   0.584   5.674   3.153 -1.9806 -2.0757  0.4538
   14MOL   H102 8968   0.469   5.606   2.939 -1.0954 -1.3211  2.1300
   14MOL   H103 8969   0.516   5.457   3.023  0.6577 -0.7554  1.3252
   14MOL   N104 8970   0.683   5.371   2.865 -0.5044 -0.4270  0.0416
   14MOL   C105 8971   0.743   5.291   2.761 -0.3465 -0.0836 -0.0023
   14MOL   C106 8972   0.883   5.332   2.722  0.6594  0.0999  0.1556
   14MOL   C107 8973   0.931   5.245   2.610 -0.3112  0.5183  0.2827
   14MOL   C108 8974   1.073   5.282   2.551  0.1133 -0.2148  0.3448
   14MOL   C109 8975   1.108   5.179   2.441  0.4030  0.2058 -0.1687
   14MOL   C110 8976   1.218   5.222   2.341  0.8375  0.9163  0.0067
   14MOL   C111 8977   1.369   5.257   2.384  0.0743 -0.1929  0.7979
   14MOL   C112 8978   1.464   5.297   2.268  0.1738  0.5129 -0.1651
   14MOL   C113 8979   1.612   5.285   2.307 -0.2110  1.0619 -1.5973
   14MOL   C114 8980   1.711   5.305   2.193 -0.3874  0.5872 -0.4002
   14MOL   C115 8981   1.738   5.446   2.144  0.1551 -0.2915 -0.2717
   14MOL   O116 8982   1.757   5.541   2.226 -0.4445 -0.2477  0.3225
   14MOL   H117 8983   0.683   5.320   2.952  2.7507  1.4519  1.2797
   14MOL   H118 8984   0.736   5.187   2.793 -1.8427  0.3690  1.1905
   14MOL   H119 8985   0.689   5.287   2.666 -0.4916 -1.1393  0.1105
   14MOL   H120 8986   0.955   5.321   2.803  0.7912 -1.4708 -0.1522
   14MOL   H121 8987   0.886   5.436   2.689  3.1949 -0.6397 -2.1798
   14MOL   H122 8988   0.931   5.137   2.626  0.9792  0.6421  1.2287
   14MOL   H123 8989   0.863   5.262   2.527  1.0792  1.4445 -0.6980
   14MOL   H124 8990   1.138   5.285   2.639 -1.1346 -0.6375  1.3021
   14MOL   H125 8991   1.061   5.378   2.501  0.1771  0.4708  1.6233
   14MOL   H126 8992   1.013   5.167   2.389  1.5820 -2.0805 -1.8995
   14MOL   H127 8993   1.141   5.087   2.489  3.7813  0.5591 -1.6410
   14MOL   H128 8994   1.225   5.143   2.267 -0.1327  1.2211 -0.4235
   14MOL   H129 8995   1.191   5.314   2.289  1.9243  1.6981  0.8058
   14MOL   H130 8996   1.418   5.176   2.438 -1.0002 -0.3660  1.5236
   14MOL   H131 8997   1.364   5.342   2.453 -2.8600  0.5800 -0.2940
   14MOL   H132 8998   1.446   5.232   2.182  0.4517  1.0682 -0.6462
   14MOL   H133 8999   1.436   5.397   2.235  0.5325 -0.2082 -2.8174
   14MOL   H134 9000   1.639   5.190   2.352 -1.7715  0.8882 -0.9806
   14MOL   H135 9001   1.622   5.365   2.380  0.9416 -0.4589 -0.0430
   14MOL   H136 9002   1.661   5.254   2.110 -1.4509  0.5682  0.2442
   14MOL   H137 9003   1.804   5.249   2.202 -0.0845  1.2773  0.8434
   14MOL   N138 9004   1.724   5.464   2.017  0.4411  0.3172 -0.1462
   14MOL   C139 9005   1.701   5.595   1.955 -0.3483  0.3853  0.3312
   14MOL   C140 9006   1.754   5.592   1.806 -0.1039 -0.5772  0.0971
   14MOL   C141 9007   1.697   5.699   1.714  0.1518  0.4210 -0.9842
   14MOL   C142 9008   1.778   5.832   1.739  0.2297  0.0940 -0.0411
   14MOL   C143 9009   1.725   5.949   1.656  0.6425 -0.3215 -0.0227
   14MOL   C144 9010   1.802   6.078   1.685 -0.0140 -0.5002  1.4929
   14MOL   C145 9011   1.759   6.181   1.573  0.2309 -0.6018 -0.3270
   14MOL   C146 9012   1.816   6.325   1.579  0.4546  0.2878  0.2663
   14MOL   C147 9013   1.965   6.331   1.551 -0.7494 -0.4151  0.8061
   14MOL   C148 9014   2.005   6.478   1.547  0.4620  0.2473 -0.2963
   14MOL   C149 9015   2.137   6.519   1.615  0.1374 -0.6714 -0.0808
   14MOL   O150 9016   2.200   6.437   1.675 -0.1073 -0.4746  0.1196
   14MOL   H151 9017   1.703   5.384   1.959  1.7042  1.6061 -2.4241
   14MOL   H152 9018   1.595   5.619   1.968 -0.2172  0.3093  1.5642
   14MOL   H153 9019   1.759   5.672   2.005 -1.0556  0.9546  0.2942
   14MOL   H154 9020   1.722   5.498   1.761  2.3926 -1.1800 -0.4819
   14MOL   H155 9021   1.862   5.597   1.804 -0.1458  0.5781  0.3891
   14MOL   H156 9022   1.715   5.671   1.610 -1.8601  1.1915 -1.5763
   14MOL   H157 9023   1.591   5.713   1.732  0.9749  2.1111  3.0449
   14MOL   H158 9024   1.883   5.806   1.725  0.3301 -0.5720  1.7074
   14MOL   H159 9025   1.764   5.864   1.843  0.7049 -1.5332  0.5426
   14MOL   H160 9026   1.620   5.963   1.683  0.5946  1.6141 -1.1338
   14MOL   H161 9027   1.725   5.927   1.549  1.5981  1.2230 -0.3554
   14MOL   H162 9028   1.774   6.100   1.788 -2.7673  0.2837  0.6311
   14MOL   H163 9029   1.909   6.057   1.691  0.0917 -0.5906 -0.2398
   14MOL   H164 9030   1.650   6.184   1.573  0.2015 -0.7241  2.5503
   14MOL   H165 9031   1.768   6.133   1.476  1.9346 -0.6205 -0.1765
   14MOL   H166 9032   1.756   6.391   1.517  1.5762  1.2488  0.1805
   14MOL   H167 9033   1.813   6.368   1.679  0.7441 -0.1323  0.4611
   14MOL   H168 9034   1.987   6.282   1.456 -1.9673 -0.5893  0.5985
   14MOL   H169 9035   2.032   6.271   1.611 -1.3380 -0.4612  1.4223
   14MOL   H170 9036   1.934   6.541   1.601  0.6047  0.2170 -0.0755
   14MOL   H171 9037   2.006   6.512   1.443 -1.1574  1.0047 -0.0851
   14MOL   N172 9038   2.183   6.648   1.598  0.0934  0.2378  0.4848
   14MOL   C173 9039   2.315   6.690   1.643 -0.3858 -0.0328 -0.8990
   14MOL   C174 9040   2.327   6.692   1.797 -0.4039 -0.3150  0.4829
   14MOL   C175 9041   2.458   6.751   1.843  0.1392  0.2561  0.1175
   14MOL   C176 9042   2.455   6.793   1.984 -0.1881 -0.3186 -0.1069
   14MOL   C177 9043   2.589   6.751   2.061  0.8572 -0.7888  0.1302
   14MOL   C178 9044   2.618   6.603   2.074  0.5905 -0.1133  0.7760
   14MOL   C179 9045   2.755   6.594   2.138 -0.8885 -0.2180  0.4423
   14MOL   C180 9046   2.832   6.463   2.135  0.6437  0.1574 -0.4578
   14MOL   C181 9047   2.928   6.449   2.013  0.1487  0.6526 -0.0899
   14MOL   C182 9048   3.020   6.323   2.022  0.1344 -0.5208 -0.4212
   14MOL   C183 9049   3.116   6.308   1.904 -1.0631 -0.8225 -0.1018
   14MOL   O184 9050   3.116   6.376   1.805 -0.2656 -0.6884 -0.4584
   14MOL   H185 9051   2.128   6.715   1.546 -1.7638 -2.9239 -1.7599
   14MOL   H186 9052   2.393   6.621   1.610  0.6028  1.4504 -1.7234
   14MOL   H187 9053   2.351   6.790   1.619 -0.1860  0.4945  1.4557
   14MOL   H188 9054   2.315   6.592   1.839  3.1181 -0.9414  0.1944
   14MOL   H189 9055   2.243   6.750   1.835 -0.1647 -1.6767  3.1767
   14MOL   H190 9056   2.538   6.681   1.818 -0.0763 -0.1700  0.6128
   14MOL   H191 9057   2.482   6.839   1.784  2.7163 -0.2128  0.4122
   14MOL   H192 9058   2.387   6.734   2.045 -0.8106  0.3933 -0.0975
   14MOL   H193 9059   2.427   6.897   2.001  0.2836 -0.3650  1.0070
   14MOL   H194 9060   2.596   6.792   2.161  0.8787 -3.9022  1.4772
   14MOL   H195 9061   2.673   6.808   2.021 -0.6001  1.9721  0.9456
   14MOL   H196 9062   2.544   6.566   2.145 -0.0704 -1.3622 -0.5227
   14MOL   H197 9063   2.609   6.541   1.985  0.4793  0.7982  0.1468
   14MOL   H198 9064   2.746   6.623   2.242  0.9234  1.7733  0.0851
   14MOL   H199 9065   2.810   6.681   2.101 -1.3831  0.3860  1.1237
   14MOL   H200 9066   2.896   6.473   2.223 -2.0404  0.6342  1.4787
   14MOL   H201 9067   2.774   6.374   2.156 -1.3339  1.5887  0.3267
   14MOL   H202 9068   3.004   6.527   2.008  0.9729 -0.2103 -1.2886
   14MOL   H203 9069   2.885   6.451   1.912  0.8650  0.3284 -0.4044
   14MOL   H204 9070   2.951   6.239   2.032 -1.2103  0.3476 -2.0666
   14MOL   H205 9071   3.077   6.333   2.114 -1.3746 -1.2883  0.6106
   14MOL   N206 9072   3.201   6.205   1.922 -0.3049 -0.7177  0.1278
   14MOL   C207 9073   3.301   6.167   1.828 -0.7554 -0.1764  1.1524
   14MOL   C208 9074   3.370   6.039   1.876  0.1533 -0.2751  0.0540
   14MOL   C209 9075   3.445   5.983   1.751 -0.4952 -0.6356  0.0703
   14MOL   C210 9076   3.535   5.860   1.782 -0.7586  1.3066  0.3415
   14MOL   C211 9077   3.630   5.819   1.665 -0.5288  0.0873  0.1390
   14MOL   C212 9078   3.714   5.688   1.693  0.0330 -0.0768 -0.9724
   14MOL   C213 9079   3.822   5.641   1.593  0.2768 -0.8220  0.1592
   14MOL   C214 9080   3.927   5.541   1.649  0.2220  0.2371  1.1280
   14MOL   C215 9081   4.031   5.493   1.548 -0.0984 -0.6527  0.0548
   14MOL   C216 9082   4.120   5.378   1.588  0.3151  0.8852 -0.3094
   14MOL   C217 9083   4.245   5.348   1.500 -0.0640  0.6511 -0.3112
   14MOL   O218 9084   4.318   5.447   1.465 -0.5538 -0.7032 -0.5467
   14MOL   H219 9085   3.182   6.139   1.996 -2.0883  0.5644  0.8471
   14MOL   H220 9086   3.373   6.248   1.822 -0.6503 -0.3987 -1.2416
   14MOL   H221 9087   3.267   6.141   1.727  3.1779 -1.2530  0.0264
   14MOL   H222 9088   3.299   5.965   1.912 -1.3052 -1.5301 -5.0914
   14MOL   H223 9089   3.442   6.068   1.953  0.3128  2.9119 -1.2069
   14MOL   H224 9090   3.380   5.956   1.668 -0.3430  0.0022 -0.2554
   14MOL   H225 9091   3.513   6.059   1.714 -1.0216 -0.5010 -0.6169
   14MOL   H226 9092   3.460   5.782   1.801  2.7661 -2.4301 -0.2627
   14MOL   H227 9093   3.584   5.867   1.878 -4.1748  0.5782  2.2414
   14MOL   H228 9094   3.700   5.902   1.664 -1.0929  0.5582 -0.9973
   14MOL   H229 9095   3.571   5.810   1.573  1.4560 -0.9119 -1.0692
   14MOL   H230 9096   3.749   5.718   1.792 -1.7557 -0.3845 -0.2191
   14MOL   H231 9097   3.632   5.617   1.703  1.1239 -1.4383 -1.4685
   14MOL   H232 9098   3.877   5.723   1.546 -0.1996  1.0428  2.6823
   14MOL   H233 9099   3.772   5.605   1.503 -1.2973  0.4350  0.4877
   14MOL   H234 9100   3.974   5.597   1.730  1.6226 -1.0655  1.2264
   14MOL   H235 9101   3.884   5.453   1.696  0.7836 -0.0323  1.1304
   14MOL   H236 9102   4.102   5.575   1.539 -1.0796  0.0923 -1.1709
   14MOL   H237 9103   3.985   5.477   1.450  1.4898  1.9482 -1.1765
   14MOL   H238 9104   4.064   5.287   1.612 -2.5742  3.5058  3.5489
   14MOL   H239 9105   4.166   5.399   1.684  1.6511  0.7943 -0.9277
   14MOL   N240 9106   4.266   5.225   1.449 -0.0475  0.2674  0.2737
   14MOL   C241 9107   4.386   5.173   1.394 -0.1296 -0.2057  0.1546
   14MOL   C242 9108   4.368   5.033   1.337 -0.6928  0.2285  0.1639
   14MOL   C243 9109   4.491   4.970   1.276  0.4410  0.4645 -0.0828
   14MOL   C244 9110   4.513   4.819   1.312 -0.0552  0.0661 -0.3853
   14MOL   C245 9111   4.580   4.788   1.445  0.3375 -0.2301 -0.2416
   14MOL   C246 9112   4.590   4.635   1.485  0.0297 -0.2750  0.2397
   14MOL   C247 9113   4.462   4.559   1.471  0.2342 -0.1091  0.0199
   14MOL   C248 9114   4.350   4.576   1.580  0.2939 -0.3861  0.7902
   14MOL   C249 9115   4.273   4.710   1.561 -0.1757 -0.0799 -0.2336
   14MOL   C250 9116   4.182   4.732   1.680 -0.3625 -0.1554 -0.1439
   14MOL   C251 9117   4.123   4.883   1.688  0.3190  0.7734 -0.3807
   14MOL   O252 9118   4.140   4.961   1.596  0.0320 -0.0263 -0.0752
   14MOL   H253 9119   4.202   5.154   1.482  1.1815 -0.5469  0.9303
   14MOL   H254 9120   4.455   5.173   1.478  0.4759 -0.9352 -0.3406
   14MOL   H255 9121   4.413   5.243   1.316 -3.2446  0.8076 -0.0661
   14MOL   H256 9122   4.292   5.028   1.259  1.4701 -1.4617 -1.9162
   14MOL   H257 9123   4.328   4.974   1.419  2.8485 -0.7290  1.3305
   14MOL   H258 9124   4.477   4.985   1.169 -1.4765 -0.5908 -0.0122
   14MOL   H259 9125   4.573   5.030   1.315  1.3067 -0.2975 -0.7458
   14MOL   H260 9126   4.582   4.777   1.239 -1.0443 -1.8296 -0.2619
   14MOL   H261 9127   4.419   4.765   1.300 -0.0265 -0.2005  0.5626
   14MOL   H262 9128   4.529   4.846   1.522  0.7542  0.9180 -0.8139
   14MOL   H263 9129   4.680   4.832   1.437  0.5264 -0.3543  1.3241
   14MOL   H264 9130   4.653   4.574   1.420  1.8811  0.7139  1.0600
   14MOL   H265 9131   4.624   4.633   1.589 -0.1473 -1.2298  0.2791
   14MOL   H266 9132   4.493   4.455   1.464  0.3053 -0.1189  0.4615
   14MOL   H267 9133   4.421   4.563   1.370  0.7361 -2.3661 -0.3078
   14MOL   H268 9134   4.282   4.490   1.577 -0.5358  0.2636  0.8343
   14MOL   H269 9135   4.389   4.578   1.682  1.4631 -3.5208  0.4592
   14MOL   H270 9136   4.206   4.702   1.476  1.0422  1.0970 -1.3388
   14MOL   H271 9137   4.336   4.798   1.544 -1.8304  1.2662  0.4411
   14MOL   H272 9138   4.230   4.710   1.776  1.7481  2.2372 -0.5808
   14MOL   H273 9139   4.102   4.658   1.673  0.3748 -1.2762  2.5214
   14MOL   N274 9140   4.071   4.921   1.806 -0.5134 -0.3855  0.4582
   14MOL   C275 9141   3.997   5.043   1.828  0.3048  0.4151 -0.1992
   14MOL   C276 9142   3.961   5.049   1.985  0.1249 -0.3724 -0.3190
   14MOL   C277 9143   3.880   5.174   2.021  0.0957  0.4257 -1.2220
   14MOL   C278 9144   3.758   5.197   1.928  0.1537  0.0153 -0.1816
   14MOL   C279 9145   3.678   5.322   1.969  0.4773  0.1627  0.0634
   14MOL   C280 9146   3.539   5.318   1.900  0.4059 -0.4473  0.3203
   14MOL   C281 9147   3.445   5.422   1.955 -0.0650 -0.1145  0.0256
   14MOL   C282 9148   3.304   5.402   1.898 -0.1884  0.9160 -0.0386
   14MOL   C283 9149   3.195   5.497   1.957 -0.1710 -0.3840 -0.8708
   14MOL   C284 9150   3.199   5.647   1.912  0.1675  0.2274 -0.3046
   14MOL   C285 9151   3.067   5.716   1.883  1.3823  1.2928 -0.7076
   14MOL   O286 9152   2.981   5.714   1.970 -0.5057 -0.2200  0.4167
   14MOL   H287 9153   4.069   4.847   1.875 -0.4306 -1.8094 -1.0151
   14MOL   H288 9154   3.905   5.040   1.770  2.3666 -0.8489 -3.6113
   14MOL   H289 9155   4.064   5.129   1.818 -0.4911  1.1216  0.4920
   14MOL   H290 9156   4.051   5.058   2.045 -0.1634  2.7701 -0.3067
   14MOL   H291 9157   3.898   4.964   2.012 -0.7922  0.1874 -0.6753
   14MOL   H292 9158   3.834   5.155   2.118 -1.8543 -0.1879 -2.2362
   14MOL   H293 9159   3.948   5.259   2.024  0.6199  0.0337 -1.9496
   14MOL   H294 9160   3.690   5.112   1.923  0.3204 -0.1619  0.5580
   14MOL   H295 9161   3.791   5.224   1.828 -1.0355 -0.0035 -0.5897
   14MOL   H296 9162   3.733   5.410   1.937 -2.0010  0.8941 -2.3499
   14MOL   H297 9163   3.672   5.332   2.077  2.0526 -0.7740  0.2563
   14MOL   H298 9164   3.556   5.327   1.793  1.4817 -1.9722  0.3457
   14MOL   H299 9165   3.502   5.216   1.913 -3.8458  0.7764 -1.3953
   14MOL   H300 9166   3.481   5.518   1.918  1.2464  0.3986  2.5265
   14MOL   H301 9167   3.447   5.429   2.064 -1.0005  0.8387 -0.0079
   14MOL   H302 9168   3.294   5.394   1.790 -1.6469 -2.6490  0.3057
   14MOL   H303 9169   3.278   5.301   1.931  1.6543  0.6415  0.6520
   14MOL   H304 9170   3.215   5.504   2.064 -0.1316  0.3269 -0.9198
   14MOL   H305 9171   3.097   5.451   1.945  0.7536 -2.4874 -0.5097
   14MOL   H306 9172   3.260   5.654   1.822 -1.1129  2.0548 -1.0620
   14MOL   H307 9173   3.244   5.704   1.993  0.4271 -1.9435  1.1242
   14MOL   N308 9174   3.044   5.764   1.759 -0.1815  0.2673 -0.7198
   14MOL   C309 9175   2.945   5.871   1.722 -0.7194  0.7403 -0.0407
   14MOL   C310 9176   2.828   5.824   1.640 -0.3249  0.3308  0.8833
   14MOL   C311 9177   2.749   5.709   1.698 -0.1612 -0.0358 -0.3658
   14MOL   C312 9178   2.627   5.671   1.615  0.0234  0.3776  0.7273
   14MOL   C313 9179   2.544   5.564   1.686  0.5225  0.4347 -0.4347
   14MOL   C314 9180   2.405   5.537   1.613 -0.5505  0.8188  0.4965
   14MOL   C315 9181   2.314   5.441   1.691  0.3066  0.5878 -0.5000
   14MOL   C316 9182   2.197   5.384   1.607 -0.2245  0.4756  0.3502
   14MOL   C317 9183   2.076   5.483   1.591  0.8254 -0.7184  0.4617
   14MOL   C318 9184   1.942   5.431   1.533 -0.2742 -0.2748  0.3503
   14MOL   C319 9185   1.929   5.414   1.382  0.6717  0.2957 -0.0612
   14MOL   O320 9186   2.033   5.419   1.310  0.4190 -0.0584  0.1410
   14MOL   H321 9187   3.122   5.759   1.695  0.0550 -0.9695 -0.3524
   14MOL   H322 9188   2.995   5.956   1.677  0.7856 -0.1706 -0.1214
   14MOL   H323 9189   2.905   5.910   1.816  1.1683  0.5479  0.8681
   14MOL   H324 9190   2.860   5.788   1.542 -0.1430  1.3084  0.5757
   14MOL   H325 9191   2.758   5.898   1.602 -0.4724 -0.6947 -0.8781
   14MOL   H326 9192   2.818   5.625   1.695  0.9972  0.6870  3.4372
   14MOL   H327 9193   2.733   5.725   1.805 -0.0727  0.7292 -0.4660
   14MOL   H328 9194   2.653   5.638   1.514  0.4850  2.3344  0.1772
   14MOL   H329 9195   2.562   5.757   1.598 -2.2679 -1.0730  1.9504
   14MOL   H330 9196   2.536   5.583   1.793 -2.3118  0.3985 -0.5854
   14MOL   H331 9197   2.600   5.471   1.685 -1.0376 -0.5415  0.1267
   14MOL   H332 9198   2.360   5.634   1.592 -1.1913  0.3401 -0.3605
   14MOL   H333 9199   2.426   5.503   1.512 -0.2897  1.2731  0.3952
   14MOL   H334 9200   2.286   5.478   1.789 -0.6513  0.5635 -0.7532
   14MOL   H335 9201   2.381   5.356   1.702  1.0868  1.3066  0.3408
   14MOL   H336 9202   2.235   5.362   1.507  0.1826  0.5573  0.4884
   14MOL   H337 9203   2.154   5.286   1.629 -1.7574  1.1934  0.5834
   14MOL   H338 9204   2.114   5.561   1.525  1.6411 -1.3852  0.1223
   14MOL   H339 9205   2.050   5.524   1.688 -2.7524  2.2768 -1.6492
   14MOL   H340 9206   1.864   5.498   1.569 -2.6470 -2.3709 -0.6768
   14MOL   H341 9207   1.932   5.331   1.576  1.5412 -0.8270 -0.4687
   14MOL   N342 9208   1.805   5.418   1.336 -0.0569  0.1459  0.1481
   14MOL   C343 9209   1.777   5.406   1.196 -0.2455 -0.0685 -0.5570
   14MOL   C344 9210   1.698   5.527   1.151 -0.0111  0.3101  0.2146
   14MOL   C345 9211   1.676   5.526   0.998 -0.0968  0.5339  0.4040
   14MOL   C346 9212   1.590   5.644   0.960  0.2630  0.4242 -0.2807
   14MOL   C347 9213   1.547   5.653   0.817  0.1269  0.3868  0.6290
   14MOL   C348 9214   1.459   5.778   0.778  0.2990  0.0833 -0.1291
   14MOL   C349 9215   1.454   5.808   0.630  0.4113  0.2327  0.2116
   14MOL   C350 9216   1.378   5.698   0.547 -0.0847  0.4203 -0.5239
   14MOL   C351 9217   1.378   5.719   0.395  0.9263 -0.0470  0.1557
   14MOL   C352 9218   1.287   5.614   0.331  0.7317 -0.1331  0.0024
   14MOL   C353 9219   1.140   5.661   0.299  0.5109  0.0118 -0.4963
   14MOL   O354 9220   1.080   5.745   0.368  0.2370  0.4444  0.2179
   14MOL   H355 9221   1.730   5.433   1.402 -1.3022  2.5812 -1.7674
   14MOL   H356 9222   1.864   5.392   1.132  0.1749  0.8862 -0.1899
   14MOL   H357 9223   1.723   5.313   1.175  1.8268 -1.4717  0.2273
   14MOL   H358 9224   1.733   5.626   1.181 -1.6813  1.0170 -0.1510
   14MOL   H359 9225   1.599   5.518   1.195 -0.0103 -0.9589 -0.0163
   14MOL   H360 9226   1.774   5.535   0.951 -0.1041  0.1641  0.3161
   14MOL   H361 9227   1.622   5.439   0.963 -0.2428 -0.3272  2.6371
   14MOL   H362 9228   1.636   5.741   0.981 -2.9699  1.4142  2.5304
   14MOL   H363 9229   1.507   5.637   1.029  1.2141 -2.5293  0.6173
   14MOL   H364 9230   1.498   5.561   0.785  1.9737 -0.9523  1.5432
   14MOL   H365 9231   1.637   5.665   0.757  0.3230 -2.2283  0.3158
   14MOL   H366 9232   1.361   5.764   0.824  0.9977 -1.3191  0.9924
   14MOL   H367 9233   1.505   5.865   0.825  0.1875  0.8080 -1.3419
   14MOL   H368 9234   1.551   5.831   0.586 -0.0846 -0.5315 -1.3256
   14MOL   H369 9235   1.396   5.900   0.622  1.1210  0.7552  1.0211
   14MOL   H370 9236   1.427   5.601   0.562 -1.1845 -0.3896 -2.0525
   14MOL   H371 9237   1.273   5.696   0.576  0.0450  2.9150  0.2046
   14MOL   H372 9238   1.481   5.702   0.364 -0.0767 -1.5647 -2.5315
   14MOL   H373 9239   1.345   5.821   0.378  1.8411  0.4631  1.4180
   14MOL   H374 9240   1.276   5.522   0.388  1.9792  0.4091  1.1412
   14MOL   H375 9241   1.333   5.589   0.235 -1.2239  0.9452 -1.2608
   14MOL   N376 9242   1.091   5.596   0.197 -0.5002 -0.1218 -0.2641
   14MOL   C377 9243   0.950   5.621   0.150  0.5208  0.0139 -0.0363
   14MOL   C378 9244   0.942   5.744   0.054  0.9173 -0.7143 -0.0494
   14MOL   C379 9245   1.035   5.727   7.647 -0.0367  0.4728  1.2131
   14MOL   C380 9246   1.008   5.601   7.566 -0.1780  0.2423  0.0802
   14MOL   C381 9247   1.095   5.621   7.437  0.1004 -0.0264 -0.2958
   14MOL   C382 9248   1.085   5.502   7.345  0.3302  0.2579 -0.6879
   14MOL   C383 9249   1.193   5.498   7.233 -0.5613  0.4290 -0.1571
   14MOL   C384 9250   1.219   5.637   7.166  0.1640 -0.5206 -0.0017
   14MOL   C385 9251   1.097   5.700   7.098 -0.2759  0.1207 -0.2918
   14MOL   C386 9252   1.126   5.837   7.037  0.0357  0.0214  0.3468
   14MOL   C387 9253   1.167   5.951   7.133  0.1725  0.7548 -0.4249
   14MOL   O388 9254   1.084   5.999   7.213  0.2412  0.2082  0.7120
   14MOL   H389 9255   1.146   5.537   0.137  1.6109 -0.9052  2.3392
   14MOL   H390 9256   0.902   5.538   0.098 -0.1258 -0.0308  0.6201
   14MOL   H391 9257   0.875   5.626   0.229 -1.8456 -2.4220 -2.0345
   14MOL   H392 9258   0.970   5.837   0.105  0.4941 -0.6101 -0.0078
   14MOL   H393 9259   0.841   5.756   0.017  0.4180 -0.6685  1.2949
   14MOL   H394 9260   1.014   5.814   7.584 -1.1573  0.8340  2.0786
   14MOL   H395 9261   1.140   5.723   7.673  0.4513 -3.4234 -0.9531
   14MOL   H396 9262   0.901   5.595   7.546 -0.2619  0.5819  0.4110
   14MOL   H397 9263   1.031   5.510   7.621 -0.2961  0.4304  0.4394
   14MOL   H398 9264   1.199   5.633   7.469 -0.6213  1.2716  1.6615
   14MOL   H399 9265   1.079   5.719   7.393  1.5241  0.6986  0.7386
   14MOL   H400 9266   1.094   5.406   7.395 -2.8924  0.9036  1.1989
   14MOL   H401 9267   0.984   5.508   7.305 -0.0357  0.2736  0.2474
   14MOL   H402 9268   1.166   5.423   7.159 -1.9542  1.2329 -0.4805
   14MOL   H403 9269   1.284   5.458   7.278 -0.7033  2.0300  1.6602
   14MOL   H404 9270   1.265   5.710   7.232  0.3205 -0.3877 -0.2562
   14MOL   H405 9271   1.291   5.606   7.090 -1.7568 -2.4878 -1.1077
   14MOL   H406 9272   1.019   5.716   7.172 -0.0251  0.4092 -0.0928
   14MOL   H407 9273   1.054   5.624   7.032  0.6153 -1.8397  1.3329
   14MOL   H408 9274   1.034   5.863   6.984 -1.2119 -0.5212  2.2182
   14MOL   H409 9275   1.200   5.832   6.957  2.2870  0.5560  2.3801
   14MOL   N410 9276   1.285   6.003   7.120 -0.3148 -0.0510 -0.0261
   14MOL   C411 9277   1.342   6.127   7.187  0.3600 -0.7538  0.1761
   14MOL   C412 9278   1.386   6.227   7.084 -0.7818 -0.7145  0.3710
   14MOL   C413 9279   1.474   6.173   6.971 -0.5496  0.0978  0.1360
   14MOL   C414 9280   1.542   6.262   6.873  0.1773  0.5077 -0.3667
   14MOL   C415 9281   1.655   6.354   6.931 -0.2770  0.1206 -0.4632
   14MOL   C416 9282   1.725   6.444   6.833  0.4349 -0.3209  0.1679
   14MOL   C417 9283   1.805   6.556   6.894  0.2821 -0.3656  0.4202
   14MOL   C418 9284   1.872   6.637   6.784 -0.1058  0.2270 -0.4489
   14MOL   C419 9285   1.903   6.788   6.822  0.0109  0.0225 -0.4819
   14MOL   C420 9286   2.006   6.849   6.721 -0.4509 -0.4641 -0.1334
   14MOL   C421 9287   2.156   6.833   6.759 -0.3353 -0.5372  0.1352
   14MOL   O422 9288   2.177   6.793   6.876 -0.4739 -0.1121  0.1667
   14MOL   H423 9289   1.358   5.948   7.076  1.9477 -0.8473  4.4151
   14MOL   H424 9290   1.267   6.181   7.244  0.0299 -1.9943  0.9586
   14MOL   H425 9291   1.427   6.101   7.251  1.7902  1.8520 -0.5947
   14MOL   H426 9292   1.450   6.298   7.137 -0.3504 -0.1954 -0.8423
   14MOL   H427 9293   1.304   6.290   7.049 -0.1897  1.2462  2.3443
   14MOL   H428 9294   1.555   6.109   7.006 -2.5966 -2.7227 -0.1276
   14MOL   H429 9295   1.418   6.099   6.913  2.0499 -0.5803 -1.6315
   14MOL   H430 9296   1.461   6.319   6.828 -1.1768  0.1938  1.6498
   14MOL   H431 9297   1.582   6.212   6.784 -2.2884 -1.4864 -0.4139
   14MOL   H432 9298   1.726   6.293   6.985 -1.1525  1.1016  1.8482
   14MOL   H433 9299   1.609   6.414   7.009 -3.0500 -0.7275 -1.3744
   14MOL   H434 9300   1.779   6.379   6.765  0.1794 -1.2331  0.8270
   14MOL   H435 9301   1.650   6.493   6.771  1.8722  1.5378 -0.1329
   14MOL   H436 9302   1.883   6.522   6.962 -1.2027 -1.7863  1.4714
   14MOL   H437 9303   1.744   6.612   6.965  0.4821  0.7792 -0.3013
   14MOL   H438 9304   1.972   6.593   6.783  0.8875  2.3138  1.0942
   14MOL   H439 9305   1.814   6.639   6.692  0.8066  1.3847 -1.0221
   14MOL   H440 9306   1.929   6.792   6.927  0.6585  0.0202 -0.6383
   14MOL   H441 9307   1.810   6.844   6.816 -0.1881 -0.1912  0.6315
   14MOL   H442 9308   1.997   6.958   6.722  1.2600 -0.3043  0.0054
   14MOL   H443 9309   1.990   6.809   6.621 -1.2005 -1.1614  0.2670
   14MOL   N444 9310   2.253   6.859   6.669  0.7089  0.2568  0.2295
   14MOL   C445 9311   2.395   6.844   6.694  0.7344  0.2312  0.2334
   14MOL   C446 9312   2.461   6.767   6.580 -0.6440 -0.2068  0.1995
   14MOL   C447 9313   2.611   6.797   6.573 -0.3363 -0.1915  0.5458
   14MOL   C448 9314   2.691   6.727   6.459  0.7402 -0.1314  1.5880
   14MOL   C449 9315   2.651   6.739   6.308  0.0570  0.2187  0.1466
   14MOL   C450 9316   2.714   6.862   6.239  0.1408 -0.2483  0.2596
   14MOL   C451 9317   2.862   6.835   6.199 -0.6063 -0.0714 -0.0032
   14MOL   C452 9318   2.926   6.939   6.107 -0.0282 -0.3674 -0.6066
   14MOL   C453 9319   2.868   6.939   5.967 -0.3123 -0.4110 -0.2831
   14MOL   C454 9320   2.946   7.052   5.882  0.1955 -0.0256  0.2095
   14MOL   C455 9321   2.909   7.198   5.915 -0.5079 -0.3630 -0.0865
   14MOL   O456 9322   2.794   7.236   5.914  0.2889  0.0202 -0.0415
   14MOL   H457 9323   2.230   6.869   6.571 -1.6829  0.7418  0.8349
   14MOL   H458 9324   2.436   6.944   6.698 -0.3519  0.7920 -1.8030
   14MOL   H459 9325   2.403   6.798   6.793  0.2870 -2.4837 -0.9492
   14MOL   H460 9326   2.410   6.796   6.488 -2.3122 -0.9997  0.8596
   14MOL   H461 9327   2.447   6.660   6.588 -1.1726 -0.0821  1.0617
   14MOL   H462 9328   2.632   6.903   6.558  0.8469 -0.6295 -1.0803
   14MOL   H463 9329   2.661   6.761   6.663  1.2797  1.0738  0.1913
   14MOL   H464 9330   2.690   6.623   6.493 -3.0898 -0.7246 -0.0847
   14MOL   H465 9331   2.795   6.757   6.467  0.8710  0.1960 -0.8417
   14MOL   H466 9332   2.543   6.759   6.307 -0.0646 -0.0282  3.2305
   14MOL   H467 9333   2.682   6.651   6.252  0.0407  0.8425 -0.8625
   14MOL   H468 9334   2.652   6.868   6.150  0.3723  1.5958  0.2195
   14MOL   H469 9335   2.703   6.950   6.301  2.0948  0.8187 -0.8814
   14MOL   H470 9336   2.864   6.733   6.160  0.8268 -1.6573  3.9335
   14MOL   H471 9337   2.913   6.827   6.295 -2.9410 -0.3431  1.2413
   14MOL   H472 9338   2.912   7.035   6.156 -0.7643 -0.5613 -0.4267
   14MOL   H473 9339   3.032   6.916   6.095  0.0922 -0.4017  0.4914
   14MOL   H474 9340   2.763   6.970   5.968 -0.1676  0.3093 -2.7873
   14MOL   H475 9341   2.887   6.840   5.926  2.7925  0.6206 -1.4648
   14MOL   H476 9342   2.907   7.032   5.782 -1.2799 -0.4372  0.8578
   14MOL   H477 9343   3.055   7.051   5.874  0.3254  2.1977  1.2672
   14MOL   N478 9344   3.014   7.280   5.939  0.5266 -0.2884 -0.2859
   14MOL   C479 9345   3.000   7.413   6.007  0.0386 -0.2137 -0.9215
   14MOL   C480 9346   3.021   7.403   6.161 -0.5440  0.8479  0.2215
   14MOL   C481 9347   3.034   7.534   6.236  0.2910 -0.2716 -0.4840
   14MOL   C482 9348   3.034   7.506   6.385 -0.7735 -0.6755  0.5079
   14MOL   C483 9349   3.055   7.642   6.462  0.8461 -0.5337 -0.2780
   14MOL   C484 9350   3.033   7.648   6.608 -0.4116 -0.0477  0.4802
   14MOL   C485 9351   2.892   7.637   6.664  0.0095  0.2045  0.0799
   14MOL   C486 9352   2.888   7.693   6.808  0.1822  0.2033  0.1846
   14MOL   C487 9353   2.744   7.701   6.865 -0.8269  0.3179 -0.6556
   14MOL   C488 9354   2.727   0.096   6.964  0.4630 -0.0045 -0.0037
   14MOL   C489 9355   2.728   0.232   6.897 -0.4183  0.1914  0.5409
   14MOL   O490 9356   2.670   0.248   6.789 -0.2457 -0.0747  0.7774
   14MOL   H491 9357   3.106   7.248   5.913  0.6525  0.7187 -1.1026
   14MOL   H492 9358   3.074   7.479   5.961  0.1182 -0.8517 -1.7189
   14MOL   H493 9359   2.900   7.449   5.983 -2.0594 -3.4248  2.4452
   14MOL   H494 9360   3.113   7.351   6.186 -1.9852 -1.1258  1.6778
   14MOL   H495 9361   2.942   7.349   6.215  0.8599 -0.5142  0.9495
   14MOL   H496 9362   3.117   7.593   6.196  0.7925 -1.4028 -1.1289
   14MOL   H497 9363   2.942   7.592   6.223 -0.9655 -1.6716  1.8520
   14MOL   H498 9364   3.114   7.436   6.408  2.1737  2.5120  0.4062
   14MOL   H499 9365   2.940   7.454   6.404 -1.4491  0.6221  0.7814
   14MOL   H500 9366   2.999   0.012   6.425  1.2906  0.1668  0.6504
   14MOL   H501 9367   3.159   7.672   6.450  1.0681 -1.5817 -1.0350
   14MOL   H502 9368   3.079   7.562   6.658  0.7777  0.7203  0.7222
   14MOL   H503 9369   3.094   0.017   6.640  1.8439 -1.3822 -0.1463
   14MOL   H504 9370   2.857   7.534   6.664  2.3947 -0.6300  0.6969
   14MOL   H505 9371   2.821   7.693   6.603 -0.0108 -0.4293 -0.4860
   14MOL   H506 9372   2.940   7.631   6.882  0.8570 -0.7882 -1.0869
   14MOL   H507 9373   2.944   0.071   6.814 -0.4399  0.5912 -0.1043
   14MOL   H508 9374   2.710   7.604   6.902  3.1441 -1.7678 -2.1354
   14MOL   H509 9375   2.677   0.008   6.782 -3.0838 -0.9798  0.7424
   14MOL   H510 9376   2.807   0.083   7.037  0.8061  0.0605 -0.3652
   14MOL   H511 9377   2.635   0.084   7.020  0.8028 -0.5424  0.4412
   14MOL   N512 9378   2.810   0.325   6.952  0.2906 -0.1946 -0.2911
   14MOL   C513 9379   2.846   0.454   6.892  0.4773 -0.2805  0.0191
   14MOL   C514 9380   2.986   0.445   6.822 -0.0085 -0.3360 -0.5798
   14MOL   C515 9381   3.029   0.583   6.746  0.2539 -0.6938 -0.1978
   14MOL   C516 9382   3.176   0.586   6.699 -0.2197 -0.0023 -0.4833
   14MOL   C517 9383   3.218   0.700   6.608 -0.5254  0.3965 -0.9385
   14MOL   C518 9384   3.350   0.671   6.541  0.4451  0.5036 -0.0606
   14MOL   C519 9385   3.419   0.787   6.467  0.0654 -0.1959 -0.6170
   14MOL   C520 9386   3.535   0.746   6.375  0.5274 -0.5342 -0.2536
   14MOL   C521 9387   3.636   0.859   6.342  0.1292 -0.0859 -0.8103
   14MOL   C522 9388   3.743   0.812   6.238  0.8763  0.0854 -0.1626
   14MOL   C523 9389   3.834   0.921   6.180  0.6080 -0.0099 -0.7272
   14MOL   O524 9390   3.898   0.995   6.256 -0.2079 -0.1892 -0.2790
   14MOL   H525 9391   2.833   0.315   7.049 -1.2487  1.0003  0.2011
   14MOL   H526 9392   2.778   0.489   6.814  2.4657 -2.6187 -2.8768
   14MOL   H527 9393   2.856   0.529   6.970  1.5374 -0.8951  0.4809
   14MOL   H528 9394   2.980   0.367   6.747 -1.8355  0.0996 -0.9236
   14MOL   H529 9395   3.059   0.424   6.900 -2.0556 -1.2265  1.1446
   14MOL   H530 9396   2.959   0.607   6.666  0.8256 -2.0677 -1.1304
   14MOL   H531 9397   3.007   0.669   6.809 -1.0151 -1.7961  0.8852
   14MOL   H532 9398   3.201   0.493   6.648 -0.5814 -0.4683  0.1824
   14MOL   H533 9399   3.242   0.579   6.785 -1.6470 -0.6818  0.5852
   14MOL   H534 9400   3.219   0.787   6.673  1.3888 -1.1470  1.1784
   14MOL   H535 9401   3.151   0.716   6.523  1.1791  2.5785 -1.9253
   14MOL   H536 9402   3.418   0.641   6.622 -0.3581 -0.7572  0.1586
   14MOL   H537 9403   3.338   0.588   6.471  0.8984 -1.6498  2.3138
   14MOL   H538 9404   3.461   0.856   6.540 -0.1452 -1.7660  1.0261
   14MOL   H539 9405   3.344   0.843   6.412 -0.0024  0.2424 -0.0809
   14MOL   H540 9406   3.602   0.681   6.431  1.0481  0.5785  0.4477
   14MOL   H541 9407   3.496   0.701   6.284  0.2848 -0.0773 -0.3779
   14MOL   H542 9408   3.689   0.890   6.431  0.5380 -3.0159  0.0160
   14MOL   H543 9409   3.590   0.951   6.306  1.7839  0.8654 -0.5084
   14MOL   H544 9410   3.700   0.761   6.152  0.8907 -1.1083  0.5304
   14MOL   H545 9411   3.801   0.736   6.290  1.5310  0.3237 -0.5346
   14MOL   N546 9412   3.850   0.933   6.046 -0.7261  0.7797 -0.0136
   14MOL   C547 9413   3.932   1.039   5.984 -0.7309  0.6055  0.4104
   14MOL   C548 9414   3.856   1.168   5.954  0.1389 -0.1522 -0.0368
   14MOL   C549 9415   3.940   1.284   5.904  0.2157  0.0943 -0.1532
   14MOL   C550 9416   4.048   1.339   6.013 -0.3332 -0.0342 -0.2813
   14MOL   C551 9417   4.077   1.493   5.996  0.2612  0.8643  0.3720
   14MOL   C552 9418   4.132   1.533   5.861  1.0136  0.2521  0.0476
   14MOL   C553 9419   4.128   1.683   5.839 -0.2961 -0.2115  0.0990
   14MOL   C554 9420   4.173   1.732   5.690  0.4339 -0.8987  0.6803
   14MOL   C555 9421   4.148   1.881   5.669  0.7040 -0.2151 -0.0007
   14MOL   C556 9422   4.230   1.919   5.544  0.4768 -0.4076  0.2982
   14MOL   C557 9423   4.166   1.865   5.419 -0.5345 -0.3021  0.0284
   14MOL   O558 9424   4.047   1.852   5.394 -0.2384  0.0357 -0.2844
   14MOL   H559 9425   3.795   0.874   5.985 -2.8135  2.5710  0.0704
   14MOL   H560 9426   4.017   1.055   6.050 -0.4432 -1.0793  0.4668
   14MOL   H561 9427   3.958   0.990   5.890 -0.5656  1.7600 -0.1566
   14MOL   H562 9428   3.802   1.203   6.042  1.4112  2.0879 -0.1196
   14MOL   H563 9429   3.781   1.145   5.878 -0.2267 -1.9496  0.8325
   14MOL   H564 9430   3.989   1.250   5.813 -0.3097  0.4406 -0.5711
   14MOL   H565 9431   3.866   1.357   5.873 -0.1124 -0.4865 -0.7384
   14MOL   H566 9432   4.146   1.291   6.009 -0.4223 -0.2194 -0.2222
   14MOL   H567 9433   4.011   1.329   6.115 -0.8280  2.8863 -0.1135
   14MOL   H568 9434   4.146   1.541   6.065 -0.8096 -0.0719  2.1700
   14MOL   H569 9435   3.985   1.548   6.013 -0.8948 -0.3256 -1.7839
   14MOL   H570 9436   4.232   1.489   5.858  0.5643 -0.6997 -2.1123
   14MOL   H571 9437   4.084   1.490   5.773 -1.1146 -0.0094  1.2920
   14MOL   H572 9438   4.185   1.738   5.915  0.8900  1.1182 -1.7018
   14MOL   H573 9439   4.025   1.716   5.848 -0.2120  0.0067  0.2496
   14MOL   H574 9440   4.280   1.719   5.677  0.3407  0.5048 -1.8274
   14MOL   H575 9441   4.118   1.676   5.615  0.8733 -0.3430 -0.0604
   14MOL   H576 9442   4.181   1.949   5.749  1.0543  0.2863 -0.5653
   14MOL   H577 9443   4.043   1.896   5.647  0.2535 -1.6650  1.1067
   14MOL   H578 9444   4.333   1.887   5.555 -0.3815 -3.2070  0.6666
   14MOL   H579 9445   4.224   2.028   5.544 -0.3848 -0.4484  0.3051
   14MOL   N580 9446   4.255   1.849   5.318 -0.3212 -0.0746 -0.2973
   14MOL   C581 9447   4.214   1.856   5.179  0.5893 -0.3451  0.6708
   14MOL   C582 9448   4.206   2.008   5.138 -0.1600 -0.3477  0.0044
   14MOL   C583 9449   4.185   2.046   4.989  0.5905  0.1953  0.3102
   14MOL   C584 9450   4.308   2.000   4.902  0.4000 -0.5057  1.1069
   14MOL   C585 9451   4.275   2.013   4.750  0.0970  0.2064 -0.1435
   14MOL   C586 9452   4.401   2.023   4.668  0.3836 -0.2630  0.0947
   14MOL   C587 9453   4.500   1.902   4.668 -0.4495  0.5064  0.1817
   14MOL   C588 9454   4.434   1.761   4.651 -0.4030 -0.9891 -0.4120
   14MOL   C589 9455   4.530   1.650   4.602 -0.1500 -1.1023  0.6491
   14MOL   C590 9456   4.482   1.514   4.641  0.2604  0.3403  0.6395
   14MOL   C591 9457   4.366   1.464   4.553  0.2129 -0.5738  0.0238
   14MOL   O592 9458   4.308   1.543   4.473 -0.0618 -0.1015  0.4188
   14MOL   H593 9459   4.354   1.869   5.324 -0.1765 -0.5093 -1.1147
   14MOL   H594 9460   4.291   1.805   5.121  0.8455  2.3183 -1.4265
   14MOL   H595 9461   4.115   1.814   5.164  0.9604 -1.7889  2.1508
   14MOL   H596 9462   4.306   2.045   5.161  0.3863 -2.1003  0.5534
   14MOL   H597 9463   4.137   2.065   5.200  2.3858  1.8649  0.9221
   14MOL   H598 9464   4.089   2.010   4.954  1.3759  0.0931 -1.8442
   14MOL   H599 9465   4.170   2.152   4.966 -1.9862 -0.3382 -0.6680
   14MOL   H600 9466   4.323   1.893   4.919 -0.5499 -0.3122  3.3006
   14MOL   H601 9467   4.386   2.066   4.938 -0.8021  2.3936 -1.3325
   14MOL   H602 9468   4.218   2.106   4.744 -0.1629 -0.0407 -1.5957
   14MOL   H603 9469   4.215   1.927   4.720 -0.0806  0.3065 -0.0787
   14MOL   H604 9470   4.373   2.037   4.564 -0.6025 -0.3990  0.3388
   14MOL   H605 9471   4.450   2.116   4.698  1.5995 -0.2830 -1.7030
   14MOL   H606 9472   4.571   1.913   4.749  0.2314 -0.4221 -0.2725
   14MOL   H607 9473   4.556   1.913   4.575  2.3421 -2.8136  1.3723
   14MOL   H608 9474   4.375   1.728   4.737 -0.1111 -2.8737 -0.9131
   14MOL   H609 9475   4.366   1.766   4.566  0.6114  0.0227 -1.1742
   14MOL   H610 9476   4.625   1.667   4.652 -0.9899  0.3000  1.7928
   14MOL   H611 9477   4.548   1.659   4.495 -0.6862 -0.6184  0.5916
   14MOL   H612 9478   4.430   1.532   4.735 -1.7059 -0.5350 -0.2438
   14MOL   H613 9479   4.558   1.437   4.645  0.5727  0.6668  0.9805
   14MOL   N614 9480   4.335   1.334   4.558 -0.8190  0.0919  0.3907
   14MOL   C615 9481   4.222   1.272   4.493  0.7691  0.1227 -0.8228
   14MOL   C616 9482   4.258   1.127   4.446  0.0047  0.2304  1.0996
   14MOL   C617 9483   4.136   1.063   4.369  0.1335 -0.3131 -0.0596
   14MOL   C618 9484   4.044   0.973   4.454 -0.2424 -0.0685 -0.1795
   14MOL   C619 9485   3.974   1.042   4.574 -0.8559 -0.0711  0.0863
   14MOL   C620 9486   3.840   0.976   4.616 -0.5359 -0.3547 -0.0990
   14MOL   C621 9487   3.857   0.826   4.666  0.2726 -0.5771  0.5672
   14MOL   C622 9488   3.722   0.752   4.670  0.2529 -0.4915  0.1396
   14MOL   C623 9489   3.635   0.792   4.788 -0.4645  0.0204  0.3224
   14MOL   C624 9490   3.509   0.705   4.816  0.3305  0.1493  0.0918
   14MOL   C625 9491   3.413   0.715   4.702  0.8561  0.2842 -0.4159
   14MOL   O626 9492   3.353   0.818   4.672  0.3150  0.1379  0.3199
   14MOL   H627 9493   4.380   1.288   4.636  0.6844 -0.2458 -0.6375
   14MOL   H628 9494   4.182   1.335   4.414  0.2975  2.2175  1.0272
   14MOL   H629 9495   4.144   1.264   4.569  0.9586 -0.1320 -0.6521
   14MOL   H630 9496   4.293   1.059   4.524 -1.3460 -4.7525 -2.3757
   14MOL   H631 9497   4.323   1.136   4.359 -1.2329 -2.2864 -0.1499
   14MOL   H632 9498   4.080   1.135   4.310  0.0691 -0.2965  0.0212
   14MOL   H633 9499   4.169   0.990   4.296 -3.1742 -1.7004 -0.2429
   14MOL   H634 9500   4.104   0.888   4.486 -2.8438 -1.7025  0.4933
   14MOL   H635 9501   3.973   0.922   4.390 -1.7604  0.7989  0.7817
   14MOL   H636 9502   3.943   1.138   4.535 -0.0105  0.1358 -0.0969
   14MOL   H637 9503   4.035   1.058   4.663  0.0611  0.4709 -0.6302
   14MOL   H638 9504   3.795   1.048   4.685 -0.5049  1.5782 -2.0455
   14MOL   H639 9505   3.768   0.986   4.535 -0.2626 -1.8354 -0.5383
   14MOL   H640 9506   3.906   0.819   4.763  1.5553  1.5245  0.0953
   14MOL   H641 9507   3.924   0.771   4.600  2.5190  3.1043 -0.3868
   14MOL   H642 9508   3.656   0.764   4.584  0.1080  1.4545  0.4894
   14MOL   H643 9509   3.743   0.646   4.686 -0.7357 -1.0228 -1.9302
   14MOL   H644 9510   3.605   0.895   4.768  0.4141  0.3492  0.6861
   14MOL   H645 9511   3.697   0.785   4.877 -1.1624 -2.1386  0.6856
   14MOL   H646 9512   3.459   0.757   4.898  0.8501 -0.1840  0.6226
   14MOL   H647 9513   3.528   0.600   4.837  0.7910 -0.3604 -2.7070
   14MOL   N648 9514   3.398   0.605   4.626  0.2500 -0.3101  0.3110
   14MOL   C649 9515   3.320   0.596   4.499 -0.1283 -0.9150 -0.3391
   14MOL   C650 9516   3.292   0.450   4.458 -0.9992 -0.9530 -0.3830
   14MOL   C651 9517   3.267   0.436   4.301 -0.2315  0.0609 -0.1535
   14MOL   C652 9518   3.262   0.289   4.267  0.0856  0.2151  0.4570
   14MOL   C653 9519   3.226   0.283   4.113 -0.0737  0.1649  0.2639
   14MOL   C654 9520   3.217   0.144   4.043  0.4831 -0.2710 -0.3674
   14MOL   C655 9521   3.195   0.151   3.891  0.0313  0.4049  0.3301
   14MOL   C656 9522   3.191   0.011   3.822  0.6897  0.5970  0.5235
   14MOL   C657 9523   3.195   0.036   3.665  0.6835  0.1804 -0.7597
   14MOL   C658 9524   3.170   7.632   3.573  0.4752 -0.3991 -0.2125
   14MOL   C659 9525   3.295   7.542   3.549 -0.4806  0.1854  1.1023
   14MOL   O660 9526   3.401   7.602   3.539 -0.5928 -0.2462 -0.6728
   14MOL   H661 9527   3.443   0.519   4.654 -1.4056 -1.1868  0.3873
   14MOL   H662 9528   3.370   0.660   4.426 -0.6658  0.9341  0.8738
   14MOL   H663 9529   3.222   0.640   4.518  1.0991  2.3294 -1.2005
   14MOL   H664 9530   3.217   0.407   4.525  0.3911 -2.3307  0.3248
   14MOL   H665 9531   3.382   0.391   4.473 -0.0626  0.8194  1.1213
   14MOL   H666 9532   3.169   0.481   4.293  0.0858  0.3988 -2.3293
   14MOL   H667 9533   3.330   0.493   4.233 -0.4310 -1.4013 -1.5754
   14MOL   H668 9534   3.180   0.247   4.325 -1.0325 -0.9631 -1.8952
   14MOL   H669 9535   3.352   0.230   4.283 -0.3337 -0.7377 -0.6037
   14MOL   H670 9536   3.298   0.350   4.065  1.2810 -1.4459 -0.0106
   14MOL   H671 9537   3.125   0.323   4.116 -0.5469 -0.9780  0.0307
   14MOL   H672 9538   3.307   0.086   4.062  0.5739  0.6436  2.2512
   14MOL   H673 9539   3.127   0.092   4.079 -0.3256  1.2279 -0.1657
   14MOL   H674 9540   3.276   0.215   3.857  0.5625 -0.7454 -0.5647
   14MOL   H675 9541   3.101   0.203   3.870  0.9008  2.2119  0.7779
   14MOL   H676 9542   3.278   7.669   3.853  0.3873 -0.2902 -0.2647
   14MOL   H677 9543   3.102   7.676   3.860  1.0667 -0.3855  0.1080
   14MOL   H678 9544   3.287   0.088   3.638  1.9032 -0.2969  2.2410
   14MOL   H679 9545   3.113   0.099   3.631  1.3801  1.4564 -0.1293
   14MOL   H680 9546   3.143   7.668   3.474 -1.3434 -0.2469  0.3084
   14MOL   H681 9547   3.088   7.580   3.623  0.0115 -4.0935 -4.5916
   14MOL   H682 9548   3.300   7.433   3.556 -0.7478  0.0720 -0.2947
   15MOL     N1 9549   6.853   6.219   0.223  0.2206 -0.3999 -1.2204
   15MOL     C2 9550   6.943   6.105   0.239  0.1446 -0.0747 -0.1119
   15MOL     C3 9551   6.880   5.997   0.336  0.2912 -0.6098 -0.3365
   15MOL     C4 9552   6.983   5.907   0.409  0.2527  0.2492  0.4007
   15MOL     C5 9553   6.915   5.781   0.472 -0.5528  0.5103  0.5620
   15MOL     C6 9554   7.019   5.703   0.551 -0.0871 -0.1996 -0.2556
   15MOL     C7 9555   6.968   5.583   0.633 -0.3948 -0.0476 -0.1653
   15MOL     C8 9556   7.072   5.490   0.694 -0.5282 -0.5056  1.5596
   15MOL     C9 9557   7.140   5.390   0.592  0.2096  0.3256 -0.8903
   15MOL    C10 9558   7.208   5.277   0.678  0.9953 -0.1821  0.5653
   15MOL    C11 9559   7.244   5.152   0.596  0.1184 -0.2526 -0.2078
   15MOL    C12 9560   7.384   5.143   0.528  0.7727 -0.0716  0.7609
   15MOL    O13 9561   7.433   5.248   0.495  0.0192 -0.4290 -0.5753
   15MOL    H14 9562   6.772   6.190   0.169 -0.2203  0.0463 -0.8013
   15MOL    H15 9563   7.039   6.145   0.272  1.4270 -1.0756 -2.5062
   15MOL    H16 9564   6.957   6.074   0.136 -1.8230  1.4882 -0.8769
   15MOL    H17 9565   6.823   5.924   0.279  0.4639 -1.9868  1.1862
   15MOL    H18 9566   6.815   6.039   0.413 -2.3948 -3.1100 -1.1534
   15MOL    H19 9567   7.059   5.869   0.340 -1.2082 -4.3866  1.1291
   15MOL    H20 9568   7.040   5.968   0.478  0.8868 -0.5008  0.5437
   15MOL    H21 9569   6.872   5.719   0.393 -1.5312 -0.1400  1.5824
   15MOL    H22 9570   6.834   5.812   0.538 -2.8917 -2.8127 -0.6162
   15MOL    H23 9571   7.070   5.770   0.621 -1.9965  0.2308  0.7885
   15MOL    H24 9572   7.102   5.673   0.488  1.0757  0.1456  1.0935
   15MOL    H25 9573   6.909   5.618   0.718 -0.7571 -2.4159  0.5961
   15MOL    H26 9574   6.898   5.525   0.573  1.1822 -0.9505 -1.1530
   15MOL    H27 9575   7.004   5.439   0.764 -1.7133  0.0305  0.8229
   15MOL    H28 9576   7.155   5.535   0.747 -0.0695  1.0727 -0.4580
   15MOL    H29 9577   7.063   5.350   0.527 -0.2858  0.7056 -0.5401
   15MOL    H30 9578   7.215   5.441   0.531  2.1895 -2.0909 -0.5794
   15MOL    H31 9579   7.133   5.251   0.753 -0.8805  1.4544 -0.6688
   15MOL    H32 9580   7.289   5.313   0.741 -1.2846  0.6027  3.1602
   15MOL    H33 9581   7.166   5.137   0.521  0.5572 -1.2547 -0.4737
   15MOL    H34 9582   7.231   5.063   0.659  0.0739 -0.4414 -0.4833
   15MOL    H35 9583   6.894   6.294   0.170 -1.6263  1.5607  0.0560
   15MOL    N36 9584   7.433   5.025   0.484 -0.3538  0.0618 -0.1076
   15MOL    C37 9585   7.380   4.895   0.505  0.3054  0.5476 -0.4907
   15MOL    C38 9586   7.285   4.855   0.395  1.1131  0.1297 -0.2552
   15MOL    C39 9587   7.200   4.736   0.441  0.4607 -0.8406 -0.4890
   15MOL    C40 9588   7.103   4.682   0.334  0.4850  0.2199  0.1908
   15MOL    C41 9589   7.025   4.550   0.372 -1.0537 -0.4010  0.1998
   15MOL    C42 9590   6.881   4.531   0.333  0.6333 -0.4058  0.2739
   15MOL    C43 9591   6.782   4.623   0.407  0.6089 -0.1557  0.3443
   15MOL    C44 9592   6.637   4.562   0.408  0.4376 -0.0930 -0.0653
   15MOL    C45 9593   6.541   4.645   0.496  0.3371 -0.1402 -0.2107
   15MOL    C46 9594   6.401   4.585   0.498  0.3421  0.0695 -0.2862
   15MOL    C47 9595   6.383   4.471   0.591 -0.5009 -0.0195  0.2481
   15MOL    O48 9596   6.479   4.407   0.634 -0.2987  0.8374  0.1126
   15MOL    H49 9597   7.528   5.033   0.451 -1.6412  0.4130 -4.0076
   15MOL    H50 9598   7.458   4.821   0.493  0.8130  1.2691 -1.7839
   15MOL    H51 9599   7.345   4.882   0.607 -1.2891  0.6336 -1.0112
   15MOL    H52 9600   7.338   4.838   0.302 -1.6580 -2.1202 -1.5103
   15MOL    H53 9601   7.216   4.937   0.376  0.6188 -0.4959 -1.2068
   15MOL    H54 9602   7.281   4.671   0.474 -0.5536 -0.0812  3.8171
   15MOL    H55 9603   7.138   4.758   0.528  1.6014 -0.4518  0.2392
   15MOL    H56 9604   7.132   4.681   0.229 -0.3299  0.4308 -0.0332
   15MOL    H57 9605   7.022   4.754   0.328 -1.1539 -1.7354 -1.7346
   15MOL    H58 9606   7.037   4.531   0.479  3.0557  0.6440  0.0090
   15MOL    H59 9607   7.085   4.470   0.328 -0.2809  0.4315 -0.2668
   15MOL    H60 9608   6.880   4.537   0.224 -0.1834  0.8833  0.3494
   15MOL    H61 9609   6.855   4.428   0.357 -0.9971  0.3348  1.8272
   15MOL    H62 9610   6.781   4.724   0.365  0.5301  0.4861  1.8558
   15MOL    H63 9611   6.816   4.642   0.509 -1.1637  0.5464  0.8256
   15MOL    H64 9612   6.602   4.560   0.305 -1.1752  0.9877  0.4459
   15MOL    H65 9613   6.638   4.456   0.433 -0.2651  0.2704  1.5874
   15MOL    H66 9614   6.533   4.748   0.463  0.7214 -0.1769 -0.4142
   15MOL    H67 9615   6.590   4.650   0.593  0.7708  0.4649 -0.4547
   15MOL    H68 9616   6.364   4.556   0.400 -0.8159  1.4362 -0.2641
   15MOL    H69 9617   6.336   4.665   0.533  0.4424 -0.8490  2.0985
   15MOL    N70 9618   6.260   4.453   0.644 -0.5160 -0.1581  0.2466
   15MOL    C71 9619   6.142   4.512   0.591 -0.2226  0.7785  0.1697
   15MOL    C72 9620   6.023   4.415   0.607 -0.6943 -0.1333 -0.5910
   15MOL    C73 9621   5.884   4.471   0.555 -1.0656 -0.4828 -0.1832
   15MOL    C74 9622   5.772   4.378   0.571  0.1721 -0.0713 -0.0810
   15MOL    C75 9623   5.638   4.447   0.524  0.0303  0.3004 -0.1080
   15MOL    C76 9624   5.505   4.366   0.527 -0.0556 -0.9636 -0.3224
   15MOL    C77 9625   5.386   4.445   0.460 -0.8920 -0.4577  0.0144
   15MOL    C78 9626   5.254   4.389   0.505  0.3143 -0.0223 -0.4032
   15MOL    C79 9627   5.208   4.402   0.653  0.1590 -0.0965  0.5715
   15MOL    C80 9628   5.059   4.368   0.673  0.4039 -0.2644  0.1965
   15MOL    C81 9629   5.026   4.219   0.663 -0.5475  0.0906 -0.2115
   15MOL    O82 9630   5.108   4.133   0.637 -0.6445  0.7183  0.3074
   15MOL    H83 9631   6.236   4.382   0.712  0.2616  0.9484  1.7167
   15MOL    H84 9632   6.135   4.601   0.653  0.0007  1.0963 -0.2562
   15MOL    H85 9633   6.161   4.539   0.487  1.7476  1.1465  0.5906
   15MOL    H86 9634   6.018   4.386   0.712  1.8475 -0.0689 -0.4196
   15MOL    H87 9635   6.052   4.325   0.553  2.2649  1.4526 -1.7729
   15MOL    H88 9636   5.870   4.565   0.609  2.2373 -0.8845  1.5126
   15MOL    H89 9637   5.891   4.501   0.450  0.9852  0.5029  0.2096
   15MOL    H90 9638   5.767   4.356   0.677  0.6747 -2.4395 -0.5351
   15MOL    H91 9639   5.796   4.292   0.509  2.2634 -1.1301  2.1248
   15MOL    H92 9640   5.648   4.499   0.429 -0.4899  1.7666  0.6157
   15MOL    H93 9641   5.629   4.522   0.603 -0.3270  0.1422  0.0021
   15MOL    H94 9642   5.508   4.267   0.481  0.6980 -0.6685 -0.9067
   15MOL    H95 9643   5.471   4.358   0.631 -1.3788 -0.2964 -0.6970
   15MOL    H96 9644   5.392   4.447   0.352 -1.8327  1.5594 -0.0312
   15MOL    H97 9645   5.410   4.550   0.478 -0.2884 -0.5713 -0.0996
   15MOL    H98 9646   5.175   4.438   0.448 -0.7508  1.9535  2.6350
   15MOL    H99 9647   5.253   4.283   0.480  0.8248 -0.1214 -0.0193
   15MOL   H100 9648   5.230   4.499   0.699  1.9499  0.5669 -1.5973
   15MOL   H101 9649   5.267   4.333   0.713  2.0864  0.9177 -0.0952
   15MOL   H102 9650   4.995   4.414   0.597  1.2348  0.7452  0.1040
   15MOL   H103 9651   5.011   4.404   0.764 -1.2789  1.0577 -1.1674
   15MOL   N104 9652   4.896   4.198   0.683 -0.5882 -0.9199 -0.3304
   15MOL   C105 9653   4.830   4.068   0.703  0.4654  0.0490 -0.1252
   15MOL   C106 9654   4.751   4.014   0.580  0.2790  0.0316  0.2998
   15MOL   C107 9655   4.647   4.108   0.527 -0.3342 -0.1666  0.3435
   15MOL   C108 9656   4.534   4.131   0.628  0.0593 -0.1560 -0.6750
   15MOL   C109 9657   4.413   4.198   0.554 -0.6230 -0.4496  0.0354
   15MOL   C110 9658   4.331   4.110   0.466 -0.3541  0.1385  0.1454
   15MOL   C111 9659   4.226   4.185   0.385 -0.6111 -0.1216  0.5571
   15MOL   C112 9660   4.099   4.237   0.442  0.3367 -0.4407  0.1803
   15MOL   C113 9661   4.027   4.319   0.329 -0.5762  0.5852 -0.4186
   15MOL   C114 9662   3.898   4.391   0.382  0.5444  0.4653  0.0452
   15MOL   C115 9663   3.796   4.299   0.447  0.4247  0.1103 -0.0687
   15MOL   O116 9664   3.773   4.187   0.408 -0.0733 -0.2399 -0.1304
   15MOL   H117 9665   4.835   4.274   0.709  1.5284  0.8267 -0.2929
   15MOL   H118 9666   4.903   3.994   0.734  0.8899  0.8525  0.8307
   15MOL   H119 9667   4.755   4.088   0.780  0.2968  1.5448 -0.6646
   15MOL   H120 9668   4.707   3.922   0.618  1.2602  0.2533  2.0383
   15MOL   H121 9669   4.820   3.986   0.501  0.9370  0.0954  0.8446
   15MOL   H122 9670   4.683   4.207   0.500 -2.2923  1.0802  2.1315
   15MOL   H123 9671   4.603   4.066   0.437 -1.0917 -0.3211  0.7727
   15MOL   H124 9672   4.574   4.189   0.710 -0.1787 -2.6552  1.2749
   15MOL   H125 9673   4.500   4.043   0.683  0.1249 -0.4135 -1.0394
   15MOL   H126 9674   4.457   4.277   0.493 -1.5698 -0.7905 -1.0872
   15MOL   H127 9675   4.351   4.256   0.623 -0.3216 -2.6413  2.2081
   15MOL   H128 9676   4.389   4.062   0.387 -0.0842 -2.1684  1.6920
   15MOL   H129 9677   4.283   4.031   0.524 -1.5464 -0.7308 -1.9478
   15MOL   H130 9678   4.209   4.111   0.307 -0.1148  1.2975 -0.9147
   15MOL   H131 9679   4.273   4.272   0.341 -1.3915 -1.0461 -2.1714
   15MOL   H132 9680   4.037   4.153   0.475  1.8803 -2.1466 -1.1913
   15MOL   H133 9681   4.123   4.296   0.530 -1.4735 -0.5665  0.7823
   15MOL   H134 9682   4.008   4.250   0.246  1.9786  1.1020 -1.4800
   15MOL   H135 9683   4.093   4.395   0.287 -0.8404  1.7002  1.1332
   15MOL   H136 9684   3.838   4.435   0.302  1.2004  1.7397  0.2430
   15MOL   H137 9685   3.926   4.465   0.457  1.1712 -1.9533  2.2910
   15MOL   N138 9686   3.738   4.351   0.555 -0.1967 -0.2004 -0.1777
   15MOL   C139 9687   3.646   4.279   0.646 -0.5302  0.0534 -0.1500
   15MOL   C140 9688   3.712   4.269   0.784  0.5328  0.0301  0.5550
   15MOL   C141 9689   3.844   4.187   0.780  0.5328  0.2496 -0.4192
   15MOL   C142 9690   3.947   4.255   0.868 -0.2948  0.3895 -0.4210
   15MOL   C143 9691   4.087   4.192   0.860 -0.2357 -0.0864 -0.0818
   15MOL   C144 9692   4.186   4.272   0.947  0.0593  0.3302  0.3477
   15MOL   C145 9693   4.322   4.197   0.966  0.2757  0.3086 -0.0474
   15MOL   C146 9694   4.425   4.283   1.046 -0.0797 -0.4949 -0.1261
   15MOL   C147 9695   4.573   4.267   1.002 -0.0262  0.0932 -0.7929
   15MOL   C148 9696   4.668   4.312   1.110 -0.0576  0.2690  0.1480
   15MOL   C149 9697   4.812   4.288   1.065  0.8877 -0.3511  0.6493
   15MOL   O150 9698   4.836   4.317   0.944  0.0407 -0.0463  0.0209
   15MOL   H151 9699   3.769   4.445   0.576 -0.7907  0.2023 -1.0601
   15MOL   H152 9700   3.544   4.316   0.652 -0.1856  0.9557  0.3128
   15MOL   H153 9701   3.620   4.177   0.618 -0.9371  0.8175 -2.6724
   15MOL   H154 9702   3.641   4.248   0.863 -0.1969  0.6347  0.0736
   15MOL   H155 9703   3.731   4.373   0.807  1.1505  0.7387 -2.7908
   15MOL   H156 9704   3.830   4.085   0.817 -0.3774 -0.7566 -3.3957
   15MOL   H157 9705   3.872   4.165   0.677  0.0399 -0.0698 -0.4902
   15MOL   H158 9706   3.919   4.274   0.971 -1.4426 -2.8794 -0.0832
   15MOL   H159 9707   3.955   4.354   0.823  1.4317 -0.2952 -1.6807
   15MOL   H160 9708   4.114   4.178   0.755  0.3216  2.3986 -0.3060
   15MOL   H161 9709   4.088   4.087   0.890  1.7518 -0.2193 -0.5824
   15MOL   H162 9710   4.190   4.370   0.901 -2.2893 -0.2739 -1.2605
   15MOL   H163 9711   4.159   4.287   1.052  0.4892 -0.2117  0.5375
   15MOL   H164 9712   4.351   4.177   0.863  1.0340 -0.0325  0.2306
   15MOL   H165 9713   4.299   4.097   1.005 -0.2669  0.3413 -0.2711
   15MOL   H166 9714   4.400   4.387   1.068  1.2689 -0.1709 -0.1301
   15MOL   H167 9715   4.414   4.236   1.143 -1.8805  0.2046  0.0290
   15MOL   H168 9716   4.587   4.336   0.918 -1.2033  1.2773 -0.0305
   15MOL   H169 9717   4.597   4.166   0.967 -0.4727 -0.6384  0.9478
   15MOL   H170 9718   4.654   4.264   1.206  0.6712  1.3019  0.7808
   15MOL   H171 9719   4.656   4.418   1.135 -0.6414 -0.3305  2.4657
   15MOL   N172 9720   4.899   4.248   1.153  0.1671 -0.1776  0.8027
   15MOL   C173 9721   5.038   4.215   1.125  0.6960 -0.4819  0.6616
   15MOL   C174 9722   5.110   4.346   1.117  0.6103  0.1719 -0.3281
   15MOL   C175 9723   5.254   4.332   1.046  0.3326 -0.0722  0.3056
   15MOL   C176 9724   5.326   4.471   1.019  0.4549  0.1913 -0.3659
   15MOL   C177 9725   5.469   4.454   0.963 -1.1057  0.0909  0.0207
   15MOL   C178 9726   5.576   4.423   1.070 -0.6134  0.2699 -0.6398
   15MOL   C179 9727   5.710   4.403   1.000  0.0453 -0.1517  0.2389
   15MOL   C180 9728   5.827   4.359   1.087  0.0340  0.6458  0.2937
   15MOL   C181 9729   5.955   4.356   1.010  0.6572 -0.8279  0.3387
   15MOL   C182 9730   6.073   4.297   1.088  0.1504  0.3002 -1.1083
   15MOL   C183 9731   6.201   4.322   1.007 -0.0715 -0.6273 -0.5269
   15MOL   O184 9732   6.209   4.293   0.887  0.6740 -0.1099  0.2463
   15MOL   H185 9733   4.867   4.225   1.246  0.0734  0.7150  1.0030
   15MOL   H186 9734   5.074   4.150   1.206  0.4146  0.3037  1.4167
   15MOL   H187 9735   5.047   4.153   1.036 -0.2176 -0.7025  0.7165
   15MOL   H188 9736   5.122   4.399   1.211  2.9134  1.3656 -1.2733
   15MOL   H189 9737   5.052   4.413   1.053 -0.4603 -1.5267 -1.2017
   15MOL   H190 9738   5.323   4.266   1.099  1.5223  1.7532  1.0432
   15MOL   H191 9739   5.245   4.288   0.946  3.0637  0.0083 -0.0117
   15MOL   H192 9740   5.323   4.540   1.104 -2.7060  0.9557 -1.0412
   15MOL   H193 9741   5.271   4.521   0.940 -1.1694  2.4621  2.1051
   15MOL   H194 9742   5.500   4.550   0.921 -0.2079 -0.1993  0.0129
   15MOL   H195 9743   5.474   4.384   0.880  0.6274  0.0178  0.1551
   15MOL   H196 9744   5.575   4.498   1.149 -0.0894 -0.0889 -0.2939
   15MOL   H197 9745   5.554   4.334   1.128 -0.5348 -0.0054 -1.0304
   15MOL   H198 9746   5.741   4.491   0.943  1.1338  0.1614  1.2955
   15MOL   H199 9747   5.707   4.326   0.923  1.5249  0.3604 -0.3417
   15MOL   H200 9748   5.836   4.424   1.174 -0.9319  0.9285  0.1849
   15MOL   H201 9749   5.810   4.261   1.133 -2.2911  1.1802  0.5899
   15MOL   H202 9750   5.971   4.450   0.957 -1.9104 -0.3450  0.3607
   15MOL   H203 9751   5.939   4.293   0.923 -0.8372  0.0300 -0.0212
   15MOL   H204 9752   6.054   4.193   1.116 -0.5818 -0.1157 -3.1101
   15MOL   H205 9753   6.082   4.351   1.182  0.4130  0.1322 -1.0343
   15MOL   N206 9754   6.297   4.400   1.066  0.5789 -0.0340  0.0528
   15MOL   C207 9755   6.421   4.452   0.996  0.8180 -0.2229 -0.4166
   15MOL   C208 9756   6.402   4.601   0.990 -0.6505  0.6677 -0.4590
   15MOL   C209 9757   6.542   4.672   0.979  0.1992 -0.1735 -0.3101
   15MOL   C210 9758   6.532   4.826   0.971 -1.1488  0.3708 -0.2727
   15MOL   C211 9759   6.497   4.879   0.831 -0.1600  0.0497  0.1630
   15MOL   C212 9760   6.458   5.029   0.836 -0.6300  0.2315  0.1701
   15MOL   C213 9761   6.449   5.094   0.691  0.0946 -1.1927  0.7067
   15MOL   C214 9762   6.438   5.251   0.711  0.1447 -0.7654 -1.1177
   15MOL   C215 9763   6.374   5.316   0.583  0.8528  0.2260  0.0459
   15MOL   C216 9764   6.228   5.279   0.563  0.3125  0.1949 -1.1096
   15MOL   C217 9765   6.148   5.356   0.461 -0.1849 -1.2125 -0.0920
   15MOL   O218 9766   6.210   5.437   0.387 -1.0392 -1.0319  0.5128
   15MOL   H219 9767   6.284   4.434   1.160  2.7699 -0.8852  0.6829
   15MOL   H220 9768   6.443   4.411   0.897  1.0582  0.0778 -0.4897
   15MOL   H221 9769   6.511   4.426   1.052  1.2664 -1.0508 -1.4999
   15MOL   H222 9770   6.350   4.630   1.081  1.0440 -0.3209  0.8309
   15MOL   H223 9771   6.337   4.621   0.905 -2.4797 -1.6018  0.3761
   15MOL   H224 9772   6.598   4.635   1.065  0.6266 -1.2226 -1.0309
   15MOL   H225 9773   6.598   4.629   0.896 -0.0513 -1.4186  0.1521
   15MOL   H226 9774   6.632   4.867   0.988 -1.8050  1.8105  0.1913
   15MOL   H227 9775   6.463   4.865   1.046  1.1951 -1.3235  2.9157
   15MOL   H228 9776   6.412   4.827   0.786 -0.3807  0.5127  0.0469
   15MOL   H229 9777   6.585   4.848   0.773 -0.3621 -0.9777  0.3918
   15MOL   H230 9778   6.364   5.057   0.883  0.0573  0.6994  1.2876
   15MOL   H231 9779   6.540   5.077   0.889 -0.4810 -0.9487  0.9968
   15MOL   H232 9780   6.370   5.053   0.628 -0.1284  0.3238 -0.0072
   15MOL   H233 9781   6.538   5.078   0.630 -0.1703  1.4127 -0.4292
   15MOL   H234 9782   6.371   5.278   0.793  0.9002  1.4964 -1.2217
   15MOL   H235 9783   6.535   5.298   0.728  0.0429  0.0005 -2.5589
   15MOL   H236 9784   6.444   5.291   0.503  2.2956  2.9432  0.3994
   15MOL   H237 9785   6.379   5.424   0.595 -1.8246  0.3951 -0.1113
   15MOL   H238 9786   6.168   5.289   0.654  2.0568  3.6001 -0.2543
   15MOL   H239 9787   6.226   5.172   0.544 -0.5124 -0.1511  0.7859
   15MOL   N240 9788   6.014   5.358   0.468  0.1391  0.1145  0.2408
   15MOL   C241 9789   5.927   5.452   0.394 -0.3114  0.1575 -0.4385
   15MOL   C242 9790   5.907   5.419   0.246 -0.1850  0.8381 -0.6766
   15MOL   C243 9791   5.832   5.533   0.182 -0.0492 -0.0031  0.5572
   15MOL   C244 9792   5.812   5.515   0.030  0.0123  0.5460  0.0813
   15MOL   C245 9793   5.944   5.542   7.667 -0.4160 -0.1474  0.0524
   15MOL   C246 9794   5.914   5.548   7.515 -0.2258 -0.0932 -0.5009
   15MOL   C247 9795   6.029   5.518   7.417  0.3591  0.0240 -0.4830
   15MOL   C248 9796   6.158   5.598   7.440  0.6202  0.9769  0.1383
   15MOL   C249 9797   6.134   5.747   7.432  0.7770 -0.6475  0.0425
   15MOL   C250 9798   6.265   5.820   7.473  0.0790  0.2060  0.1516
   15MOL   C251 9799   6.391   5.781   7.390 -0.0571 -0.0855  0.3521
   15MOL   O252 9800   6.395   5.791   7.266  0.0292 -0.1366  0.1127
   15MOL   H253 9801   5.979   5.295   0.538  3.8023  0.2560  2.3555
   15MOL   H254 9802   5.977   5.548   0.401 -0.6973  0.2504  1.1381
   15MOL   H255 9803   5.831   5.468   0.442 -0.1124  1.2705 -0.4168
   15MOL   H256 9804   5.856   5.325   0.225  1.7179 -0.5246  0.5745
   15MOL   H257 9805   6.006   5.398   0.204  0.1508 -1.2760  1.0677
   15MOL   H258 9806   5.738   5.551   0.235 -1.0724 -0.8512 -0.9662
   15MOL   H259 9807   5.880   5.630   0.201  0.2281 -0.1262  0.4814
   15MOL   H260 9808   5.737   5.585   7.708  1.0178  2.5673  1.7004
   15MOL   H261 9809   5.781   5.414   0.005  0.2935  0.1637  1.2797
   15MOL   H262 9810   6.018   5.464   7.688  0.1009  0.6221  1.1134
   15MOL   H263 9811   5.985   5.636   7.703  1.9289 -0.7678 -0.9007
   15MOL   H264 9812   5.839   5.471   7.501 -0.3712  0.0554 -0.5468
   15MOL   H265 9813   5.872   5.646   7.492 -0.6748 -0.6342 -2.0233
   15MOL   H266 9814   6.005   5.543   7.314 -0.9344  0.8048 -0.0148
   15MOL   H267 9815   6.059   5.413   7.418 -1.1221 -0.4085  1.3720
   15MOL   H268 9816   6.182   5.568   7.542 -1.4582  2.0658  0.9799
   15MOL   H269 9817   6.232   5.574   7.364 -0.6787  1.0600 -1.1739
   15MOL   H270 9818   6.047   5.773   7.491 -0.0932  1.1352 -1.9327
   15MOL   H271 9819   6.109   5.785   7.332  1.2300  1.4384  0.7046
   15MOL   H272 9820   6.281   5.819   7.580 -0.4098  0.2065  0.2237
   15MOL   H273 9821   6.242   5.925   7.454 -2.6987 -0.4852 -0.4019
   15MOL   N274 9822   6.496   5.735   7.461  0.3939 -0.1114 -0.1036
   15MOL   C275 9823   6.606   5.669   7.400 -0.1661  0.2798 -0.4948
   15MOL   C276 9824   6.671   5.586   7.504  0.2960  0.3253 -0.0203
   15MOL   C277 9825   6.794   5.518   7.450  0.1312 -0.0812  0.3807
   15MOL   C278 9826   6.873   5.436   7.557  0.3161 -0.1371  0.0690
   15MOL   C279 9827   7.005   5.372   7.519 -0.0369 -0.2901  0.0767
   15MOL   C280 9828   7.109   5.473   7.482  0.3286  0.5830  0.3794
   15MOL   C281 9829   7.248   5.415   7.463  0.4481 -0.2270  0.0994
   15MOL   C282 9830   7.340   5.523   7.416  0.5151  0.2932  0.1202
   15MOL   C283 9831   7.471   5.471   7.367 -0.3820 -0.1633  0.6309
   15MOL   C284 9832   7.562   5.415   7.476 -0.0877 -0.6064 -0.6177
   15MOL   C285 9833   7.703   5.382   7.419 -0.4162 -0.5741  0.5124
   15MOL   O286 9834   0.030   5.440   7.313  0.5627  0.0130  0.0387
   15MOL   H287 9835   6.484   5.726   7.560 -0.5526 -2.4254 -0.4110
   15MOL   H288 9836   6.665   5.751   7.359 -0.1479  0.0955 -0.8415
   15MOL   H289 9837   6.569   5.606   7.318  1.3980  0.1132 -1.0861
   15MOL   H290 9838   6.597   5.518   7.547  0.6523  0.8091  1.3840
   15MOL   H291 9839   6.709   5.638   7.591  0.8507 -0.4978  0.2402
   15MOL   H292 9840   6.770   5.455   7.364 -0.6086 -3.2804  2.8364
   15MOL   H293 9841   6.869   5.579   7.400  1.4012 -1.0746  1.0514
   15MOL   H294 9842   6.805   5.359   7.592  1.2995 -0.9619  0.1949
   15MOL   H295 9843   6.881   5.506   7.640  0.2069  0.0452 -0.0745
   15MOL   H296 9844   6.981   5.307   7.435  0.9312 -1.9521  1.0750
   15MOL   H297 9845   7.052   5.326   7.606 -1.0954 -0.1744  0.7239
   15MOL   H298 9846   7.086   5.539   7.398  0.9318 -2.2092 -2.0495
   15MOL   H299 9847   7.129   5.538   7.567  2.3668  1.3385 -0.6148
   15MOL   H300 9848   7.243   5.338   7.387  2.8710 -1.0981  0.7698
   15MOL   H301 9849   7.292   5.369   7.551  2.4022  1.1675 -0.1113
   15MOL   H302 9850   7.292   5.568   7.329  1.8861 -1.9242 -1.8491
   15MOL   H303 9851   7.374   5.600   7.486  0.2172  0.2148  0.3527
   15MOL   H304 9852   7.510   5.557   7.312 -2.7216 -0.6528 -1.9208
   15MOL   H305 9853   7.453   5.400   7.286  0.1937  1.1942 -0.7063
   15MOL   H306 9854   7.523   5.325   7.524  1.7168 -0.5469  0.9942
   15MOL   H307 9855   7.581   5.479   7.561  0.7422 -1.7468  0.0752
   15MOL   N308 9856   0.053   5.291   7.484  0.3140 -0.3745  0.6219
   15MOL   C309 9857   0.173   5.225   7.441 -0.1650 -0.0729  0.9866
   15MOL   C310 9858   0.193   5.081   7.485 -0.5908  0.0787 -0.0440
   15MOL   C311 9859   0.207   5.046   7.639  0.4300 -0.2509  0.0922
   15MOL   C312 9860   0.300   5.137   0.005 -0.0465 -0.3092 -0.4021
   15MOL   C313 9861   0.280   5.094   0.151 -0.1331  0.1861  0.0196
   15MOL   C314 9862   0.346   5.198   0.252 -0.9371 -0.0439 -0.0168
   15MOL   C315 9863   0.316   5.176   0.395 -0.0706  1.0381 -0.3440
   15MOL   C316 9864   0.181   5.224   0.449  0.2948 -0.4238 -0.0418
   15MOL   C317 9865   0.160   5.197   0.604 -0.0427  0.0329  0.3225
   15MOL   C318 9866   0.019   5.237   0.668 -0.2692  0.6278 -0.1864
   15MOL   C319 9867   7.711   5.384   0.695  0.2456 -0.3759 -0.4711
   15MOL   O320 9868   0.086   5.451   0.745 -0.2429  0.0469 -0.0199
   15MOL   H321 9869   0.019   5.279   7.579  1.0263 -0.2604  0.8919
   15MOL   H322 9870   0.254   5.282   7.489 -0.4325 -0.4936  1.9431
   15MOL   H323 9871   0.192   5.239   7.335 -4.5162  0.7062  0.2305
   15MOL   H324 9872   0.287   5.054   7.437 -1.0765 -0.4095 -0.7332
   15MOL   H325 9873   0.114   5.016   7.447 -0.0955 -0.1160 -0.7527
   15MOL   H326 9874   0.104   5.058   7.674  1.2268  0.2258  2.3617
   15MOL   H327 9875   0.233   4.941   7.645 -0.3120 -0.4837 -0.5882
   15MOL   H328 9876   0.272   5.242   7.712  1.1640 -0.0891 -1.9859
   15MOL   H329 9877   0.405   5.134   7.693  0.3767 -2.2827  1.2664
   15MOL   H330 9878   0.310   4.990   0.169 -0.4960  0.2050  0.7345
   15MOL   H331 9879   0.172   5.097   0.162 -0.2259  0.6745 -0.9280
   15MOL   H332 9880   0.454   5.189   0.240 -1.4957 -1.7651 -4.9761
   15MOL   H333 9881   0.325   5.300   0.219 -1.6969 -0.0001  0.5779
   15MOL   H334 9882   0.397   5.221   0.452  0.8067 -1.3013  0.3174
   15MOL   H335 9883   0.336   5.073   0.424 -0.5720  0.7157 -1.1302
   15MOL   H336 9884   0.163   5.329   0.426  1.0730 -0.1446  0.6041
   15MOL   H337 9885   0.094   5.178   0.402 -0.6877  0.5976  0.7508
   15MOL   H338 9886   0.243   5.236   0.663  0.6724  0.5755 -1.0182
   15MOL   H339 9887   0.161   5.088   0.610  2.5861 -0.0847 -1.4075
   15MOL   H340 9888   7.712   5.177   0.756  0.4282 -0.6643 -0.8747
   15MOL   H341 9889   7.654   5.199   0.605 -0.6845  2.0897 -0.5734
   15MOL   N342 9890   7.600   5.440   0.648 -0.0279 -0.0700  0.3917
   15MOL   C343 9891   7.582   5.580   0.638  0.1691 -0.1221 -0.1994
   15MOL   C344 9892   7.453   5.628   0.708  0.2141 -0.0152  0.3524
   15MOL   C345 9893   7.435   5.785   0.707 -0.2936 -0.0237  0.0890
   15MOL   C346 9894   7.303   5.823   0.780  0.1138  0.4338  0.2368
   15MOL   C347 9895   7.240   5.959   0.748 -0.3248 -0.3408  0.0853
   15MOL   C348 9896   7.105   5.987   0.822 -0.3509 -0.7762  0.6672
   15MOL   C349 9897   7.064   6.133   0.821 -0.4347 -0.3870 -0.2427
   15MOL   C350 9898   6.996   6.175   0.687  0.3696  0.4636 -0.1359
   15MOL   C351 9899   6.959   6.324   0.686  0.0453  0.5706  0.1970
   15MOL   C352 9900   6.874   6.362   0.570  0.6613 -0.2659 -0.2662
   15MOL   C353 9901   6.722   6.329   0.582 -0.2187  1.1568  0.1718
   15MOL   O354 9902   6.675   6.369   0.687 -0.0690  0.2124  0.1680
   15MOL   H355 9903   7.525   5.384   0.610  0.2982 -0.2631  0.0299
   15MOL   H356 9904   7.660   5.646   0.676  0.4100 -0.1339 -0.6688
   15MOL   H357 9905   7.576   5.610   0.533  3.3052  1.7919  0.1089
   15MOL   H358 9906   7.456   5.577   0.805  0.6194 -0.4645  0.1117
   15MOL   H359 9907   7.368   5.577   0.662  0.4642 -2.1057  2.1266
   15MOL   H360 9908   7.520   5.834   0.754 -1.0667  0.4250  1.0440
   15MOL   H361 9909   7.433   5.827   0.606  0.0715 -0.9754 -0.3185
   15MOL   H362 9910   7.321   5.831   0.888  2.0155  1.2194 -0.1126
   15MOL   H363 9911   7.229   5.744   0.766  1.1683 -0.0573 -2.8288
   15MOL   H364 9912   7.222   5.959   0.641 -1.1613  0.2635  0.2160
   15MOL   H365 9913   7.318   6.028   0.779 -1.4014  1.0305 -0.1909
   15MOL   H366 9914   7.025   5.921   0.789 -0.9723  1.0844 -1.6603
   15MOL   H367 9915   7.111   5.956   0.927  0.5179  0.0329  0.8655
   15MOL   H368 9916   7.146   6.204   0.833 -0.1761 -0.5769 -0.8791
   15MOL   H369 9917   7.009   6.143   0.915  1.6917 -0.6725  1.0735
   15MOL   H370 9918   7.064   6.162   0.603 -2.2458 -2.6523 -1.9050
   15MOL   H371 9919   6.912   6.105   0.677  1.3731 -0.8902  0.7044
   15MOL   H372 9920   7.051   6.380   0.701  0.4970 -0.4742  1.4554
   15MOL   H373 9921   6.909   6.346   0.780 -1.0425  0.6469 -0.3906
   15MOL   H374 9922   6.919   6.317   0.482 -0.8884  2.8799 -2.7670
   15MOL   H375 9923   6.880   6.471   0.561 -0.3446  0.0444  2.4504
   15MOL   N376 9924   6.659   6.259   0.485 -0.1423 -0.0231 -0.5456
   15MOL   C377 9925   6.514   6.223   0.492  0.5444 -0.1868 -0.0677
   15MOL   C378 9926   6.474   6.103   0.404  0.7389  0.0839  0.4443
   15MOL   C379 9927   6.537   6.107   0.263  0.2462  0.4726 -1.2119
   15MOL   C380 9928   6.451   6.026   0.161 -0.7896 -0.2532 -1.2461
   15MOL   C381 9929   6.517   6.011   0.027  0.1216 -0.2147 -0.5989
   15MOL   C382 9930   6.522   6.142   7.659 -0.8708 -0.2063 -0.5187
   15MOL   C383 9931   6.567   6.116   7.517  0.2968  0.2108  0.1825
   15MOL   C384 9932   6.563   6.240   7.423 -0.5161 -0.5160 -0.5850
   15MOL   C385 9933   6.631   6.205   7.291  0.7554 -0.4367 -0.1803
   15MOL   C386 9934   6.560   6.100   7.196 -0.3856 -0.6978  0.2050
   15MOL   C387 9935   6.422   6.145   7.148 -0.2382 -0.7982  0.2456
   15MOL   O388 9936   6.406   6.263   7.113 -0.6171  0.5394  0.1028
   15MOL   H389 9937   6.709   6.219   0.407 -2.6828 -1.3376 -1.5642
   15MOL   H390 9938   6.480   6.200   0.593  1.6467  0.8805  0.5602
   15MOL   H391 9939   6.457   6.312   0.462 -1.0707 -2.0602 -2.7845
   15MOL   H392 9940   6.366   6.113   0.392  0.5799  1.5636  2.9109
   15MOL   H393 9941   6.498   6.009   0.453  0.7681 -0.2700 -0.2303
   15MOL   H394 9942   6.536   6.211   0.231  1.0247  0.3146 -1.7760
   15MOL   H395 9943   6.640   6.071   0.258 -0.3495 -1.1931 -1.9793
   15MOL   H396 9944   6.347   6.056   0.152 -1.0833 -0.9982 -0.3466
   15MOL   H397 9945   6.429   5.934   0.214 -0.6354  1.3024  1.6405
   15MOL   H398 9946   6.487   5.919   7.693  1.8341 -1.1659  0.0823
   15MOL   H399 9947   6.617   5.970   0.045 -0.3027 -1.2338 -0.5698
   15MOL   H400 9948   6.419   6.178   7.649 -0.5628  0.6681 -0.5826
   15MOL   H401 9949   6.586   6.217   7.706 -1.6680  1.5430 -2.1665
   15MOL   H402 9950   6.504   6.033   7.485  1.0306  0.1663 -1.2136
   15MOL   H403 9951   6.670   6.082   7.531  0.1857  0.2734  1.1589
   15MOL   H404 9952   6.458   6.266   7.411  0.3257  2.9852 -0.9351
   15MOL   H405 9953   6.612   6.330   7.460  0.6684 -1.5207  0.3362
   15MOL   H406 9954   6.733   6.167   7.300  0.1596 -1.9095  0.5338
   15MOL   H407 9955   6.647   6.298   7.236  0.0559  0.2590  0.7765
   15MOL   H408 9956   6.556   6.005   7.250  1.8682 -0.3216  1.0990
   15MOL   H409 9957   6.620   6.088   7.106 -0.9010  0.6503 -0.3292
   15MOL   N410 9958   6.320   6.059   7.152  0.5640  0.2406  0.0698
   15MOL   C411 9959   6.188   6.094   7.095  0.0229  0.1511  0.0195
   15MOL   C412 9960   6.074   5.994   7.112  0.3036  0.0009 -0.2248
   15MOL   C413 9961   5.944   6.043   7.036  0.4016 -0.5212  0.0170
   15MOL   C414 9962   5.815   5.995   7.107  0.4322  0.1772  0.1610
   15MOL   C415 9963   5.805   5.840   7.098  0.5165  0.1402 -0.3049
   15MOL   C416 9964   5.687   5.794   7.178  0.5445  0.0274  0.5144
   15MOL   C417 9965   5.659   5.640   7.176 -0.5557 -0.3801  0.2331
   15MOL   C418 9966   5.527   5.610   7.253 -0.8385  0.7414 -0.1476
   15MOL   C419 9967   5.482   5.465   7.258  0.1799 -0.3083  0.0990
   15MOL   C420 9968   5.350   5.444   7.325  0.3810  0.2982 -0.3752
   15MOL   C421 9969   5.232   5.486   7.237  0.3397  0.7101 -0.0114
   15MOL   O422 9970   5.227   5.450   7.118  0.1413 -0.5707  0.0932
   15MOL   H423 9971   6.326   5.963   7.184 -1.4971  0.3739  0.9297
   15MOL   H424 9972   6.155   6.192   7.130 -0.6758  0.1694 -0.6815
   15MOL   H425 9973   6.208   6.104   6.989  0.1902 -0.1623  0.0213
   15MOL   H426 9974   6.052   5.996   7.218  0.0311  1.3198 -0.2910
   15MOL   H427 9975   6.101   5.893   7.083 -2.0530 -1.2422  1.7370
   15MOL   H428 9976   5.949   6.152   7.030  0.4698 -0.5375 -0.2788
   15MOL   H429 9977   5.954   6.010   6.932  0.9778 -0.4260  0.0419
   15MOL   H430 9978   5.728   6.041   7.060 -1.0268 -1.5187  1.1243
   15MOL   H431 9979   5.820   6.046   7.204 -0.7647 -0.4117  0.5358
   15MOL   H432 9980   5.896   5.797   7.139  0.9633  1.4239  0.0963
   15MOL   H433 9981   5.799   5.799   6.998  0.6859 -2.0501  0.5726
   15MOL   H434 9982   5.690   5.821   7.284  0.8656 -1.4695  0.8975
   15MOL   H435 9983   5.599   5.839   7.132 -0.2575 -0.8458  1.1798
   15MOL   H436 9984   5.746   5.601   7.230  0.8162 -0.4122 -1.9440
   15MOL   H437 9985   5.659   5.607   7.072 -1.4947 -1.2310  0.4948
   15MOL   H438 9986   5.547   5.639   7.356  0.0043 -0.3185  0.0007
   15MOL   H439 9987   5.446   5.672   7.215 -0.3302  1.8436  0.5419
   15MOL   H440 9988   5.557   5.400   7.302 -0.1813 -0.3752  0.6182
   15MOL   H441 9989   5.481   5.428   7.155  0.7846 -1.4164  0.4883
   15MOL   H442 9990   5.354   5.487   7.425 -0.8469 -0.8444  0.1957
   15MOL   H443 9991   5.336   5.335   7.324 -1.1087  0.4698  0.0818
   15MOL   N444 9992   5.137   5.555   7.293 -0.0134 -0.3415  0.1911
   15MOL   C445 9993   5.006   5.597   7.235  0.0927  0.6471 -0.3089
   15MOL   C446 9994   4.933   5.683   7.341 -0.1201  0.6288  0.0666
   15MOL   C447 9995   4.883   5.605   7.458 -0.0053 -0.1088 -0.0566
   15MOL   C448 9996   4.783   5.692   7.548 -1.0204  0.5602 -0.6264
   15MOL   C449 9997   4.698   5.595   7.628  0.3276 -0.1112 -0.4263
   15MOL   C450 9998   4.563   5.648   7.669  0.4073  0.5930 -0.5523
   15MOL   C451 9999   4.453   5.638   7.561  0.4300  0.0127 -0.1556
   15MOL   C45210000   4.324   5.711   7.605  0.2434 -0.2936 -0.4074
   15MOL   C45310001   4.217   5.702   7.489  0.0331  0.7460 -0.2118
   15MOL   C45410002   4.260   5.775   7.360 -0.3798  0.4500 -0.0530
   15MOL   C45510003   4.162   5.780   7.246  0.5602 -0.1777 -0.5184
   15MOL   O45610004   4.039   5.752   7.265 -0.1548  0.8095 -0.4515
   15MOL   H45710005   5.161   5.594   7.383  0.4797 -1.6287  0.6430
   15MOL   H45810006   5.011   5.664   7.148 -1.5116 -1.1760 -1.8570
   15MOL   H45910007   4.958   5.503   7.206 -1.6690  1.9558 -1.7408
   15MOL   H46010008   4.851   5.738   7.294 -1.3973 -0.1795  1.3477
   15MOL   H46110009   5.004   5.760   7.373 -1.0693  1.8854 -0.7559
   15MOL   H46210010   4.828   5.519   7.418 -1.2015 -0.7509  2.8538
   15MOL   H46310011   4.974   5.570   7.507  1.6534  1.2044 -2.1202
   15MOL   H46410012   4.721   5.753   7.483  0.6663  2.0671 -0.8609
   15MOL   H46510013   4.853   5.760   7.596 -0.6124 -0.1481 -0.2062
   15MOL   H46610014   4.757   5.551   7.710  1.3626  0.3659 -0.9083
   15MOL   H46710015   4.673   5.513   7.561 -1.2817  0.4221 -0.4882
   15MOL   H46810016   4.521   5.597   0.040  2.6310 -0.5881 -0.1308
   15MOL   H46910017   4.576   5.752   7.699 -1.6147  0.4721  0.8542
   15MOL   H47010018   4.427   5.536   7.534  1.9740  0.3162 -2.9871
   15MOL   H47110019   4.494   5.703   7.483 -1.1390  0.0893 -0.9247
   15MOL   H47210020   4.285   5.659   7.693 -1.3214  1.2752 -0.1482
   15MOL   H47310021   4.352   5.814   7.630  0.1663 -0.0620 -1.2607
   15MOL   H47410022   4.136   5.758   7.535  1.1091  0.1059  2.5454
   15MOL   H47510023   4.175   5.602   7.479 -0.0446  0.6768  0.7554
   15MOL   H47610024   4.360   5.741   7.330 -0.0218  2.2071 -0.9004
   15MOL   H47710025   4.271   5.880   7.385 -1.3715  0.8282 -1.1840
   15MOL   N47810026   4.210   5.807   7.127 -0.5618  0.2441 -0.1607
   15MOL   C47910027   4.130   5.807   7.001  0.0468 -0.8366 -0.3394
   15MOL   C48010028   4.215   5.793   6.878 -0.4918  0.4189 -0.1399
   15MOL   C48110029   4.317   5.678   6.901 -0.1349 -0.0346  0.7029
   15MOL   C48210030   4.382   5.647   6.764  0.0548 -0.2333 -0.1757
   15MOL   C48310031   4.460   5.511   6.789  0.0353  0.2779  0.1085
   15MOL   C48410032   4.548   5.480   6.663  0.5983  0.4727 -0.4632
   15MOL   C48510033   4.624   5.345   6.685  0.2359 -0.2710 -0.1298
   15MOL   C48610034   4.740   5.343   6.794  1.3573 -0.4251  0.1941
   15MOL   C48710035   4.865   5.420   6.752  0.6345 -0.6162 -0.0607
   15MOL   C48810036   4.979   5.423   6.859 -0.1628  0.2712 -0.3466
   15MOL   C48910037   5.078   5.302   6.844 -0.1444 -0.2561  0.0811
   15MOL   O49010038   5.095   5.250   6.735  0.0464  0.0921 -0.1881
   15MOL   H49110039   4.308   5.831   7.121 -0.2609 -0.6665  0.8996
   15MOL   H49210040   4.049   5.734   6.998 -1.0620  0.3147  0.8671
   15MOL   H49310041   4.083   5.905   7.007  3.2843  0.7478 -0.1242
   15MOL   H49410042   4.271   5.887   6.875  2.0520 -1.0392 -0.1621
   15MOL   H49510043   4.158   5.759   6.791  1.0754  0.8336 -1.3637
   15MOL   H49610044   4.390   5.716   6.972 -2.1049  1.1742  2.1451
   15MOL   H49710045   4.270   5.587   6.939 -0.2049  0.6654  2.3701
   15MOL   H49810046   4.442   5.730   6.727 -0.0891 -0.0335  0.0397
   15MOL   H49910047   4.303   5.630   6.690 -0.4574  3.5941 -0.5989
   15MOL   H50010048   4.379   5.437   6.790 -0.6133  0.9680  1.5116
   15MOL   H50110049   4.522   5.514   6.879  1.1423 -1.5187 -0.5599
   15MOL   H50210050   4.483   5.475   6.575  0.0688  0.0067 -0.0435
   15MOL   H50310051   4.622   5.560   6.655  1.1790 -0.1356 -1.2088
   15MOL   H50410052   4.666   5.297   6.597 -0.8896  0.4586 -1.0726
   15MOL   H50510053   4.542   5.282   6.719 -2.3459  2.9163 -0.2614
   15MOL   H50610054   4.708   5.391   6.887  0.4167 -2.4032  0.9069
   15MOL   H50710055   4.775   5.243   6.819  0.4674 -0.8494 -0.2620
   15MOL   H50810056   4.836   5.525   6.745 -1.1335 -1.1165 -0.7466
   15MOL   H50910057   4.897   5.373   6.659 -0.1826 -1.0384 -0.1328
   15MOL   H51010058   4.946   5.433   6.962  0.3805  0.2402 -0.1714
   15MOL   H51110059   5.038   5.513   6.841  3.0376 -2.1060 -2.2384
   15MOL   N51210060   5.138   5.255   6.956  0.3786 -0.0696  0.6318
   15MOL   C51310061   5.214   5.135   6.971  0.4681  0.7049  0.0695
   15MOL   C51410062   5.323   5.155   7.065  0.9238 -0.6568 -0.3170
   15MOL   C51510063   5.414   5.034   7.071 -0.2281  0.7835  0.5719
   15MOL   C51610064   5.471   5.022   7.213  0.1987  0.1149 -0.3463
   15MOL   C51710065   5.587   4.931   7.214 -0.1046 -0.3004 -0.1313
   15MOL   C51810066   5.713   4.965   7.136 -0.2981 -0.4139  0.2677
   15MOL   C51910067   5.795   5.095   7.172  0.4413  0.0578  0.6292
   15MOL   C52010068   5.799   5.203   7.068  0.5765  0.4100 -0.5211
   15MOL   C52110069   5.888   5.317   7.118  0.1321 -0.4819  0.1927
   15MOL   C52210070   5.913   5.424   7.009  0.1124 -0.3270 -0.3576
   15MOL   C52310071   6.002   5.366   6.899 -0.3025  0.4802 -0.5218
   15MOL   O52410072   6.125   5.360   6.916  0.5692 -0.0908 -0.8412
   15MOL   H52510073   5.134   5.316   7.036  1.5298 -1.1891  1.5610
   15MOL   H52610074   5.142   5.061   7.006 -0.7755  1.6051 -0.5361
   15MOL   H52710075   5.253   5.094   6.877 -0.4384  0.5289 -0.2382
   15MOL   H52810076   5.291   5.186   7.164 -1.2892  1.5290 -1.6392
   15MOL   H52910077   5.387   5.235   7.028 -2.0214  0.7155 -2.6953
   15MOL   H53010078   5.362   4.942   7.043 -0.1767  1.0087 -0.2776
   15MOL   H53110079   5.493   5.047   6.997  0.8169  0.2777  1.5781
   15MOL   H53210080   5.403   4.989   7.293 -0.3822 -0.6260 -1.1280
   15MOL   H53310081   5.515   5.118   7.238 -0.1185  0.9460 -2.8396
   15MOL   H53410082   5.561   4.834   7.173  0.0083 -1.2133  1.9362
   15MOL   H53510083   5.619   4.913   7.316  0.6947 -0.8813 -0.4760
   15MOL   H53610084   5.780   4.880   7.150 -1.0526 -1.0294  0.1911
   15MOL   H53710085   5.698   4.961   7.028 -0.0246 -1.0023  0.2485
   15MOL   H53810086   5.896   5.059   7.190 -0.5142 -1.6917  2.7166
   15MOL   H53910087   5.765   5.133   7.270 -1.9406 -0.6573  0.2196
   15MOL   H54010088   5.825   5.157   6.972  0.6003 -0.8509  0.0802
   15MOL   H54110089   5.696   5.239   7.058  0.2587 -0.3238  0.0506
   15MOL   H54210090   5.985   5.281   7.152 -0.4682 -2.2497  0.0885
   15MOL   H54310091   5.834   5.366   7.199  0.4575 -0.0226  0.1348
   15MOL   H54410092   5.961   5.513   7.049 -0.3984 -0.6240  0.9532
   15MOL   H54510093   5.818   5.458   6.968  0.4699 -0.0925 -0.9866
   15MOL   N54610094   5.934   5.305   6.797  0.0723  0.1315  0.1663
   15MOL   C54710095   5.990   5.204   6.711 -0.0706  0.7162 -0.6933
   15MOL   C54810096   5.986   5.256   6.565  0.0660 -0.4946 -0.0513
   15MOL   C54910097   6.063   5.169   6.470  0.7387  0.3315 -0.2920
   15MOL   C55010098   6.052   5.218   6.319  0.3153  0.2712 -1.5016
   15MOL   C55110099   6.158   5.145   6.233 -0.2920  0.5797  0.3190
   15MOL   C55210100   6.156   5.183   6.087 -0.8708  0.3530  0.0915
   15MOL   C55310101   6.248   5.098   6.001  0.5572 -0.1506  0.1555
   15MOL   C55410102   6.260   5.151   5.857 -0.2886  0.3517 -0.0933
   15MOL   C55510103   6.139   5.123   5.766  0.6566 -0.3703 -0.0526
   15MOL   C55610104   6.164   5.161   5.621 -0.0741  0.1254  0.4857
   15MOL   C55710105   6.255   5.061   5.548  0.7929 -0.4582 -0.1386
   15MOL   O55810106   6.376   5.069   5.564 -0.2630 -0.4326  0.4696
   15MOL   H55910107   5.835   5.295   6.812 -0.0821  1.6613  0.2281
   15MOL   H56010108   6.093   5.180   6.737 -0.6463 -1.8888 -0.6495
   15MOL   H56110109   5.935   5.110   6.723 -0.9766  1.2618 -0.5445
   15MOL   H56210110   6.028   5.357   6.569  0.7508 -0.7265 -1.2166
   15MOL   H56310111   5.884   5.273   6.532  0.6229  3.2548 -0.1034
   15MOL   H56410112   6.161   5.155   6.514 -0.8265 -0.2057  3.1672
   15MOL   H56510113   6.019   5.073   6.496  0.3221  0.0146 -2.0864
   15MOL   H56610114   6.075   5.323   6.302  0.1006  0.3767 -1.1386
   15MOL   H56710115   5.948   5.191   6.298 -0.1216 -0.9585  1.9300
   15MOL   H56810116   6.134   5.039   6.245  0.7761  0.3206  0.1943
   15MOL   H56910117   6.255   5.157   6.281 -0.3411  1.8385  0.1197
   15MOL   H57010118   6.052   5.182   6.055 -0.6977  0.8130 -0.4933
   15MOL   H57110119   6.188   5.287   6.081  1.3426 -0.3190 -0.0370
   15MOL   H57210120   6.212   4.995   6.009 -0.1864  0.1448  0.6958
   15MOL   H57310121   6.349   5.099   6.043  0.6972 -0.1887 -0.1793
   15MOL   H57410122   6.285   5.257   5.852 -0.1001  0.3207  0.1764
   15MOL   H57510123   6.346   5.104   5.808  0.9558  0.4001  1.9751
   15MOL   H57610124   6.053   5.177   5.807  0.2330 -1.8629  1.0762
   15MOL   H57710125   6.115   5.018   5.781 -0.1483  0.0232  1.5935
   15MOL   H57810126   6.216   5.257   5.617  0.3646 -0.1109  0.5750
   15MOL   H57910127   6.061   5.168   5.586 -0.4658 -0.7181  1.4498
   15MOL   N58010128   6.197   4.975   5.468  0.0399 -0.3372 -0.6390
   15MOL   C58110129   6.253   4.900   5.356 -0.4975  0.5825  0.5476
   15MOL   C58210130   6.228   4.756   5.378 -0.1256  0.0865 -0.1055
   15MOL   C58310131   6.291   4.656   5.274  0.6911  0.2011 -0.6371
   15MOL   C58410132   6.260   4.513   5.304  0.2330 -0.3016  0.5634
   15MOL   C58510133   6.345   4.413   5.225 -0.2405 -0.6644 -0.2290
   15MOL   C58610134   6.325   4.417   5.064  0.4247 -0.1620 -0.7528
   15MOL   C58710135   6.422   4.325   4.990 -0.4862 -0.3943 -0.5515
   15MOL   C58810136   6.393   4.327   4.837  0.2964 -0.1680  0.2895
   15MOL   C58910137   6.450   4.206   4.764 -0.0734 -0.3569  0.2018
   15MOL   C59010138   6.411   4.188   4.616 -0.2277  0.0335 -0.1213
   15MOL   C59110139   6.257   4.146   4.599  0.4077  0.3020 -0.2327
   15MOL   O59210140   6.210   4.070   4.683 -0.1495 -0.4989 -0.4433
   15MOL   H59310141   6.096   4.978   5.471  0.0704  1.0415 -0.7165
   15MOL   H59410142   6.204   4.931   5.264  1.8327  3.3147  0.1839
   15MOL   H59510143   6.359   4.919   5.341  0.0883 -2.1637  1.0154
   15MOL   H59610144   6.121   4.740   5.382 -0.1662  0.7194  2.1113
   15MOL   H59710145   6.278   4.730   5.471 -0.3688 -0.8184 -0.2275
   15MOL   H59810146   6.246   4.686   5.180  0.0261  2.1418  0.2758
   15MOL   H59910147   6.399   4.668   5.264  0.7859 -0.9124 -1.0748
   15MOL   H60010148   6.156   4.487   5.282  0.9530 -2.5165 -0.3868
   15MOL   H60110149   6.255   4.505   5.412 -0.5298 -1.9959  0.4333
   15MOL   H60210150   6.312   4.313   5.251 -1.9604  0.0502  0.3700
   15MOL   H60310151   6.450   4.415   5.255 -0.6911  1.5789  1.3220
   15MOL   H60410152   6.225   4.392   5.030 -0.6363  2.7872  0.1450
   15MOL   H60510153   6.352   4.518   5.034  0.3526  0.3182  0.7629
   15MOL   H60610154   6.392   4.230   5.034 -0.3408 -0.3172 -0.2805
   15MOL   H60710155   6.525   4.344   5.020  0.0481 -1.2828 -1.7962
   15MOL   H60810156   6.287   4.337   4.815  0.0725 -1.5986  0.6935
   15MOL   H60910157   6.438   4.418   4.797 -1.7946  1.1979  0.9535
   15MOL   H61010158   6.421   4.120   4.824  0.2421  0.0744  0.9752
   15MOL   H61110159   6.558   4.202   4.777  0.1402 -1.0599 -1.7053
   15MOL   H61210160   6.478   4.107   4.585 -0.1076 -0.5547  1.5988
   15MOL   H61310161   6.441   4.276   4.560  0.9773 -0.4365 -0.2345
   15MOL   N61410162   6.186   4.208   4.500 -0.1581  0.0945  0.1655
   15MOL   C61510163   6.043   4.179   4.477  0.1568 -0.6639  0.4793
   15MOL   C61610164   5.964   4.299   4.423 -0.1583  0.5143 -0.0037
   15MOL   C61710165   5.812   4.268   4.412 -0.6811 -0.1666 -0.1598
   15MOL   C61810166   5.727   4.376   4.336  0.1315 -0.5067  1.0908
   15MOL   C61910167   5.778   4.402   4.193  0.4743 -0.1567 -0.8835
   15MOL   C62010168   5.699   4.506   4.109 -0.4017  0.4176  0.4934
   15MOL   C62110169   5.576   4.436   4.059 -1.0006 -0.2446 -0.4213
   15MOL   C62210170   5.488   4.534   3.973 -0.1531  0.2729 -0.6360
   15MOL   C62310171   5.375   4.460   3.905 -0.1774 -0.4002  0.2267
   15MOL   C62410172   5.407   4.339   3.806  0.0799 -0.7917 -1.1043
   15MOL   C62510173   5.508   4.360   3.699 -0.2855 -0.7387  0.0802
   15MOL   O62610174   5.532   4.470   3.647 -0.1745 -0.1158 -0.0322
   15MOL   H62710175   6.228   4.276   4.438 -1.6764 -0.5402 -1.5949
   15MOL   H62810176   6.004   4.149   4.574 -0.7687  1.7136  0.8865
   15MOL   H62910177   6.021   4.102   4.403  0.1511 -2.0807  1.9234
   15MOL   H63010178   6.012   4.323   4.328  0.6788 -1.7258 -0.1643
   15MOL   H63110179   5.985   4.386   4.486  3.2631  0.3011 -0.7661
   15MOL   H63210180   5.801   4.167   4.371  1.0730 -1.6671  2.8727
   15MOL   H63310181   5.782   4.252   4.516 -2.4507 -2.1400 -0.9267
   15MOL   H63410182   5.727   4.470   4.390  0.0551  1.4998 -2.2378
   15MOL   H63510183   5.621   4.353   4.346 -0.6470  1.6302 -1.5107
   15MOL   H63610184   5.779   4.310   4.135 -0.6115  1.2668 -3.2725
   15MOL   H63710185   5.884   4.428   4.191  1.2423 -3.0708  0.4313
   15MOL   H63810186   5.672   4.588   4.177  0.4334  1.6880 -0.6766
   15MOL   H63910187   5.762   4.538   4.026  0.9527 -1.5830  0.7163
   15MOL   H64010188   5.518   4.387   4.137 -0.6183 -1.5539 -0.9444
   15MOL   H64110189   5.612   4.353   3.998 -0.2860  0.3647 -0.8317
   15MOL   H64210190   5.435   4.606   4.035  2.0277  1.5294 -0.1635
   15MOL   H64310191   5.547   4.599   3.908 -1.5427  0.6642 -1.5283
   15MOL   H64410192   5.324   4.532   3.841 -1.4518 -0.7067  0.8757
   15MOL   H64510193   5.309   4.439   3.989 -1.4098  0.0658 -0.6022
   15MOL   H64610194   5.306   4.321   3.769 -0.4367 -0.6212  0.1871
   15MOL   H64710195   5.435   4.252   3.866  1.6385  0.7118  0.3951
   15MOL   N64810196   5.585   4.255   3.662  0.1216 -0.0996 -0.2667
   15MOL   C64910197   5.663   4.250   3.545 -0.4184  0.5480 -0.1302
   15MOL   C65010198   5.743   4.123   3.517 -0.0096 -0.8625  0.5706
   15MOL   C65110199   5.831   4.129   3.385  0.1555 -0.2953 -0.3204
   15MOL   C65210200   5.866   3.983   3.333 -0.2202  0.9621  0.1241
   15MOL   C65310201   5.959   3.987   3.211  0.2343 -0.3811 -0.0851
   15MOL   C65410202   5.990   3.840   3.173 -0.1688 -0.2724  0.7043
   15MOL   C65510203   6.038   3.834   3.024  0.2890 -0.1042  0.0793
   15MOL   C65610204   6.178   3.893   2.992  0.7391  0.4500 -0.3607
   15MOL   C65710205   6.222   3.876   2.847 -0.9013 -0.2281 -0.4096
   15MOL   C65810206   6.351   3.954   2.808  0.3088  0.1458 -0.4039
   15MOL   C65910207   6.478   3.931   2.895  0.5332  0.1801  0.5065
   15MOL   O66010208   6.486   3.971   3.011 -0.3604 -0.3991 -0.0161
   15MOL   H66110209   5.571   4.172   3.718  0.3408  0.6115  0.8568
   15MOL   H66210210   5.730   4.335   3.538 -0.7887  0.8217 -0.3411
   15MOL   H66310211   5.586   4.269   3.470  1.7465  1.7471 -2.1201
   15MOL   H66410212   5.673   4.040   3.513 -4.6381  2.8981 -0.7136
   15MOL   H66510213   5.807   4.113   3.604 -0.2869  0.1660  0.8967
   15MOL   H66610214   5.769   4.172   3.307  0.4324 -0.2961 -0.5370
   15MOL   H66710215   5.913   4.200   3.390  1.2623 -1.7106  3.5071
   15MOL   H66810216   5.774   3.939   3.294  0.9053 -0.4459 -0.9978
   15MOL   H66910217   5.910   3.915   3.407  0.8913  1.1687 -0.3296
   15MOL   H67010218   6.058   4.029   3.229  1.3519 -1.4321 -3.3138
   15MOL   H67110219   5.900   4.036   3.134 -1.1466 -1.2668  0.4020
   15MOL   H67210220   6.057   3.796   3.247 -0.7885 -3.1343 -0.3557
   15MOL   H67310221   5.897   3.783   3.182 -1.1145  1.4541  2.3417
   15MOL   H67410222   5.971   3.892   2.961 -0.4390 -0.4410  0.5382
   15MOL   H67510223   6.036   3.730   2.993  0.0349  0.1888 -0.8916
   15MOL   H67610224   6.176   3.997   3.025  1.4408 -0.2322  1.9034
   15MOL   H67710225   6.255   3.848   3.054 -1.2806 -2.0182  0.4791
   15MOL   H67810226   6.156   3.915   2.770 -1.8700 -0.2527  0.4104
   15MOL   H67910227   6.235   3.768   2.839  0.1333 -0.3742  2.6417
   15MOL   H68010228   6.331   4.061   2.816 -0.4278  0.0761 -1.2600
   15MOL   H68110229   6.369   3.925   2.704 -1.2507  2.6954 -1.4316
   15MOL   H68210230   6.560   3.882   2.844  0.7213  0.7945  0.2144
   16MOL     N110231   1.366   4.505   6.540  0.0971 -0.0801  0.2480
   16MOL     C210232   1.266   4.602   6.506 -0.1643 -0.1263 -0.0612
   16MOL     C310233   1.135   4.543   6.458 -0.2636 -0.3756  0.0931
   16MOL     C410234   1.034   4.659   6.422 -0.4146  0.4795  0.5204
   16MOL     C510235   0.909   4.598   6.356 -0.1712 -0.0774  0.1469
   16MOL     C610236   0.800   4.691   6.329 -0.1623  0.9544 -0.0184
   16MOL     C710237   0.661   4.636   6.289 -0.0648  0.6441 -0.0482
   16MOL     C810238   0.571   4.746   6.235 -0.2541  0.3006  0.1754
   16MOL     C910239   0.547   4.858   6.332 -0.5496  0.0132  0.3533
   16MOL    C1010240   0.473   4.814   6.455 -0.1748  0.5055 -0.4407
   16MOL    C1110241   0.376   4.929   6.515 -0.1744  0.6113  0.4142
   16MOL    C1210242   0.444   5.028   6.617 -0.2839 -0.4626 -0.3197
   16MOL    O1310243   0.498   4.984   6.715  0.2937  0.1654  0.8864
   16MOL    H1410244   1.364   4.473   6.636  3.1980  0.0558  0.4088
   16MOL    H1510245   1.299   4.667   6.424  2.0473  1.8186  2.2934
   16MOL    H1610246   1.235   4.664   6.590  1.2489  2.2317 -1.2149
   16MOL    H1710247   1.101   4.475   6.536 -1.1524  0.2875  0.2865
   16MOL    H1810248   1.149   4.479   6.371 -0.0174 -1.2999  0.7995
   16MOL    H1910249   1.007   4.715   6.511 -2.3497 -1.1582  1.0020
   16MOL    H2010250   1.074   4.732   6.351 -0.9827 -1.3489 -1.7302
   16MOL    H2110251   0.875   4.523   6.428  1.2228 -0.1432  0.7484
   16MOL    H2210252   0.928   4.544   6.264  2.0430  0.3047  0.3686
   16MOL    H2310253   0.826   4.751   6.242  0.0193  0.3836 -0.3584
   16MOL    H2410254   0.796   4.764   6.410  1.9382  3.4565 -2.0601
   16MOL    H2510255   0.673   4.561   6.211 -2.2892  1.3693 -1.1295
   16MOL    H2610256   0.603   4.595   6.372  1.9876  1.0059  1.5880
   16MOL    H2710257   0.475   4.702   6.207 -0.7587 -0.9070  3.5578
   16MOL    H2810258   0.611   4.793   6.146  0.6019 -1.7824 -0.5854
   16MOL    H2910259   0.639   4.906   6.366 -0.2297  0.1321 -0.6575
   16MOL    H3010260   0.493   4.941   6.286 -1.5988 -1.8732 -1.8818
   16MOL    H3110261   0.539   4.787   6.538 -0.9866  0.5354  0.2244
   16MOL    H3210262   0.411   4.728   6.433  1.0173 -0.2132 -1.0358
   16MOL    H3310263   0.295   4.884   6.573 -0.1531 -0.3082 -0.2648
   16MOL    H3410264   0.336   4.996   6.438 -0.5412 -0.7100 -0.5620
   16MOL    H3510265   1.454   4.553   6.525 -1.4731  2.7464 -0.2725
   16MOL    N3610266   0.432   5.159   6.604  0.3381  0.4184  0.7468
   16MOL    C3710267   0.501   5.258   6.687  0.0084  0.5093  0.5508
   16MOL    C3810268   0.586   5.347   6.595 -0.0166  0.1367  0.4369
   16MOL    C3910269   0.713   5.283   6.537 -0.0502  0.0883  0.0646
   16MOL    C4010270   0.799   5.373   6.462 -0.0388 -0.4340 -0.1242
   16MOL    C4110271   0.937   5.307   6.434  0.3527 -0.5255 -0.2563
   16MOL    C4210272   1.032   5.393   6.344 -0.0704 -0.2392  0.0178
   16MOL    C4310273   1.174   5.341   6.339 -0.1316  0.3385 -0.3830
   16MOL    C4410274   1.269   5.426   6.279 -0.2741  0.0955  0.4185
   16MOL    C4510275   1.408   5.358   6.278 -0.0318  0.0252  0.0432
   16MOL    C4610276   1.524   5.452   6.246  0.0595 -0.0343 -0.9599
   16MOL    C4710277   1.535   5.564   6.346 -0.1457 -0.2019 -0.3836
   16MOL    O4810278   1.538   5.536   6.469  0.3833  0.6680 -0.0474
   16MOL    H4910279   0.389   5.196   6.520  0.3722 -0.5954  0.2754
   16MOL    H5010280   0.427   5.325   6.732  0.3803  0.8327  0.6880
   16MOL    H5110281   0.561   5.211   6.765 -0.4223 -0.6916  0.1756
   16MOL    H5210282   0.622   5.432   6.653 -2.2380  0.6209  1.1685
   16MOL    H5310283   0.526   5.395   6.517  1.1317  1.8390  0.5597
   16MOL    H5410284   0.768   5.233   6.616  0.9996 -0.1865 -0.8338
   16MOL    H5510285   0.699   5.189   6.484  2.1687  0.7597 -1.7815
   16MOL    H5610286   0.809   5.464   6.522 -2.1910 -0.8965  0.9947
   16MOL    H5710287   0.754   5.405   6.368 -0.3924  0.9488  0.5074
   16MOL    H5810288   0.935   5.202   6.405  1.1274 -0.9238  1.0558
   16MOL    H5910289   0.980   5.301   6.534  0.3855 -2.4739 -0.3716
   16MOL    H6010290   1.005   5.391   6.238 -0.6287 -0.6562  0.1636
   16MOL    H6110291   1.024   5.493   6.386 -1.8342 -0.4636  0.2437
   16MOL    H6210292   1.173   5.245   6.286  1.0526  0.2933 -0.3382
   16MOL    H6310293   1.204   5.319   6.442 -0.2174  3.0114  0.2310
   16MOL    H6410294   1.245   5.456   6.177 -1.1995  0.7094  0.8145
   16MOL    H6510295   1.278   5.512   6.345 -3.0972  0.3388  0.5463
   16MOL    H6610296   1.411   5.270   6.214  0.7963  0.0631  0.0285
   16MOL    H6710297   1.427   5.318   6.377  0.8100 -0.0013 -0.1276
   16MOL    H6810298   1.524   5.490   6.144  0.6174 -0.1619 -1.0082
   16MOL    H6910299   1.612   5.388   6.258 -1.0134 -1.4732 -0.6350
   16MOL    N7010300   1.554   5.691   6.306 -0.4704 -0.1186 -0.2042
   16MOL    C7110301   1.593   5.802   6.387 -0.8094 -0.2055 -0.6667
   16MOL    C7210302   1.662   5.911   6.302  0.1366 -0.0299 -0.6767
   16MOL    C7310303   1.556   5.973   6.204 -0.3323 -0.1153 -0.3296
   16MOL    C7410304   1.640   6.058   6.110 -0.6255  0.2460  0.6218
   16MOL    C7510305   1.556   6.148   6.016  1.3311  0.8475  0.3034
   16MOL    C7610306   1.630   6.248   5.921 -0.1127  0.0629 -0.2125
   16MOL    C7710307   1.726   6.347   5.995 -0.7646 -0.1222 -0.1292
   16MOL    C7810308   1.777   6.444   5.896 -0.2354 -0.6650  0.4085
   16MOL    C7910309   1.891   6.534   5.957 -0.2754 -0.1277 -0.0943
   16MOL    C8010310   1.970   6.605   5.853  0.0187  0.0972  0.2518
   16MOL    C8110311   2.098   6.670   5.908  0.0744  0.6980  0.2883
   16MOL    O8210312   2.099   6.711   6.026 -0.4470 -0.6794 -0.0629
   16MOL    H8310313   1.570   5.708   6.208 -0.1646 -0.1789 -0.1628
   16MOL    H8410314   1.515   5.843   6.451 -1.5152 -0.5429 -1.2975
   16MOL    H8510315   1.674   5.787   6.458 -0.9900  1.9876  0.0566
   16MOL    H8610316   1.753   5.876   6.251 -0.7459 -0.6235 -1.8727
   16MOL    H8710317   1.696   5.984   6.376 -0.9546  0.1897 -0.3865
   16MOL    H8810318   1.496   5.906   6.142 -2.0504 -0.5718  1.7743
   16MOL    H8910319   1.484   6.036   6.255 -0.3545  0.1054 -0.6299
   16MOL    H9010320   1.688   5.982   6.047 -0.0318  0.4251  0.8555
   16MOL    H9110321   1.719   6.110   6.165 -0.3196  0.2290  0.2006
   16MOL    H9210322   1.491   6.213   6.074 -1.6193 -0.4902 -1.3862
   16MOL    H9310323   1.485   6.095   5.953 -0.7701 -0.3159  3.4916
   16MOL    H9410324   1.678   6.179   5.851  0.5874  1.1453 -0.8022
   16MOL    H9510325   1.553   6.305   5.868 -0.5970  0.0171  0.4353
   16MOL    H9610326   1.804   6.281   6.033 -1.3223  0.2131  1.6555
   16MOL    H9710327   1.677   6.396   6.079 -0.0450 -0.2278  0.3623
   16MOL    H9810328   1.817   6.396   5.806  2.7804 -0.2252  1.4306
   16MOL    H9910329   1.702   6.510   5.852 -0.8615 -2.2910 -1.0422
   16MOL   H10010330   1.964   6.478   6.016 -1.0792  0.7950  1.8250
   16MOL   H10110331   1.850   6.603   6.031 -2.0901 -2.3544  1.0050
   16MOL   H10210332   1.914   6.688   5.811  0.3204  1.2840  2.1486
   16MOL   H10310333   1.997   6.539   5.771 -0.4400 -0.8082  0.8134
   16MOL   N10410334   2.203   6.671   5.825  0.7319  0.4066  0.1785
   16MOL   C10510335   2.332   6.719   5.855 -0.3425  0.3418 -0.1278
   16MOL   C10610336   2.429   6.685   5.749 -0.0744 -0.3600  0.2884
   16MOL   C10710337   2.564   6.759   5.765 -0.0226 -0.1152  0.6545
   16MOL   C10810338   2.660   6.715   5.658  0.7229 -0.0617 -0.0456
   16MOL   C10910339   2.742   6.587   5.685 -0.7064 -0.3207  0.3903
   16MOL   C11010340   2.855   6.598   5.788  0.5254 -0.1190  0.4516
   16MOL   C11110341   2.970   6.500   5.760 -0.0597  0.3516  0.3697
   16MOL   C11210342   3.084   6.530   5.856 -0.1146 -0.1348  0.1379
   16MOL   C11310343   3.189   6.424   5.850 -0.0288  0.3900  0.5251
   16MOL   C11410344   3.307   6.433   5.945  0.0860 -0.3648  0.0041
   16MOL   C11510345   3.395   6.307   5.938 -0.1713 -0.0840 -0.3760
   16MOL   O11610346   3.349   6.202   5.979  0.4391 -0.4410 -0.2024
   16MOL   H11710347   2.184   6.632   5.734 -1.5270 -1.6431  1.4785
   16MOL   H11810348   2.328   6.826   5.878  3.6944  0.4120  0.5986
   16MOL   H11910349   2.366   6.670   5.946 -0.9338 -1.0019 -0.6187
   16MOL   H12010350   2.391   6.708   5.650 -1.2849 -1.6124  0.4514
   16MOL   H12110351   2.445   6.577   5.746  1.9099 -0.0936  0.1883
   16MOL   H12210352   2.555   6.867   5.755  2.1979  0.0038 -0.1657
   16MOL   H12310353   2.612   6.754   5.863 -0.0424 -1.0068  0.6213
   16MOL   H12410354   2.724   6.799   5.630  0.9433  0.6499  2.5199
   16MOL   H12510355   2.601   6.687   5.571 -0.6122  1.6750  0.2774
   16MOL   H12610356   2.770   6.537   5.593 -0.9912 -0.1267  0.1966
   16MOL   H12710357   2.679   6.507   5.724  0.0060 -1.3398 -0.5204
   16MOL   H12810358   2.898   6.697   5.772  0.6944 -0.1297  0.8519
   16MOL   H12910359   2.819   6.582   5.890 -0.4753 -2.0599 -0.1927
   16MOL   H13010360   3.019   6.491   5.663 -0.9214  0.7165 -0.1047
   16MOL   H13110361   2.936   6.397   5.767  1.0579  0.0574  1.5661
   16MOL   H13210362   3.109   6.635   5.837 -2.4339  0.8327  2.2128
   16MOL   H13310363   3.036   6.532   5.953  0.4687 -0.5414  0.4402
   16MOL   H13410364   3.226   6.405   5.749 -0.4790  1.0449  0.2336
   16MOL   H13510365   3.135   6.333   5.878 -0.8063  0.2406 -1.3554
   16MOL   H13610366   3.277   6.451   6.048 -1.1963  1.2723 -0.6264
   16MOL   H13710367   3.368   6.519   5.920  0.2676 -0.2367  0.8684
   16MOL   N13810368   3.515   6.324   5.880  0.3360 -0.0071  0.3094
   16MOL   C13910369   3.614   6.226   5.855 -0.1132 -1.3739 -0.1192
   16MOL   C14010370   3.700   6.273   5.738  0.0928 -0.1751 -0.5563
   16MOL   C14110371   3.814   6.176   5.708  0.2294  0.5499 -0.7600
   16MOL   C14210372   3.920   6.229   5.611 -0.5952 -0.3146 -0.3763
   16MOL   C14310373   3.864   6.233   5.464  0.0920 -0.1799  0.0825
   16MOL   C14410374   3.977   6.258   5.366  0.0810 -0.1341  0.1748
   16MOL   C14510375   3.928   6.292   5.224 -0.9806  0.2933 -0.3406
   16MOL   C14610376   4.038   6.338   5.121 -0.1940 -0.5030 -0.3295
   16MOL   C14710377   4.044   6.492   5.101 -0.1298  0.6476 -0.2607
   16MOL   C14810378   4.162   6.528   5.000 -0.7879 -0.3099  0.0674
   16MOL   C14910379   4.305   6.510   5.056 -0.2503 -0.2484 -0.7884
   16MOL   O15010380   4.325   6.427   5.136  0.4887  0.2500  0.3818
   16MOL   H15110381   3.532   6.419   5.850 -1.8785  0.3068 -0.0412
   16MOL   H15210382   3.668   6.209   5.948  1.1722 -1.2226 -0.8277
   16MOL   H15310383   3.566   6.130   5.838 -0.2138 -1.3134 -0.1736
   16MOL   H15410384   3.744   6.371   5.755  0.5601 -0.4023 -0.4146
   16MOL   H15510385   3.632   6.279   5.653 -0.6576 -0.8412  0.0006
   16MOL   H15610386   3.872   6.160   5.799 -0.5552  2.7386  0.1532
   16MOL   H15710387   3.777   6.077   5.681 -0.8749  1.1205 -1.3796
   16MOL   H15810388   4.006   6.162   5.605  0.1147  0.5596 -0.1246
   16MOL   H15910389   3.964   6.327   5.633 -1.3924 -0.1922  0.7165
   16MOL   H16010390   3.799   6.320   5.463  0.2071 -0.0946  0.0915
   16MOL   H16110391   3.801   6.150   5.430  0.0334  0.0866 -0.4645
   16MOL   H16210392   4.033   6.343   5.405 -1.3628  1.0797 -0.3485
   16MOL   H16310393   4.055   6.182   5.357  0.9266  0.3443  2.8723
   16MOL   H16410394   3.850   6.368   5.229 -0.7795  0.5747 -1.4959
   16MOL   H16510395   3.883   6.200   5.188 -2.0694  0.7372 -0.1276
   16MOL   H16610396   4.129   6.282   5.138  1.3492  1.9584 -0.1744
   16MOL   H16710397   4.005   6.302   5.023 -0.1846 -0.8074 -0.2205
   16MOL   H16810398   4.075   6.538   5.195 -1.5816 -1.7576  1.4411
   16MOL   H16910399   3.952   6.531   5.060 -0.6773 -0.8587 -0.4985
   16MOL   H17010400   4.150   6.633   4.976  1.7687  0.4465  1.8672
   16MOL   H17110401   4.153   6.473   4.906  1.4102  0.2774 -0.5214
   16MOL   N17210402   4.396   6.598   5.022  0.1180  0.0510  0.0178
   16MOL   C17310403   4.530   6.608   5.069  0.3858 -0.5513  0.1193
   16MOL   C17410404   4.639   6.558   4.968  0.5989 -0.5036  0.3090
   16MOL   C17510405   4.779   6.593   5.005  0.2497 -0.4890 -0.3770
   16MOL   C17610406   4.889   6.538   4.924  0.5466  0.2110 -0.2540
   16MOL   C17710407   4.902   6.594   4.780  0.4834 -0.2670  0.0168
   16MOL   C17810408   4.938   6.741   4.791 -0.7711  0.4029 -0.1713
   16MOL   C17910409   4.964   6.823   4.659 -0.0545 -0.6578 -0.5598
   16MOL   C18010410   5.091   6.778   4.589 -1.6600  0.2955 -0.7775
   16MOL   C18110411   5.121   6.834   4.447  0.4320 -0.5372 -0.2629
   16MOL   C18210412   5.246   6.765   4.387 -0.4211  0.1785 -0.4133
   16MOL   C18310413   5.287   6.837   4.252 -0.2146  0.3681 -0.4604
   16MOL   O18410414   5.207   6.897   4.178  0.2786 -0.2465  0.0828
   16MOL   H18510415   4.371   6.671   4.957 -0.5941  1.0185  1.3298
   16MOL   H18610416   4.561   6.710   5.093  3.6943 -1.3108 -0.7745
   16MOL   H18710417   4.542   6.554   5.163 -1.2698  0.0460  0.6975
   16MOL   H18810418   4.618   6.615   4.878 -2.0455  0.0897  1.2594
   16MOL   H18910419   4.626   6.456   4.931  5.5567 -0.0335 -3.1905
   16MOL   H19010420   4.787   6.697   5.036 -0.4600 -0.0588 -1.6311
   16MOL   H19110421   4.787   6.547   5.104  0.5697 -1.2813 -0.7651
   16MOL   H19210422   4.868   6.432   4.928 -0.1246  0.4086  1.8896
   16MOL   H19310423   4.977   6.561   4.984 -0.0198  2.1967 -0.1351
   16MOL   H19410424   4.809   6.578   4.726  1.2455 -1.2092 -1.0494
   16MOL   H19510425   4.969   6.541   4.712  0.5921 -0.7568  0.5007
   16MOL   H19610426   4.859   6.786   4.851 -2.4141 -1.5012 -0.8587
   16MOL   H19710427   5.022   6.749   4.860 -1.1067  0.7426  0.2046
   16MOL   H19810428   4.984   6.925   4.691  0.1916 -0.5471 -1.0548
   16MOL   H19910429   4.875   6.820   4.596  0.3849 -0.6136 -1.1977
   16MOL   H20010430   5.178   6.800   4.651 -1.5365  1.3630 -1.3127
   16MOL   H20110431   5.100   6.671   4.575 -0.5594  0.2798  0.0106
   16MOL   H20210432   5.129   6.940   4.469  2.7821 -1.0221  1.4597
   16MOL   H20310433   5.030   6.824   4.388  0.1079  0.7214  0.0090
   16MOL   H20410434   5.230   6.660   4.364 -0.8102  0.3070 -0.7369
   16MOL   H20510435   5.325   6.766   4.462 -1.1873 -0.6788  0.4122
   16MOL   N20610436   5.413   6.818   4.218  0.0187  0.9368 -1.0557
   16MOL   C20710437   5.486   6.912   4.139 -0.0931 -0.0196 -0.3432
   16MOL   C20810438   5.550   7.028   4.219 -0.2726  0.1497  0.4849
   16MOL   C20910439   5.592   7.152   4.141  0.0575 -0.3088  0.4591
   16MOL   C21010440   5.644   7.279   4.216  0.3174 -0.5965  0.2213
   16MOL   C21110441   5.694   7.383   4.114  0.6059  0.4464 -0.0535
   16MOL   C21210442   5.736   7.515   4.189  0.9460  1.2291 -0.2179
   16MOL   C21310443   5.778   7.618   4.094 -0.6672  0.0121 -0.4897
   16MOL   C21410444   5.813   0.037   4.165 -0.3821 -0.3263  0.2097
   16MOL   C21510445   5.835   0.157   4.076  0.3184  0.7820 -0.4220
   16MOL   C21610446   5.711   0.249   4.065 -0.1497 -0.0834 -0.3077
   16MOL   C21710447   5.682   0.327   4.196  0.4258  0.2148 -0.0998
   16MOL   O21810448   5.570   0.309   4.250 -0.1604  0.1271 -0.0898
   16MOL   H21910449   5.467   6.766   4.286 -0.2636  0.1559 -1.4147
   16MOL   H22010450   5.429   6.952   4.055 -1.4388  1.8739  1.4468
   16MOL   H22110451   5.553   6.848   4.080  1.9184  0.1642  1.6550
   16MOL   H22210452   5.626   7.003   4.294  0.1860  1.4685  0.4713
   16MOL   H22310453   5.469   7.063   4.283 -1.8311 -1.1874 -0.7172
   16MOL   H22410454   5.678   7.113   4.087  0.5455  2.1208 -0.6042
   16MOL   H22510455   5.513   7.173   4.069  1.1252  2.8149  0.1231
   16MOL   H22610456   5.724   7.257   4.286  0.0154  0.0931  0.7846
   16MOL   H22710457   5.567   7.324   4.278 -0.9692 -1.9896 -0.3151
   16MOL   H22810458   5.623   7.402   4.034 -0.2379 -0.2959  0.5017
   16MOL   H22910459   5.784   7.334   4.077 -0.3700 -0.1844 -1.6195
   16MOL   H23010460   5.661   7.549   4.260  0.9909 -0.7617  0.8105
   16MOL   H23110461   5.821   7.497   4.255  0.7240 -2.0919 -0.7894
   16MOL   H23210462   5.693   7.642   4.030 -3.2001  0.0067  2.7777
   16MOL   H23310463   5.867   7.598   4.034  0.8669  0.6557  1.5476
   16MOL   H23410464   5.729   0.044   4.234  0.4736 -1.3526  1.3810
   16MOL   H23510465   5.899   0.003   4.222 -2.0063 -1.5902  1.9768
   16MOL   H23610466   5.862   0.127   3.975 -1.1027 -2.2737  0.0459
   16MOL   H23710467   5.920   0.208   4.122 -1.0174  1.0268  1.8434
   16MOL   H23810468   5.624   0.187   4.045 -0.5325 -0.1589  1.5541
   16MOL   H23910469   5.719   0.318   3.981  0.7169  0.0379 -0.1271
   16MOL   N24010470   5.781   0.403   4.247 -0.9470  0.3846  0.0562
   16MOL   C24110471   5.774   0.483   4.373  0.4068  0.3227  0.4518
   16MOL   C24210472   5.854   0.426   4.491  0.9765 -0.5196 -0.2130
   16MOL   C24310473   5.822   0.279   4.526 -0.1943 -0.0578 -0.8503
   16MOL   C24410474   5.864   0.236   4.674 -0.2711  0.4485  0.0338
   16MOL   C24510475   5.842   0.084   4.712 -0.0875  0.3834  0.9707
   16MOL   C24610476   5.894   7.696   4.612  0.4104  0.5324 -0.4981
   16MOL   C24710477   5.905   7.543   4.646 -0.6104  0.0734  0.2360
   16MOL   C24810478   5.773   7.478   4.676 -0.2650 -0.9015 -0.0743
   16MOL   C24910479   5.675   7.473   4.555  0.4482  0.5294  0.6114
   16MOL   C25010480   5.539   7.408   4.581  0.0806 -0.9944 -0.3054
   16MOL   C25110481   5.547   7.260   4.590  0.0966 -0.0501  0.2855
   16MOL   O25210482   5.652   7.207   4.617 -0.2650  0.3154  0.4947
   16MOL   H25310483   5.871   0.393   4.201 -0.8655  2.0260 -0.1434
   16MOL   H25410484   5.667   0.478   4.394  0.6923 -1.5708  1.5849
   16MOL   H25510485   5.787   0.589   4.351 -1.3556  0.7265  1.2943
   16MOL   H25610486   5.813   0.471   4.582  1.8747 -0.3164  0.0943
   16MOL   H25710487   5.959   0.451   4.474  1.1109 -0.4401  0.7128
   16MOL   H25810488   5.715   0.261   4.524 -0.1743 -0.3619  0.4946
   16MOL   H25910489   5.864   0.210   4.452  2.0446  0.0632  0.2572
   16MOL   H26010490   5.801   0.291   4.744 -0.2640  0.6337 -0.1049
   16MOL   H26110491   5.969   0.259   4.694 -0.1282 -0.2300  0.0917
   16MOL   H26210492   5.734   0.081   4.728  0.1872  0.4417  2.9002
   16MOL   H26310493   5.872   0.069   4.816 -0.2253  0.7799  1.0670
   16MOL   H26410494   5.834   7.702   4.521  0.4874  0.0334 -0.5823
   16MOL   H26510495   5.998   0.002   4.591  0.4473  2.1274  1.2706
   16MOL   H26610496   5.974   7.532   4.729  1.4868 -0.5555 -1.5284
   16MOL   H26710497   5.953   7.486   4.566 -1.4514  1.0331 -0.9643
   16MOL   H26810498   5.805   7.380   4.709  0.3017 -0.0120  2.1097
   16MOL   H26910499   5.727   7.541   4.753 -1.7928  0.2116 -1.8658
   16MOL   H27010500   5.719   7.433   4.464 -0.7550 -1.0698  0.7143
   16MOL   H27110501   5.648   7.577   4.538 -0.5806  0.3312  1.0202
   16MOL   H27210502   5.467   7.433   4.502 -2.0374 -0.1066  1.8494
   16MOL   H27310503   5.506   7.441   4.679 -0.2818  0.3305 -0.8664
   16MOL   N27410504   5.428   7.190   4.575 -0.4001  0.1931 -0.2806
   16MOL   C27510505   5.408   7.052   4.587 -1.0898 -0.1600 -0.1969
   16MOL   C27610506   5.369   7.016   4.729  0.0889 -0.6350 -0.6092
   16MOL   C27710507   5.241   7.085   4.778 -0.7401 -0.1679  0.5130
   16MOL   C27810508   5.196   7.029   4.914 -0.5387 -0.1706  0.3499
   16MOL   C27910509   5.091   7.118   4.984  0.1238  0.2829  0.0292
   16MOL   C28010510   5.148   7.239   5.061  0.1153  0.1617  0.6681
   16MOL   C28110511   5.038   7.300   5.145  0.4431  0.0173 -0.2399
   16MOL   C28210512   5.071   7.440   5.204 -0.4192  0.3030 -0.0749
   16MOL   C28310513   4.942   7.488   5.283 -0.3317  0.1442  0.8877
   16MOL   C28410514   4.940   7.632   5.333 -0.2145 -0.1607  0.1478
   16MOL   C28510515   5.022   7.664   5.453  0.5746 -0.1502 -0.2578
   16MOL   O28610516   5.064   7.573   5.522 -0.8272 -0.1145  0.5114
   16MOL   H28710517   5.339   7.235   4.554 -1.3144 -0.1318  2.7239
   16MOL   H28810518   5.507   7.010   4.572 -0.0076  1.5395  1.9983
   16MOL   H28910519   5.346   7.022   4.503 -1.6627 -1.7325  0.7671
   16MOL   H29010520   5.434   7.036   4.814 -1.8812 -1.4189  1.1198
   16MOL   H29110521   5.357   6.908   4.722 -1.4554 -0.4153 -1.6658
   16MOL   H29210522   5.266   7.186   4.810  1.3305 -0.5382  0.1413
   16MOL   H29310523   5.149   7.082   4.722  0.1018  0.9711 -0.9631
   16MOL   H29410524   5.279   7.017   4.983  0.4184  2.1579 -0.3240
   16MOL   H29510525   5.147   6.934   4.895 -1.4011  0.4820 -0.7388
   16MOL   H29610526   5.035   7.049   5.047 -2.0494 -0.3911 -2.5385
   16MOL   H29710527   5.029   7.162   4.906 -1.1374 -0.4103  0.6292
   16MOL   H29810528   5.239   7.207   5.111  0.0797  1.0650  1.3209
   16MOL   H29910529   5.188   7.315   4.994 -1.6875 -0.9564 -1.7996
   16MOL   H30010530   5.003   7.224   5.215 -0.1722  0.7158  0.2106
   16MOL   H30110531   4.953   7.324   5.081  0.4805 -0.6163 -0.5282
   16MOL   H30210532   5.143   7.438   5.286 -0.3690 -0.7656 -0.1328
   16MOL   H30310533   5.096   7.500   5.117 -1.5890  0.4572 -0.3146
   16MOL   H30410534   4.922   7.423   5.367 -0.2710 -3.9160 -2.1102
   16MOL   H30510535   4.845   7.475   5.235 -1.1470  0.4255  2.4309
   16MOL   H30610536   4.836   7.659   5.353 -0.7015  0.5405 -3.0009
   16MOL   H30710537   4.970   7.699   5.252  0.0700  1.8849  1.8971
   16MOL   N30810538   5.028   0.078   5.484 -0.2020 -0.0574 -1.2537
   16MOL   C30910539   5.091   0.121   5.608 -0.2541 -0.4778 -0.1248
   16MOL   C31010540   4.994   0.111   5.724 -0.2607  0.2971  0.3400
   16MOL   C31110541   5.043   0.187   5.848  0.3292  0.5259  0.3673
   16MOL   C31210542   4.951   0.147   5.965  0.7713  0.1210 -0.4003
   16MOL   C31310543   4.940   0.242   6.076  0.1279  0.1400 -0.7923
   16MOL   C31410544   4.845   0.188   6.185  0.6488 -0.0819 -0.1777
   16MOL   C31510545   4.846   0.265   6.312  0.3512 -0.7919 -0.4791
   16MOL   C31610546   4.745   0.208   6.419  0.6858 -0.3592  0.1395
   16MOL   C31710547   4.771   0.258   6.564 -0.0744  0.0458 -0.3799
   16MOL   C31810548   4.711   0.170   6.678 -0.2100 -0.3867 -0.1780
   16MOL   C31910549   4.715   0.250   6.803  0.5637 -0.7357  0.1484
   16MOL   O32010550   4.812   0.315   6.834  0.1823  0.1363 -0.3023
   16MOL   H32110551   4.995   0.148   5.419 -0.4795 -0.0885 -1.1481
   16MOL   H32210552   5.134   0.221   5.609  0.0803 -0.6128  1.7882
   16MOL   H32310553   5.183   0.066   5.626  0.7224  1.0244 -0.3840
   16MOL   H32410554   4.972   0.007   5.749 -1.4469  1.0163  2.4350
   16MOL   H32510555   4.903   0.165   5.698 -1.2398 -0.2490  2.4616
   16MOL   H32610556   5.148   0.159   5.863  0.5500  1.6240  0.9667
   16MOL   H32710557   5.034   0.294   5.829  0.1741  0.4364 -0.0572
   16MOL   H32810558   4.985   0.046   5.989  0.7354  0.0030 -0.8488
   16MOL   H32910559   4.848   0.138   5.931  0.9795 -1.7167 -0.5782
   16MOL   H33010560   4.903   0.338   6.038 -2.3227 -0.1530  0.7745
   16MOL   H33110561   5.040   0.247   6.118  1.1228 -0.1151 -3.0337
   16MOL   H33210562   4.745   0.182   6.142 -0.7732  1.4725  2.7602
   16MOL   H33310563   4.864   0.083   6.205  2.5766  0.5605  1.5786
   16MOL   H33410564   4.818   0.369   6.301  1.2169 -0.7944 -3.2049
   16MOL   H33510565   4.949   0.260   6.344 -0.0277  0.2892  0.9046
   16MOL   H33610566   4.639   0.219   6.397  0.6713  1.7231  1.1530
   16MOL   H33710567   4.767   0.101   6.415 -0.0874 -0.5491  0.8861
   16MOL   H33810568   4.724   0.353   6.590  2.3996  1.2067  0.0371
   16MOL   H33910569   4.877   0.274   6.582  0.0870 -1.3973 -0.0537
   16MOL   H34010570   4.772   0.080   6.690  1.5327  0.8288  0.2796
   16MOL   H34110571   4.612   0.127   6.661 -0.3148  0.4186 -1.8050
   16MOL   N34210572   4.612   0.237   6.883  0.1248  0.2676  0.0456
   16MOL   C34310573   4.589   0.319   7.006 -0.1047  0.1185  0.0964
   16MOL   C34410574   4.645   0.252   7.133  0.3697 -0.5531  0.3538
   16MOL   C34510575   4.615   0.325   7.253 -0.2183  0.1151 -0.5612
   16MOL   C34610576   4.467   0.321   7.304 -0.7128  0.2488  0.5027
   16MOL   C34710577   4.463   0.369   7.443 -0.1626  0.3289 -0.1405
   16MOL   C34810578   4.468   0.264   7.551  0.3909 -0.9059  0.7595
   16MOL   C34910579   4.469   0.330   7.688  0.0908  0.7250 -0.4525
   16MOL   C35010580   4.526   0.238   0.083  0.2515 -0.6458 -0.3679
   16MOL   C35110581   4.537   0.314   0.217  1.1083 -0.5622  0.0471
   16MOL   C35210582   4.567   0.229   0.338 -0.2894  0.4571  0.7221
   16MOL   C35310583   4.441   0.160   0.396 -0.3799  0.1931 -0.6497
   16MOL   O35410584   4.427   0.037   0.380  0.0355  0.0476 -0.1062
   16MOL   H35510585   4.540   0.169   6.863  0.0290 -0.5820  3.0366
   16MOL   H35610586   4.628   0.419   6.988 -2.4210  0.7917 -1.4925
   16MOL   H35710587   4.485   0.342   7.029 -0.1060  0.4412 -0.2351
   16MOL   H35810588   4.753   0.249   7.124  0.6373  0.6814  2.7200
   16MOL   H35910589   4.606   0.152   7.154  0.3282 -0.8160 -0.9540
   16MOL   H36010590   4.671   0.273   7.331 -2.0839  0.1649  0.8228
   16MOL   H36110591   4.657   0.426   7.256  1.8743 -0.7238 -0.9603
   16MOL   H36210592   4.421   0.222   7.302 -1.4301  0.5784  0.5664
   16MOL   H36310593   4.399   0.373   7.236 -0.3028  0.9268  0.6176
   16MOL   H36410594   4.374   0.431   7.451 -0.2012  0.2741 -0.1511
   16MOL   H36510595   4.542   0.442   7.462  1.0982  0.2750 -4.5651
   16MOL   H36610596   4.381   0.202   7.531  0.3795 -1.3385  2.1435
   16MOL   H36710597   4.546   0.189   7.537  1.0251 -0.3961  1.5399
   16MOL   H36810598   4.366   0.351   7.715 -0.5978 -1.7978 -1.0323
   16MOL   H36910599   4.527   0.422   7.695 -1.2671  1.4519  1.7654
   16MOL   H37010600   4.464   0.149   0.094  1.0371 -0.8716  2.9122
   16MOL   H37110601   4.625   0.197   0.063  0.8798 -1.0696  3.2667
   16MOL   H37210602   4.456   0.384   0.236  1.0738 -0.7331  0.5355
   16MOL   H37310603   4.621   0.383   0.209  0.2609  0.3754 -0.9465
   16MOL   H37410604   4.604   0.288   0.422  1.7529 -1.1478  0.9845
   16MOL   H37510605   4.629   0.144   0.312 -0.2522  0.5028  0.6616
   16MOL   N37610606   4.348   0.231   0.462 -0.0815  0.0353 -0.3088
   16MOL   C37710607   4.248   0.166   0.549  0.3793  0.4223 -0.4023
   16MOL   C37810608   4.131   0.267   0.552  0.4356 -0.4481  0.2621
   16MOL   C37910609   4.010   0.209   0.640 -0.5776 -0.3629 -0.4166
   16MOL   C38010610   3.908   0.308   0.659  0.3251 -0.1302 -0.1814
   16MOL   C38110611   3.793   0.265   0.752  0.4732 -0.5572  0.4486
   16MOL   C38210612   3.663   0.344   0.720  0.1631  0.5197 -0.6566
   16MOL   C38310613   3.679   0.499   0.735  0.0042 -0.4195 -0.0767
   16MOL   C38410614   3.567   0.584   0.673 -0.4742 -0.3766  0.4151
   16MOL   C38510615   3.568   0.588   0.517 -0.5390  0.3027 -0.0113
   16MOL   C38610616   3.438   0.646   0.460  0.7605  0.3044 -0.3214
   16MOL   C38710617   3.317   0.549   0.449  0.0729 -0.6367  0.5915
   16MOL   O38810618   3.334   0.436   0.496 -0.4748 -0.1649 -0.6670
   16MOL   H38910619   4.343   0.332   0.456 -0.4061  0.1194  1.1942
   16MOL   H39010620   4.225   0.069   0.505  3.4750 -0.8903  0.7971
   16MOL   H39110621   4.301   0.161   0.644  0.7799  0.5477 -0.6205
   16MOL   H39210622   4.102   0.303   0.454 -0.3677  0.3034  0.7625
   16MOL   H39310623   4.183   0.353   0.594 -1.5597  0.8970  0.0522
   16MOL   H39410624   3.973   0.130   0.574 -1.9434  1.5399 -2.0003
   16MOL   H39510625   4.053   0.178   0.735  0.0211  3.0502  0.4932
   16MOL   H39610626   3.873   0.322   0.557 -1.7218  0.1062  0.5267
   16MOL   H39710627   3.949   0.404   0.691 -1.2062  0.1318  1.0773
   16MOL   H39810628   3.814   0.289   0.856 -2.9743 -0.4439  1.1857
   16MOL   H39910629   3.785   0.157   0.751  0.5804 -0.5675  0.7705
   16MOL   H40010630   3.621   0.320   0.623  2.7548  1.2393 -2.0092
   16MOL   H40110631   3.580   0.321   0.786  1.2431 -0.7346  0.2900
   16MOL   H40210632   3.779   0.531   0.705  0.7613 -0.3695  2.3839
   16MOL   H40310633   3.687   0.515   0.842  1.5850  0.1221 -0.2644
   16MOL   H40410634   3.471   0.547   0.709 -0.6421 -0.6007 -0.2487
   16MOL   H40510635   3.582   0.686   0.708  0.6288 -0.4562  0.2007
   16MOL   H40610636   3.581   0.486   0.482  0.8837  0.2048  0.7532
   16MOL   H40710637   3.655   0.642   0.478 -0.5290  0.3652  0.0975
   16MOL   H40810638   3.458   0.676   0.357 -1.0575  0.0621 -0.7613
   16MOL   H40910639   3.402   0.733   0.515 -1.5252 -0.2309 -0.9026
   16MOL   N41010640   3.204   0.596   0.389 -0.4804 -0.2353  0.2207
   16MOL   C41110641   3.090   0.525   0.333 -0.1507  0.8426 -0.3358
   16MOL   C41210642   2.980   0.514   0.443  0.6685  0.6375  0.8534
   16MOL   C41310643   2.850   0.442   0.388 -0.1203  0.2535 -0.0119
   16MOL   C41410644   2.746   0.403   0.501 -0.6382  0.0939 -0.4532
   16MOL   C41510645   2.794   0.274   0.568  0.2762  0.0426 -0.1118
   16MOL   C41610646   2.678   0.208   0.644 -0.2505 -0.5812 -0.3668
   16MOL   C41710647   2.715   0.077   0.713 -0.3996  0.2111  0.1036
   16MOL   C41810648   2.762   0.097   0.862  0.3290  0.1903 -0.2646
   16MOL   C41910649   2.802   7.676   0.917  0.4642  0.2885  0.3847
   16MOL   C42010650   2.888   7.680   1.046  0.7072 -0.1028  0.1759
   16MOL   C42110651   2.972   7.551   1.087  0.0087 -0.3449 -0.2972
   16MOL   O42210652   2.957   7.448   1.021 -0.5522 -0.3501  0.6526
   16MOL   H42310653   3.203   0.695   0.365 -2.3802 -0.2482  0.1124
   16MOL   H42410654   3.048   0.565   0.241  0.3329 -1.0651 -1.4055
   16MOL   H42510655   3.120   0.421   0.317 -0.3554  0.4710  1.5774
   16MOL   H42610656   2.957   0.614   0.481 -2.4015  0.0075  0.7017
   16MOL   H42710657   3.008   0.452   0.528  1.6832  0.7538  0.6119
   16MOL   H42810658   2.798   0.517   0.327 -2.2495 -0.7409  0.5204
   16MOL   H42910659   2.871   0.370   0.310 -1.8584 -1.5735  1.1585
   16MOL   H43010660   2.651   0.385   0.450 -1.7654  1.8531  0.9328
   16MOL   H43110661   2.713   0.469   0.582 -0.9422 -0.9414  0.2796
   16MOL   H43210662   2.872   0.287   0.644  0.2413  2.6422 -0.5044
   16MOL   H43310663   2.824   0.196   0.498 -0.9065 -0.8459  0.3494
   16MOL   H43410664   2.637   0.276   0.720 -1.0502 -2.5985  1.0420
   16MOL   H43510665   2.603   0.185   0.568  1.6991 -5.0079 -1.0696
   16MOL   H43610666   2.791   0.025   0.654 -1.4339 -1.7182  0.4065
   16MOL   H43710667   2.622   0.021   0.702 -0.5502  0.3201  0.8004
   16MOL   H43810668   2.847   0.165   0.856 -0.0640  0.7679  0.8145
   16MOL   H43910669   2.687   0.150   0.920 -0.3795 -2.2587  1.1275
   16MOL   H44010670   2.853   7.616   0.842  0.1963 -0.1342  0.5351
   16MOL   H44110671   2.705   7.631   0.939  0.7893 -0.4275  0.3796
   16MOL   H44210672   2.831   0.007   1.128  1.3171 -1.0824  1.1195
   16MOL   H44310673   2.959   0.043   1.021 -0.4733  1.3610  1.3610
   16MOL   N44410674   3.041   7.552   1.208  0.4542 -0.7259  0.2978
   16MOL   C44510675   3.098   7.435   1.265  0.0409 -0.1692 -0.3256
   16MOL   C44610676   3.244   7.459   1.303 -0.0158  0.1008  0.1719
   16MOL   C44710677   3.267   7.559   1.423 -0.0011  0.0138 -0.2596
   16MOL   C44810678   3.416   7.565   1.477  0.0529 -0.1151 -0.0810
   16MOL   C44910679   3.440   7.687   1.568 -0.2443  0.3521 -0.0985
   16MOL   C45010680   3.583   7.679   1.623 -0.1805  0.3981  0.2329
   16MOL   C45110681   3.620   0.089   1.701 -0.2524 -0.0278  0.0501
   16MOL   C45210682   3.741   0.088   1.790  0.3744  0.1149  0.0729
   16MOL   C45310683   3.753   0.226   1.858  0.4448 -0.4662  0.6827
   16MOL   C45410684   3.822   0.221   2.000 -0.5976 -0.6005  0.8026
   16MOL   C45510685   3.839   0.360   2.055  0.8396  0.1817  0.7216
   16MOL   O45610686   3.918   0.436   2.006  0.1833 -0.7682 -0.4431
   16MOL   H45710687   3.024   7.635   1.263  0.2762  0.0625 -0.9011
   16MOL   H45810688   3.035   7.417   1.352  1.5593  0.5585  0.9601
   16MOL   H45910689   3.099   7.348   1.200 -0.6244  0.8757 -1.7495
   16MOL   H46010690   3.309   7.478   1.218  0.6510  0.4382  0.7497
   16MOL   H46110691   3.291   7.373   1.350  0.9792  0.4934 -0.0962
   16MOL   H46210692   3.223   7.658   1.414  1.9571  1.0917  1.5711
   16MOL   H46310693   3.196   7.522   1.497 -1.2139  0.0807 -1.3769
   16MOL   H46410694   3.491   7.566   1.398  0.1535  0.5383  0.0174
   16MOL   H46510695   3.423   7.473   1.536 -1.3686  0.3326  0.8111
   16MOL   H46610696   3.363   7.691   1.645  1.9649  0.7353  2.1523
   16MOL   H46710697   3.434   0.068   1.517 -0.0704  0.5478  0.2509
   16MOL   H46810698   3.592   7.590   1.685  2.9405 -0.1081 -0.8061
   16MOL   H46910699   3.650   7.664   1.538  0.4516  0.6054  0.6907
   16MOL   H47010700   3.532   0.109   1.761 -1.8050 -0.1389 -2.1400
   16MOL   H47110701   3.634   0.171   1.631 -0.8188  0.0299  0.0065
   16MOL   H47210702   3.733   0.011   1.867 -1.1403  0.2701  0.0895
   16MOL   H47310703   3.832   0.078   1.731  0.0340  0.4559 -0.5068
   16MOL   H47410704   3.662   0.283   1.874  2.2200  2.1055  1.9792
   16MOL   H47510705   3.811   0.284   1.786 -0.4464 -1.8329 -1.1611
   16MOL   H47610706   3.917   0.170   1.985  0.4224  1.4501  0.0068
   16MOL   H47710707   3.760   0.160   2.065 -1.0238 -0.4037  0.5864
   16MOL   N47810708   3.751   0.394   2.145 -0.4350 -0.2572  0.0592
   16MOL   C47910709   3.734   0.526   2.210  0.5167  0.0046  0.0381
   16MOL   C48010710   3.593   0.595   2.202 -0.1820 -0.0366 -0.0795
   16MOL   C48110711   3.479   0.524   2.273 -0.0986  0.1091  0.2878
   16MOL   C48210712   3.347   0.598   2.248  0.0922  0.1184  0.0863
   16MOL   C48310713   3.224   0.544   2.319 -0.0936  0.6469  0.4660
   16MOL   C48410714   3.236   0.537   2.473  0.1577  0.0617  0.3336
   16MOL   C48510715   3.106   0.458   2.520 -0.1104  0.0379  0.4578
   16MOL   C48610716   3.094   0.475   2.675  0.2304 -0.7691  0.5439
   16MOL   C48710717   2.977   0.391   2.734  0.1061  0.5418  0.3938
   16MOL   C48810718   2.969   0.403   2.884 -0.4463 -0.4708 -0.5139
   16MOL   C48910719   2.943   0.553   2.925  0.4763  0.5946  0.0971
   16MOL   O49010720   2.837   0.613   2.912  0.5132 -0.1974  0.2331
   16MOL   H49110721   3.693   0.315   2.172 -0.1645 -0.1794  0.8906
   16MOL   H49210722   3.771   0.537   2.312 -1.5725  1.1866  0.6877
   16MOL   H49310723   3.797   0.598   2.158 -0.7744  2.0312  1.2311
   16MOL   H49410724   3.570   0.604   2.095  1.4599 -0.4569 -0.4864
   16MOL   H49510725   3.604   0.699   2.234 -0.0750  0.4946 -1.7706
   16MOL   H49610726   3.476   0.425   2.227 -2.5310  0.5385 -0.5445
   16MOL   H49710727   3.498   0.516   2.380 -0.8875  2.6103  0.6447
   16MOL   H49810728   3.324   0.602   2.142  0.7802  0.6678 -0.0532
   16MOL   H49910729   3.357   0.705   2.267  1.5289  0.1757 -0.9061
   16MOL   H50010730   3.201   0.450   2.269 -0.7290 -0.9983  3.7221
   16MOL   H50110731   3.132   0.599   2.297  0.3688  1.0368 -0.5468
   16MOL   H50210732   3.327   0.492   2.512  1.4493  0.8703 -1.6844
   16MOL   H50310733   3.248   0.639   2.511 -2.5794  0.1593  1.0724
   16MOL   H50410734   3.090   0.358   2.480  0.1487  0.8766 -1.8220
   16MOL   H50510735   3.019   0.512   2.482 -1.6274  0.0294  3.7519
   16MOL   H50610736   3.188   0.451   2.725  2.3737  2.9325 -1.4779
   16MOL   H50710737   3.084   0.583   2.687 -1.2684 -0.4081 -3.2308
   16MOL   H50810738   2.983   0.286   2.708 -1.7722  0.2004  1.2242
   16MOL   H50910739   2.886   0.432   2.689  0.1071 -0.6038 -0.6674
   16MOL   H51010740   3.053   0.357   2.936 -1.2195 -0.1716  1.0013
   16MOL   H51110741   2.890   0.342   2.927  0.3582  0.1752  1.9823
   16MOL   N51210742   3.054   0.601   2.990  0.1221  0.3010  0.5390
   16MOL   C51310743   3.072   0.736   3.038  0.4435  0.2209 -0.3965
   16MOL   C51410744   3.217   0.751   3.097 -0.0584  0.0320 -0.5961
   16MOL   C51510745   3.236   0.660   3.216 -0.0081  0.9693  0.3175
   16MOL   C51610746   3.353   0.720   3.308 -0.3570  0.1429  0.1969
   16MOL   C51710747   3.353   0.651   3.446 -0.3027  0.0032  0.3181
   16MOL   C51810748   3.373   0.501   3.444  0.2797 -0.0814  0.0500
   16MOL   C51910749   3.459   0.442   3.558  0.6250  0.1307 -0.2105
   16MOL   C52010750   3.506   0.299   3.534 -0.6695  0.0001 -0.4343
   16MOL   C52110751   3.599   0.248   3.645 -0.9131 -0.0890 -0.2944
   16MOL   C52210752   3.642   0.108   3.627 -0.2556  0.1232  0.4059
   16MOL   C52310753   3.755   0.080   3.530  0.4046  0.4085 -0.0618
   16MOL   O52410754   3.820   0.170   3.487 -0.3976  0.0575  0.7010
   16MOL   H52510755   3.127   0.537   3.021 -1.4034 -1.9856 -0.4472
   16MOL   H52610756   3.055   0.800   2.951  2.3760  1.7487  0.3381
   16MOL   H52710757   2.994   0.764   3.109 -1.1161 -1.7611 -1.2596
   16MOL   H52810758   3.234   0.856   3.124  1.5896  0.0143 -1.4433
   16MOL   H52910759   3.290   0.723   3.020  0.7288 -0.1949  0.2168
   16MOL   H53010760   3.147   0.645   3.276  0.1806  0.9073  0.5790
   16MOL   H53110761   3.255   0.558   3.179  1.3457  2.4015 -3.1834
   16MOL   H53210762   3.348   0.826   3.329  0.3665  0.2639 -0.2303
   16MOL   H53310763   3.454   0.702   3.269 -0.5879 -1.9299  0.4683
   16MOL   H53410764   3.261   0.685   3.494 -1.0685  0.9635 -1.7704
   16MOL   H53510765   3.439   0.694   3.496 -0.1643  0.7115 -0.5253
   16MOL   H53610766   3.279   0.448   3.429  0.1184  0.8611 -2.6591
   16MOL   H53710767   3.411   0.484   3.343 -2.2378  1.4986 -1.2210
   16MOL   H53810768   3.398   0.443   3.648  1.1402 -0.4294  0.1458
   16MOL   H53910769   3.542   0.506   3.585  0.1706  0.8881 -0.5969
   16MOL   H54010770   3.418   0.235   3.527  0.5189 -1.8155  0.7167
   16MOL   H54110771   3.565   0.302   3.442  0.1180  2.7793  0.0916
   16MOL   H54210772   3.550   0.255   3.742 -0.2794  2.2823 -0.1035
   16MOL   H54310773   3.681   0.320   3.651 -2.9960  2.2990  0.5229
   16MOL   H54410774   3.560   0.041   3.602 -0.3099  0.7282 -1.0846
   16MOL   H54510775   3.674   0.078   3.727 -4.1666 -1.3600  1.3351
   16MOL   N54610776   3.775   7.665   3.500  0.2286 -0.4154 -0.4828
   16MOL   C54710777   3.885   7.607   3.424  0.2307 -0.6797 -0.2557
   16MOL   C54810778   3.836   7.579   3.283 -0.2756  0.2523  0.0788
   16MOL   C54910779   3.925   7.486   3.198 -0.2577  0.2592 -0.1678
   16MOL   C55010780   3.859   7.424   3.078 -1.1201 -0.5549 -0.0092
   16MOL   C55110781   3.814   7.523   2.961  1.2595  0.6757 -0.0483
   16MOL   C55210782   3.764   7.460   2.838 -0.0539  0.0289  0.5476
   16MOL   C55310783   3.721   7.550   2.721  0.4288 -0.0282  0.4383
   16MOL   C55410784   3.599   7.635   2.743 -0.4430  0.2450 -0.2667
   16MOL   C55510785   3.531   7.703   2.617  0.9597  0.2084 -0.1267
   16MOL   C55610786   3.416   0.085   2.655  0.5710  0.0686 -0.4868
   16MOL   C55710787   3.285   0.014   2.701 -0.5143 -0.2845 -0.5390
   16MOL   O55810788   3.246   7.623   2.648 -0.6882 -0.2760  0.2196
   16MOL   H55910789   3.717   7.598   3.549 -0.1439  1.1528  1.2501
   16MOL   H56010790   3.968   7.677   3.424  0.0573 -0.4743 -0.6428
   16MOL   H56110791   3.910   7.516   3.479  0.0834 -1.0747 -0.8360
   16MOL   H56210792   3.806   7.671   3.231  0.3855 -0.1712 -1.0513
   16MOL   H56310793   3.741   7.526   3.289 -1.5248  2.2859 -0.8965
   16MOL   H56410794   4.009   7.546   3.163 -0.9672  1.7533  0.6089
   16MOL   H56510795   3.973   7.411   3.260 -1.7919  0.2084  0.9892
   16MOL   H56610796   3.783   7.354   3.113 -0.6046 -0.6109  1.0270
   16MOL   H56710797   3.933   7.357   3.035 -0.8394 -0.7236  0.7366
   16MOL   H56810798   3.897   7.585   2.925  2.3252 -0.0386  1.1518
   16MOL   H56910799   3.744   7.596   3.001  1.3388  0.0252  1.2995
   16MOL   H57010800   3.842   7.391   2.805 -1.6989 -2.0545  0.8585
   16MOL   H57110801   3.680   7.392   2.857  1.0744 -1.7954 -0.8278
   16MOL   H57210802   3.696   7.479   2.643 -0.3432  0.5807  0.1246
   16MOL   H57310803   3.802   7.611   2.681 -0.4985  0.7225 -0.3254
   16MOL   H57410804   3.526   7.576   2.798  1.7265  0.0207  2.4650
   16MOL   H57510805   3.625   7.704   2.823 -2.6501  0.9585 -0.1228
   16MOL   H57610806   3.509   7.635   2.535  1.5981 -0.5821  0.3568
   16MOL   H57710807   3.605   0.057   2.578  0.5207  0.8187  0.1085
   16MOL   H57810808   3.391   0.167   2.588 -1.3411  0.7966  1.0796
   16MOL   H57910809   3.453   0.139   2.742  2.7731 -0.5873 -0.9798
   16MOL   N58010810   3.222   0.077   2.804  0.0927  0.2267 -0.0047
   16MOL   C58110811   3.107   0.028   2.881 -0.1819  0.2204 -0.6512
   16MOL   C58210812   2.978   0.005   2.811 -0.0453 -0.1468  0.1734
   16MOL   C58310813   2.864   7.674   2.896  0.4863 -0.0902 -0.0553
   16MOL   C58410814   2.730   7.670   2.823 -0.3143 -0.1203  0.5184
   16MOL   C58510815   2.710   7.545   2.724 -0.2533  0.4291 -0.6560
   16MOL   C58610816   2.567   7.506   2.689  0.8077 -0.7831 -0.5782
   16MOL   C58710817   2.571   7.387   2.595  0.4182  0.0213  0.9116
   16MOL   C58810818   2.434   7.359   2.535  0.4570  0.1395  0.1826
   16MOL   C58910819   2.433   7.218   2.465 -0.2522  0.4976  0.3014
   16MOL   C59010820   2.292   7.190   2.402  0.2177  0.5802  0.2394
   16MOL   C59110821   2.297   7.049   2.338 -0.1310 -0.0630  0.3278
   16MOL   O59210822   2.396   6.994   2.298  0.2508 -0.3683  0.3245
   16MOL   H59310823   3.270   0.159   2.839 -1.3181  0.7460  0.7492
   16MOL   H59410824   3.132   7.647   2.926  1.9164  0.7052 -0.7287
   16MOL   H59510825   3.101   0.094   2.967  3.4370 -2.2582  1.6541
   16MOL   H59610826   2.990   7.636   2.744 -2.3114 -1.1448  0.9782
   16MOL   H59710827   2.957   0.086   2.741  2.9491  0.2727 -0.2912
   16MOL   H59810828   2.890   7.583   2.949  0.1489  0.5932  1.3220
   16MOL   H59910829   2.855   0.037   2.971  0.2962 -1.2651  1.1788
   16MOL   H60010830   2.700   0.053   2.789 -0.5044 -0.7335 -1.1399
   16MOL   H60110831   2.663   7.656   2.907  0.2978  0.3221  1.0816
   16MOL   H60210832   2.754   7.462   2.779 -1.9793  0.0069  0.0943
   16MOL   H60310833   2.771   7.550   2.634  0.6488 -0.2207 -0.0931
   16MOL   H60410834   2.500   7.490   2.773  2.5373 -0.1702  0.9353
   16MOL   H60510835   2.525   7.587   2.629 -0.9749  0.1992  1.9022
   16MOL   H60610836   2.609   7.300   2.647 -0.9020  0.0680  1.9569
   16MOL   H60710837   2.642   7.412   2.516  0.5274 -0.0868  0.9766
   16MOL   H60810838   2.356   7.353   2.610  0.7699 -1.6015  0.3874
   16MOL   H60910839   2.393   7.433   2.466  1.7849  3.7608  3.1090
   16MOL   H61010840   2.462   7.145   2.540 -0.8761  0.8121  0.8561
   16MOL   H61110841   2.511   7.214   2.389 -0.9714 -2.5681 -0.3270
   16MOL   H61210842   2.261   7.259   2.323 -1.9773 -0.6662 -0.0520
   16MOL   H61310843   2.215   7.193   2.479  0.5735 -0.0926  0.6277
   16MOL   N61410844   2.175   6.988   2.318  0.4803 -0.2108 -0.1647
   16MOL   C61510845   2.140   6.862   2.246 -0.0806  0.6814  0.9237
   16MOL   C61610846   1.995   6.810   2.238  0.2656  0.3850 -0.2986
   16MOL   C61710847   1.948   6.742   2.365 -0.3710 -0.2298  0.1320
   16MOL   C61810848   1.930   6.845   2.478 -0.0817  0.2061 -0.0900
   16MOL   C61910849   1.890   6.772   2.611  0.2082 -0.4404 -0.0998
   16MOL   C62010850   1.871   6.869   2.725  0.0493  0.0938 -0.0258
   16MOL   C62110851   1.760   6.976   2.699  0.1763 -0.3340 -0.0842
   16MOL   C62210852   1.743   7.071   2.819  0.1747 -0.1073 -0.2266
   16MOL   C62310853   1.623   7.164   2.793 -0.6665 -0.9105  0.2512
   16MOL   C62410854   1.602   7.264   2.918 -0.0006  0.8688  0.0920
   16MOL   C62510855   1.510   7.211   3.033  0.4516  0.2504  0.4443
   16MOL   O62610856   1.447   7.105   3.020 -0.4879 -0.2590 -1.0375
   16MOL   H62710857   2.095   7.036   2.356  0.5759  0.3860 -0.7052
   16MOL   H62810858   2.199   6.784   2.294 -1.4108 -1.3414 -0.6747
   16MOL   H62910859   2.191   6.876   2.151 -1.0951 -1.5227  0.0288
   16MOL   H63010860   1.991   6.732   2.163  1.2420  1.3002 -1.3288
   16MOL   H63110861   1.923   6.888   2.212 -0.5861 -0.8023 -1.5318
   16MOL   H63210862   1.853   6.690   2.353  0.0112 -1.0720  0.6798
   16MOL   H63310863   2.013   6.659   2.394  0.2046  0.0753 -0.2833
   16MOL   H63410864   1.849   6.912   2.451 -0.0905  1.7260  3.3421
   16MOL   H63510865   2.025   6.895   2.498  0.3249 -1.4679  2.4558
   16MOL   H63610866   1.957   6.694   2.648  0.6496  0.1642  0.3906
   16MOL   H63710867   1.796   6.725   2.585 -1.0351  0.6650  2.2370
   16MOL   H63810868   1.827   6.803   2.801 -0.9929 -0.1990 -0.8748
   16MOL   H63910869   1.961   6.914   2.767 -0.0291  0.0884  0.1524
   16MOL   H64010870   1.663   6.937   2.667 -0.6257  1.5054  0.0009
   16MOL   H64110871   1.792   7.032   2.611 -2.3446  1.1479 -0.1178
   16MOL   H64210872   1.729   7.025   2.917 -2.4675 -0.0621 -0.5526
   16MOL   H64310873   1.830   7.135   2.828  0.7256 -1.0234  1.2547
   16MOL   H64410874   1.535   7.109   2.759  0.7401 -1.9038 -1.8593
   16MOL   H64510875   1.655   7.225   2.709  1.8357 -2.2840  0.1624
   16MOL   H64610876   1.557   7.354   2.876  0.1369  1.5244  1.3084
   16MOL   H64710877   1.702   7.278   2.959  1.5962 -3.7629 -1.9262
   16MOL   N64810878   1.502   7.262   3.156  0.2941 -0.0270 -0.2183
   16MOL   C64910879   1.422   7.206   3.268 -0.2109 -0.5491  0.1581
   16MOL   C65010880   1.452   7.279   3.399  0.1407  0.1222  0.0980
   16MOL   C65110881   1.367   7.231   3.519  0.1786  0.2323 -0.7792
   16MOL   C65210882   1.352   7.330   3.636 -0.2411 -0.4442  0.3356
   16MOL   C65310883   1.259   7.456   3.608 -1.0214 -0.1521 -0.1167
   16MOL   C65410884   1.275   7.563   3.719 -0.7839 -0.3678 -0.8161
   16MOL   C65510885   1.207   7.690   3.690  0.1221 -0.1098  0.1878
   16MOL   C65610886   1.223   0.078   3.803 -0.1033 -0.7991 -0.6290
   16MOL   C65710887   1.158   0.211   3.770 -0.2332  0.0188  0.4362
   16MOL   C65810888   1.171   0.321   3.885  0.0088 -0.2882 -0.1408
   16MOL   C65910889   1.309   0.381   3.893 -0.1597 -0.2256 -0.6423
   16MOL   O66010890   1.394   0.359   3.806  0.4659  0.3767  0.2227
   16MOL   H66110891   1.573   7.332   3.169 -0.0795  0.6306 -1.6401
   16MOL   H66210892   1.450   7.102   3.281 -1.7646 -1.0735 -0.6447
   16MOL   H66310893   1.320   7.221   3.233 -0.4700 -0.0051  1.1273
   16MOL   H66410894   1.440   7.387   3.392  1.1371  0.2066 -0.3533
   16MOL   H66510895   1.556   7.267   3.426 -0.0904 -1.3176  0.3898
   16MOL   H66610896   1.266   7.211   3.485  0.3716  1.6510 -2.2249
   16MOL   H66710897   1.403   7.134   3.554 -0.9935  0.2680  0.5420
   16MOL   H66810898   1.449   7.365   3.672 -1.2360  1.0018  1.6666
   16MOL   H66910899   1.319   7.283   3.728 -1.7346 -1.2967 -0.6197
   16MOL   H67010900   1.155   7.426   3.601 -0.9326 -0.1955 -1.3721
   16MOL   H67110901   1.279   7.494   3.508  1.1432  1.5516  0.9179
   16MOL   H67210902   1.231   7.514   3.806 -0.5149  1.6332  0.4710
   16MOL   H67310903   1.376   7.592   3.746 -2.0862  3.3010  0.3675
   16MOL   H67410904   1.101   7.665   3.681  0.2238 -0.3750 -0.3100
   16MOL   H67510905   1.235   0.009   3.591 -2.7151 -0.0948 -0.6572
   16MOL   H67610906   1.203   0.040   3.903 -0.0038 -0.6366 -0.5476
   16MOL   H67710907   1.328   0.105   3.818  0.4772 -1.8330 -2.5229
   16MOL   H67810908   1.052   0.185   3.761 -0.6988  1.9165  0.2983
   16MOL   H67910909   1.194   0.241   3.672  0.3249 -1.1296  0.2743
   16MOL   H68010910   1.133   0.281   3.979  1.6836 -0.1965  0.5942
   16MOL   H68110911   1.107   0.404   3.856 -0.9715 -0.4737  1.4417
   16MOL   H68210912   1.331   0.437   3.983 -1.6326 -0.4230 -0.1465
   17MOL     N110913   0.331   4.691   5.800 -0.4901  0.6651  0.2666
   17MOL     C210914   0.416   4.810   5.814  0.1955 -0.0699 -0.1431
   17MOL     C310915   0.561   4.799   5.764 -0.0768  0.7908  0.0488
   17MOL     C410916   0.647   4.931   5.783 -0.2660  0.8067  0.1146
   17MOL     C510917   0.775   4.924   5.695 -0.2854  0.4847 -0.6087
   17MOL     C610918   0.844   5.060   5.684 -0.3236 -0.8989  0.1004
   17MOL     C710919   0.956   5.058   5.585  0.0625  0.1879  0.0372
   17MOL     C810920   1.090   5.011   5.634 -0.3246 -0.1185 -0.2650
   17MOL     C910921   1.216   5.039   5.550  0.0962 -0.2486  0.1977
   17MOL    C1010922   1.315   4.919   5.547 -0.0698  0.1451  0.3676
   17MOL    C1110923   1.385   4.879   5.686  0.1463 -0.5873 -0.3705
   17MOL    C1210924   1.494   4.774   5.674  0.1874  0.6495  0.5752
   17MOL    O1310925   1.477   4.668   5.607 -0.3735  0.1011  0.2601
   17MOL    H1410926   0.308   4.674   5.703 -1.0409 -0.6087  0.6161
   17MOL    H1510927   0.428   4.844   5.917 -1.4195 -1.0024  0.3602
   17MOL    H1610928   0.357   4.885   5.762 -0.7001 -0.5638  0.1430
   17MOL    H1710929   0.566   4.789   5.655 -3.1862  0.0908 -0.0892
   17MOL    H1810930   0.616   4.729   5.827  0.7901  2.1161  0.7770
   17MOL    H1910931   0.584   5.013   5.748 -2.9193  0.0333  2.8206
   17MOL    H2010932   0.670   4.951   5.888 -0.0421  0.9621  0.0366
   17MOL    H2110933   0.738   4.888   5.599  2.0429  1.8842 -2.0757
   17MOL    H2210934   0.843   4.843   5.722 -1.3243 -0.3141 -0.3379
   17MOL    H2310935   0.875   5.086   5.786 -0.3197  0.4362 -0.2277
   17MOL    H2410936   0.757   5.123   5.662 -0.3520 -0.6636  0.8392
   17MOL    H2510937   0.931   4.992   5.502 -1.7127  0.7880  0.0742
   17MOL    H2610938   0.969   5.155   5.539 -2.4399  0.0931 -0.9079
   17MOL    H2710939   1.084   4.902   5.639  0.1709 -0.2315 -1.8314
   17MOL    H2810940   1.114   5.043   5.735 -0.6172 -0.8655  0.0473
   17MOL    H2910941   1.184   5.043   5.445  2.0826 -0.7052 -0.4408
   17MOL    H3010942   1.253   5.138   5.579 -0.2623 -0.5592  1.7575
   17MOL    H3110943   1.393   4.942   5.475 -2.6672  2.0553 -1.9425
   17MOL    H3210944   1.263   4.832   5.507 -0.1278 -0.2356  1.2596
   17MOL    H3310945   1.318   4.837   5.761  1.4811 -0.3670  0.9768
   17MOL    H3410946   1.445   4.965   5.717 -0.2632  0.0848 -1.4065
   17MOL    H3510947   0.249   4.713   5.854  1.2902  0.4087  3.2239
   17MOL    N3610948   1.614   4.800   5.738 -0.0921 -0.6740  0.4219
   17MOL    C3710949   1.721   4.703   5.757  0.5214  0.8492 -0.4194
   17MOL    C3810950   1.703   4.632   5.891 -0.1552 -0.1346  0.5298
   17MOL    C3910951   1.832   4.567   5.939  0.1455  0.1890 -0.8453
   17MOL    C4010952   1.874   4.441   5.864  0.1873 -0.1720 -0.3021
   17MOL    C4110953   2.025   4.397   5.893  0.3154 -0.2437 -0.5718
   17MOL    C4210954   2.117   4.500   5.823 -0.4860  0.6590 -0.7423
   17MOL    C4310955   2.265   4.475   5.816 -0.2640  0.0159  0.2540
   17MOL    C4410956   2.289   4.335   5.755 -0.3706 -0.2145  0.6043
   17MOL    C4510957   2.424   4.308   5.696 -0.3581 -0.3245 -0.3553
   17MOL    C4610958   2.448   4.167   5.630 -0.0169 -0.5082 -0.1265
   17MOL    C4710959   2.584   4.146   5.563  0.0970  0.1726  0.3713
   17MOL    O4810960   2.670   4.232   5.563 -0.2462  0.7074  0.3793
   17MOL    H4910961   1.626   4.896   5.766 -0.5624  0.1764 -2.2155
   17MOL    H5010962   1.725   4.621   5.685  2.0411  0.7113 -0.1886
   17MOL    H5110963   1.820   4.748   5.755  0.5770  0.7201 -0.6961
   17MOL    H5210964   1.623   4.559   5.882  0.9071 -1.1759 -0.5775
   17MOL    H5310965   1.671   4.709   5.962 -0.4551 -0.3262  0.6051
   17MOL    H5410966   1.913   4.638   5.919  0.6174 -0.0680  0.1757
   17MOL    H5510967   1.830   4.541   6.044 -0.2317  2.3042 -0.2969
   17MOL    H5610968   1.846   4.432   5.759 -2.4513  0.3801  0.3120
   17MOL    H5710969   1.811   4.363   5.907 -0.4172  0.9494  0.8917
   17MOL    H5810970   2.039   4.297   5.852 -0.6417 -0.5529 -0.1540
   17MOL    H5910971   2.046   4.381   5.999 -1.0097 -1.1471 -0.4298
   17MOL    H6010972   2.088   4.531   5.723  1.2173  3.0132 -0.5444
   17MOL    H6110973   2.120   4.590   5.884  4.0645  0.5932 -0.7183
   17MOL    H6210974   2.296   4.467   5.920  1.8057  1.2324 -0.2457
   17MOL    H6310975   2.310   4.564   5.774  0.1404 -0.5310 -0.4916
   17MOL    H6410976   2.251   4.255   5.818  1.3347  0.1267  2.0759
   17MOL    H6510977   2.225   4.332   5.666  0.1861  1.0757  0.1547
   17MOL    H6610978   2.497   4.323   5.776  0.0408  0.3970 -0.8435
   17MOL    H6710979   2.441   4.380   5.616  2.3303  1.3523  1.6174
   17MOL    H6810980   2.383   4.152   5.544  0.5764  0.4622 -0.7614
   17MOL    H6910981   2.425   4.092   5.706  1.0920 -0.1328  0.6001
   17MOL    N7010982   2.611   4.026   5.510 -0.1980 -0.3111  0.4135
   17MOL    C7110983   2.715   4.015   5.409  0.1473 -0.1615  0.3764
   17MOL    C7210984   2.703   3.880   5.327 -0.4058 -0.4245  0.5632
   17MOL    C7310985   2.702   3.763   5.421  0.3004  0.7311 -0.1547
   17MOL    C7410986   2.675   3.622   5.356 -0.3330  0.2516  0.6027
   17MOL    C7510987   2.663   3.502   5.453 -0.0822 -0.1277  0.0497
   17MOL    C7610988   2.618   3.368   5.390 -0.1386 -0.5387 -0.5150
   17MOL    C7710989   2.530   3.279   5.482 -0.4969 -0.7681  1.1013
   17MOL    C7810990   2.473   3.154   5.417  0.3005  0.2387  0.6167
   17MOL    C7910991   2.576   3.027   5.416  0.4735  0.6771 -0.1812
   17MOL    C8010992   2.541   2.912   5.316  0.2509  0.2697 -0.0193
   17MOL    C8110993   2.445   2.810   5.373  0.2394  0.7069  0.4344
   17MOL    O8210994   2.478   2.742   5.473  0.2065 -0.1038 -0.2231
   17MOL    H8310995   2.546   3.949   5.522 -0.1504 -0.7077 -1.6621
   17MOL    H8410996   2.683   4.083   5.330 -1.2632 -0.6049  0.5493
   17MOL    H8510997   2.813   4.017   5.457  0.9908 -1.7043 -1.1927
   17MOL    H8610998   2.778   3.876   5.248 -0.1848  1.1313  0.6745
   17MOL    H8710999   2.608   3.885   5.274 -0.0564  0.9209  0.0362
   17MOL    H8811000   2.792   3.763   5.483  1.3320 -1.2943 -1.5747
   17MOL    H8911001   2.617   3.775   5.488  0.4164  2.7024 -0.3431
   17MOL    H9011002   2.760   3.611   5.289  1.9082  0.8770  3.2497
   17MOL    H9111003   2.587   3.624   5.292  0.3133  2.5246 -0.2967
   17MOL    H9211004   2.586   3.520   5.528 -0.9115 -1.6711 -0.4086
   17MOL    H9311005   2.751   3.479   5.513 -0.8308 -0.8495  0.8835
   17MOL    H9411006   2.567   3.381   5.294 -0.2373  3.2479  0.0089
   17MOL    H9511007   2.711   3.314   5.373  0.0582  0.2264 -1.9592
   17MOL    H9611008   2.448   3.338   5.524 -1.0176  0.4879 -1.5242
   17MOL    H9711009   2.590   3.248   5.568  1.2447 -4.0302 -1.1687
   17MOL    H9811010   2.387   3.126   5.477  1.1872 -3.4902  0.2729
   17MOL    H9911011   2.430   3.182   5.321  0.4428 -1.4394  0.0498
   17MOL   H10011012   2.586   2.984   5.516 -1.3661 -0.1350 -0.3246
   17MOL   H10111013   2.672   3.074   5.393  1.5638 -2.4309 -2.3078
   17MOL   H10211014   2.632   2.854   5.297  0.1661 -0.1194  0.7523
   17MOL   H10311015   2.510   2.953   5.220 -0.8584 -0.9200 -0.1826
   17MOL   N10411016   2.335   2.796   5.297 -0.4171 -0.0489  0.0833
   17MOL   C10511017   2.222   2.713   5.333 -0.5421  1.0138  0.0880
   17MOL   C10611018   2.106   2.732   5.236  0.0587 -0.4749 -0.8238
   17MOL   C10711019   2.051   2.880   5.236 -0.1772 -0.1435 -0.1806
   17MOL   C10811020   1.931   2.899   5.146 -0.7015  0.0228 -0.1937
   17MOL   C10911021   1.801   2.882   5.222 -0.3030 -0.1610 -0.2621
   17MOL   C11011022   1.682   2.839   5.134 -0.1189  0.3385  0.1381
   17MOL   C11111023   1.548   2.900   5.181  0.3546  0.8115  0.1602
   17MOL   C11211024   1.424   2.840   5.113  0.2552 -0.1267  0.5931
   17MOL   C11311025   1.378   2.929   4.992  0.2636 -0.1979  0.2743
   17MOL   C11411026   1.245   2.881   4.938  0.9154 -0.7814  0.2838
   17MOL   C11511027   1.187   2.967   4.825  0.3707 -0.6871  0.5313
   17MOL   O11611028   1.192   3.089   4.828  0.6702 -0.4188  0.0077
   17MOL   H11711029   2.333   2.841   5.206  0.6252 -0.2838 -0.0687
   17MOL   H11811030   2.248   2.607   5.333  0.2436  1.1782 -2.7648
   17MOL   H11911031   2.211   2.743   5.437 -1.5784  1.4510 -0.1398
   17MOL   H12011032   2.024   2.663   5.258 -0.4943  0.5259  0.2561
   17MOL   H12111033   2.148   2.708   5.138  1.8907  0.9753 -0.4123
   17MOL   H12211034   2.011   2.907   5.334 -0.2241 -1.6795  0.2369
   17MOL   H12311035   2.127   2.952   5.204 -0.4657 -1.3073 -3.6328
   17MOL   H12411036   1.940   2.824   5.068  1.6207  0.8967 -0.8017
   17MOL   H12511037   1.923   2.985   5.080 -1.2600  1.1996  1.3695
   17MOL   H12611038   1.770   2.975   5.270  2.2914  0.6990 -0.1982
   17MOL   H12711039   1.806   2.810   5.304 -2.4499  0.5364  0.5185
   17MOL   H12811040   1.701   2.865   5.030  1.1377 -1.0401  0.0095
   17MOL   H12911041   1.677   2.731   5.141  2.0131  0.1482 -0.9246
   17MOL   H13011042   1.558   3.005   5.154 -0.7508  1.1152  0.8982
   17MOL   H13111043   1.535   2.904   5.289 -0.5912 -0.6260  0.1174
   17MOL   H13211044   1.432   2.737   5.077 -1.3416  1.3334 -4.2259
   17MOL   H13311045   1.344   2.843   5.188  2.0918  5.7130  2.5439
   17MOL   H13411046   1.448   2.917   4.909 -1.6951 -1.5577 -1.2297
   17MOL   H13511047   1.367   3.033   5.023 -0.2901 -0.3640  0.6433
   17MOL   H13611048   1.177   2.888   5.023  0.7183  0.2787  0.0483
   17MOL   H13711049   1.258   2.778   4.902  0.6968 -1.1367  1.2048
   17MOL   N13811050   1.141   2.897   4.718  0.0600  0.3652  0.5408
   17MOL   C13911051   1.080   2.952   4.597 -0.2788 -0.1523 -0.1056
   17MOL   C14011052   1.027   2.843   4.513 -0.6136  0.2766 -0.1025
   17MOL   C14111053   0.958   2.885   4.384  0.2664  0.8483 -0.3994
   17MOL   C14211054   0.889   2.766   4.318 -0.0718 -0.0880 -0.0518
   17MOL   C14311055   0.993   2.680   4.244  0.7155 -0.4440  0.2493
   17MOL   C14411056   0.928   2.565   4.172 -0.1609 -0.1230  0.5577
   17MOL   C14511057   1.012   2.461   4.115 -0.3049 -0.3365  0.1970
   17MOL   C14611058   1.126   2.402   4.201 -0.3551 -0.7256 -0.2514
   17MOL   C14711059   1.227   2.328   4.114  0.6529 -0.2970  0.9100
   17MOL   C14811060   1.351   2.299   4.191  0.3777  0.7499 -0.3910
   17MOL   C14911061   1.342   2.190   4.301  0.3767 -0.2103 -0.7940
   17MOL   O15011062   1.243   2.115   4.304  0.2479 -0.5918 -0.5392
   17MOL   H15111063   1.138   2.797   4.733 -1.6477  0.5732  1.7311
   17MOL   H15211064   1.011   3.036   4.612  0.6418  0.2002  2.4431
   17MOL   H15311065   1.163   2.999   4.544  1.0252 -1.2373  0.9482
   17MOL   H15411066   0.954   2.781   4.565 -0.5691  0.3560  0.0548
   17MOL   H15511067   1.115   2.780   4.499  1.0245  2.0037  1.9126
   17MOL   H15611068   0.888   2.967   4.401 -0.1312  0.4141  0.0629
   17MOL   H15711069   1.037   2.919   4.317 -0.4840 -0.4293 -1.9647
   17MOL   H15811070   0.821   2.809   4.243  0.6248  1.3528  0.1230
   17MOL   H15911071   0.825   2.713   4.388 -0.5422  0.2633 -0.2073
   17MOL   H16011072   1.064   2.645   4.318 -0.3928 -0.1429  1.4751
   17MOL   H16111073   1.036   2.744   4.166  0.2102 -1.7018 -1.0773
   17MOL   H16211074   0.857   2.515   4.239  0.7540  0.3712  1.9082
   17MOL   H16311075   0.866   2.608   4.094 -2.0693  0.4107  2.3217
   17MOL   H16411076   1.062   2.505   4.028  2.5928  2.5714  3.1397
   17MOL   H16511077   0.961   2.379   4.066 -1.9738 -1.0706  3.0841
   17MOL   H16611078   1.180   2.467   4.270 -2.2425 -1.3729  1.8842
   17MOL   H16711079   1.074   2.336   4.271 -2.6992 -0.6139 -1.8347
   17MOL   H16811080   1.260   2.388   4.030 -1.2562  0.8184  0.9267
   17MOL   H16911081   1.179   2.240   4.071  1.6647 -1.2225  1.6338
   17MOL   H17011082   1.397   2.391   4.228  4.0108 -0.8649 -0.6075
   17MOL   H17111083   1.428   2.262   4.123  0.9952  2.2433 -0.5244
   17MOL   N17211084   1.442   2.182   4.386 -0.1409 -0.1251  0.6132
   17MOL   C17311085   1.480   2.078   4.480 -0.5061  0.3606 -0.1417
   17MOL   C17411086   1.618   2.102   4.528 -0.5071  0.6594 -0.4956
   17MOL   C17511087   1.663   2.002   4.636  0.7550  0.3679 -0.9095
   17MOL   C17611088   1.814   1.992   4.666 -0.5285  0.6173  0.3677
   17MOL   C17711089   1.857   2.112   4.752  0.5309  0.1942 -0.0078
   17MOL   C17811090   2.010   2.124   4.795  0.1615 -0.3899 -0.5559
   17MOL   C17911091   2.048   2.269   4.833  0.0362 -0.5742  0.2886
   17MOL   C18011092   1.997   2.301   4.974 -0.3214 -0.2060  0.1670
   17MOL   C18111093   2.093   2.246   5.085 -0.1898  0.2199  0.1753
   17MOL   C18211094   2.032   2.279   5.227 -0.8019  0.2222 -0.7742
   17MOL   C18311095   2.133   2.239   5.335  0.0792 -0.1003  0.1668
   17MOL   O18411096   2.163   2.120   5.357  0.5564 -0.2039 -0.0293
   17MOL   H18511097   1.508   2.258   4.382 -0.2035 -0.0906  0.2280
   17MOL   H18611098   1.417   2.093   4.568  0.0468  0.2892  0.2762
   17MOL   H18711099   1.463   1.982   4.433 -1.5337  0.2886  0.3622
   17MOL   H18811100   1.640   2.204   4.560  1.6934  0.7064 -2.0922
   17MOL   H18911101   1.684   2.087   4.443  0.1337  0.7689 -0.0236
   17MOL   H19011102   1.602   2.012   4.725  0.7187  1.1214 -1.0170
   17MOL   H19111103   1.625   1.905   4.607  0.6311  0.1078  0.1121
   17MOL   H19211104   1.869   1.993   4.572 -0.4260  0.8487  0.4301
   17MOL   H19311105   1.835   1.897   4.716 -1.1881 -0.7700 -1.9297
   17MOL   H19411106   1.800   2.127   4.844  0.3800  1.8620 -0.3570
   17MOL   H19511107   1.821   2.203   4.704 -1.4730  0.0596  1.2047
   17MOL   H19611108   2.048   2.053   4.869  0.8955 -0.6445 -1.1579
   17MOL   H19711109   2.070   2.090   4.710  2.5089  1.1360  0.4353
   17MOL   H19811110   1.991   2.327   4.761  1.5948  2.2770  1.3116
   17MOL   H19911111   2.156   2.283   4.833 -0.3292  2.5789  1.2477
   17MOL   H20011112   1.990   2.409   4.981  1.8720 -0.1063  1.1462
   17MOL   H20111113   1.899   2.256   4.992 -0.2385  0.4739  2.4735
   17MOL   H20211114   2.199   2.270   5.075  0.0508  0.3348  2.7211
   17MOL   H20311115   2.102   2.137   5.082  1.6957  0.3910 -1.8839
   17MOL   H20411116   1.940   2.225   5.249 -0.8101  0.2698 -0.6948
   17MOL   H20511117   2.026   2.387   5.227  0.3790  0.2949 -0.7723
   17MOL   N20611118   2.193   2.339   5.401  0.3088  0.2893 -0.7696
   17MOL   C20711119   2.289   2.312   5.509 -0.9031  0.1216 -0.2326
   17MOL   C20811120   2.336   2.438   5.578  0.4571 -0.2053  0.6871
   17MOL   C20911121   2.225   2.520   5.634  0.4576 -0.3253 -0.6128
   17MOL   C21011122   2.259   2.639   5.721  0.9097 -0.4313  0.7814
   17MOL   C21111123   2.295   2.602   5.868 -0.3860  0.4593 -0.0494
   17MOL   C21211124   2.367   2.722   5.938  0.2907  0.2787 -0.1832
   17MOL   C21311125   2.431   2.693   6.074  0.1737  0.1753 -0.2532
   17MOL   C21411126   2.568   2.621   6.068  0.3306  0.3125  0.1791
   17MOL   C21511127   2.637   2.593   6.199  0.0970 -0.3293  1.0180
   17MOL   C21611128   2.788   2.557   6.188 -0.0483 -0.0563 -0.3656
   17MOL   C21711129   2.819   2.430   6.112 -0.5050 -0.4578 -0.1292
   17MOL   O21811130   2.761   2.326   6.145  0.2081  0.0786  0.5225
   17MOL   H21911131   2.161   2.432   5.378 -1.3889 -0.4983 -1.7063
   17MOL   H22011132   2.376   2.266   5.463 -0.4278  1.3367 -0.5560
   17MOL   H22111133   2.253   2.234   5.576  0.8721  0.3025  0.9632
   17MOL   H22211134   2.396   2.497   5.509  0.0281 -0.5333  0.0298
   17MOL   H22311135   2.410   2.410   5.653  2.0097 -0.8925 -1.0683
   17MOL   H22411136   2.163   2.554   5.551 -0.1893  0.7495  0.2889
   17MOL   H22511137   2.161   2.459   5.697  0.0051  0.9710  0.1939
   17MOL   H22611138   2.179   2.712   5.728  1.5521  0.4569 -0.8011
   17MOL   H22711139   2.341   2.696   5.676  2.0803 -1.4840  1.5153
   17MOL   H22811140   2.355   2.510   5.867  1.4602  1.5885 -3.6540
   17MOL   H22911141   2.200   2.580   5.916 -0.9674 -0.4206 -1.5373
   17MOL   H23011142   2.433   2.769   5.866 -1.2305 -0.2691 -1.9665
   17MOL   H23111143   2.292   2.802   5.945  1.4092  1.2515  0.9814
   17MOL   H23211144   2.368   2.638   6.145  1.0294 -2.1202 -1.2302
   17MOL   H23311145   2.448   2.789   6.121  0.7013 -0.5011  0.9744
   17MOL   H23411146   2.547   2.529   6.013  0.3085 -0.3145  1.2311
   17MOL   H23511147   2.645   2.680   6.020  0.4779 -0.2662 -0.3063
   17MOL   H23611148   2.581   2.521   6.259  2.7165 -1.7805  1.8029
   17MOL   H23711149   2.641   2.688   6.253 -0.8403  0.4694 -0.2774
   17MOL   H23811150   2.834   2.546   6.286  1.5312  0.6506 -0.9972
   17MOL   H23911151   2.825   2.646   6.137 -0.5006 -0.3832 -1.2750
   17MOL   N24011152   2.904   2.432   6.008 -0.1177 -0.9104  0.2526
   17MOL   C24111153   2.941   2.314   5.937  0.1286  0.1790  0.4899
   17MOL   C24211154   3.044   2.234   6.020  0.0292  1.1329  0.2035
   17MOL   C24311155   3.118   2.114   5.944  0.1777 -0.5867 -0.4948
   17MOL   C24411156   3.203   2.157   5.828 -0.8091 -0.9749 -0.1278
   17MOL   C24511157   3.335   2.223   5.873 -0.6841  0.0432  0.4006
   17MOL   C24611158   3.407   2.300   5.757  0.4291 -0.5555  0.1807
   17MOL   C24711159   3.532   2.380   5.807 -0.0991 -0.7846  0.1162
   17MOL   C24811160   3.641   2.284   5.847  0.2352 -0.7083 -0.0748
   17MOL   C24911161   3.719   2.232   5.728  0.4429  0.0229 -0.0013
   17MOL   C25011162   3.831   2.129   5.750 -0.2473 -0.2951  0.3079
   17MOL   C25111163   3.916   2.143   5.880 -0.8211 -0.6031 -0.2209
   17MOL   O25211164   3.989   2.245   5.903 -0.3121 -0.1539  0.1822
   17MOL   H25311165   2.938   2.525   5.986 -2.7521  0.3512  1.1684
   17MOL   H25411166   2.994   2.367   5.857 -1.0018  0.9632  0.2525
   17MOL   H25511167   2.858   2.257   5.896 -0.7383  0.4639  1.8135
   17MOL   H25611168   2.999   2.194   6.111  1.9671 -1.9594 -0.1287
   17MOL   H25711169   3.120   2.306   6.049  1.7538 -0.2828 -0.6717
   17MOL   H25811170   3.176   2.053   6.013 -0.8727  0.5085  1.3944
   17MOL   H25911171   3.036   2.049   5.913  0.0523 -1.9605  2.4748
   17MOL   H26011172   3.140   2.209   5.756 -0.9942 -1.3659 -0.2548
   17MOL   H26111173   3.225   2.064   5.776 -2.0194 -1.9688  1.0818
   17MOL   H26211174   3.397   2.147   5.921 -2.3947 -0.0946  2.4444
   17MOL   H26311175   3.311   2.301   5.945 -0.4497  0.7105 -0.2380
   17MOL   H26411176   3.421   2.233   5.672 -0.5789  0.6574 -0.9605
   17MOL   H26511177   3.346   2.370   5.700  1.4362  2.0088  2.1453
   17MOL   H26611178   3.515   2.433   5.900  0.3072  0.8726 -0.7365
   17MOL   H26711179   3.545   2.452   5.726 -0.3551  0.7655  1.4451
   17MOL   H26811180   3.711   2.333   5.914 -0.5215  1.5477 -0.8481
   17MOL   H26911181   3.596   2.207   5.909 -2.1400 -0.1517 -1.0213
   17MOL   H27011182   3.744   2.318   5.664  1.8512 -0.9351 -0.7679
   17MOL   H27111183   3.648   2.181   5.663  1.2497  0.2284 -1.0801
   17MOL   H27211184   3.893   2.129   5.660  0.2212  0.0412  0.6280
   17MOL   H27311185   3.790   2.028   5.749 -0.3661 -0.2457  0.2434
   17MOL   N27411186   3.919   2.040   5.965  0.5279 -0.4607 -0.6901
   17MOL   C27511187   3.997   2.044   6.090 -0.0764  0.0893  0.0099
   17MOL   C27611188   3.925   1.957   6.195  0.5370  0.7657  0.3193
   17MOL   C27711189   4.015   1.905   6.301  0.5649 -0.0243  0.2385
   17MOL   C27811190   3.959   1.787   6.381 -1.0268  0.3613  0.5011
   17MOL   C27911191   4.040   1.741   6.499  0.0009 -0.3333  0.1601
   17MOL   C28011192   4.181   1.689   6.474 -0.2698  0.1640 -0.5286
   17MOL   C28111193   4.184   1.586   6.362  0.0237 -0.2189  0.1413
   17MOL   C28211194   4.119   1.446   6.391  0.6155  0.1907 -0.0925
   17MOL   C28311195   4.230   1.343   6.368  0.3669 -0.2786  0.6021
   17MOL   C28411196   4.179   1.201   6.361  0.0355  0.0974 -0.2046
   17MOL   C28511197   4.276   1.077   6.363 -0.6635 -0.0145  0.4556
   17MOL   O28611198   4.380   1.087   6.425  0.2865  0.2905  0.1093
   17MOL   H28711199   3.880   1.951   5.935  1.3130 -1.1711  0.3359
   17MOL   H28811200   4.018   2.140   6.138  0.5206 -1.3210  2.7012
   17MOL   H28911201   4.094   2.004   6.058 -0.1267  0.4428 -0.5966
   17MOL   H29011202   3.899   1.873   6.129 -0.2825  0.4709  1.0073
   17MOL   H29111203   3.833   2.002   6.232 -0.5638  0.4849 -1.9901
   17MOL   H29211204   4.114   1.881   6.263 -0.0007 -1.2948 -0.4912
   17MOL   H29311205   4.038   1.989   6.367 -1.8251 -1.3439  2.8807
   17MOL   H29411206   3.923   1.710   6.312  0.9996 -1.9756  1.9663
   17MOL   H29511207   3.861   1.807   6.424 -1.2275  1.8337 -0.6198
   17MOL   H29611208   3.988   1.658   6.548  2.3621 -1.3271  1.0255
   17MOL   H29711209   4.045   1.822   6.571  0.8761 -0.2075 -0.0372
   17MOL   H29811210   4.247   1.768   6.437  1.7558 -0.9849  0.5462
   17MOL   H29911211   4.216   1.650   6.570  1.5075  1.9251 -0.4265
   17MOL   H30011212   4.289   1.578   6.335 -0.0337 -0.1981 -0.0870
   17MOL   H30111213   4.141   1.640   6.277  1.2497 -0.7023 -0.7968
   17MOL   H30211214   4.092   1.444   6.497 -1.2118  1.5009 -0.5151
   17MOL   H30311215   4.029   1.427   6.333  1.5046 -0.1757 -1.3521
   17MOL   H30411216   4.304   1.349   6.448  1.1350 -0.1209 -0.1238
   17MOL   H30511217   4.286   1.367   6.278  1.5425  1.1403  1.6997
   17MOL   H30611218   4.118   1.188   6.272  0.2687 -0.7227 -0.2480
   17MOL   H30711219   4.109   1.174   6.440 -1.5939 -1.4359 -2.1402
   17MOL   N30811220   4.228   0.965   6.307  0.4473 -0.3158  0.2464
   17MOL   C30911221   4.269   0.833   6.360  0.2276 -0.5063  0.0736
   17MOL   C31011222   4.142   0.762   6.411 -1.0146 -0.6880 -0.5873
   17MOL   C31111223   4.098   0.831   6.543 -0.5677 -0.1274  0.5583
   17MOL   C31211224   3.961   0.779   6.604  0.0086  0.5125 -0.6294
   17MOL   C31311225   3.902   0.881   6.711 -0.6683  0.6663  0.2085
   17MOL   C31411226   3.968   0.879   6.859 -0.7707 -0.0769 -0.6325
   17MOL   C31511227   3.881   0.956   6.958 -0.3855  0.1991 -0.5823
   17MOL   C31611228   3.941   0.963   7.100 -0.5952  0.2306  0.1548
   17MOL   C31711229   4.038   1.075   7.133  0.2413  0.3005  0.3376
   17MOL   C31811230   4.092   1.062   7.283  0.5277 -0.6136 -0.1843
   17MOL   C31911231   3.980   1.084   7.385 -0.0031 -0.4032 -0.2729
   17MOL   O32011232   3.951   1.000   7.464 -0.2979  0.9647  0.1949
   17MOL   H32111233   4.139   0.968   6.260 -0.2553 -1.5222  1.4803
   17MOL   H32211234   4.349   0.836   6.433  0.8556 -0.4971 -0.6088
   17MOL   H32311235   4.309   0.781   6.273 -0.0822  0.1239 -0.4513
   17MOL   H32411236   4.163   0.655   6.424  1.3217 -0.2142 -0.1578
   17MOL   H32511237   4.070   0.767   6.329 -1.2149 -1.0849 -0.4363
   17MOL   H32611238   4.175   0.828   6.620 -1.0139 -2.6454  0.9315
   17MOL   H32711239   4.092   0.938   6.523  1.5691  0.1750  1.3989
   17MOL   H32811240   3.969   0.686   6.659 -1.7136  2.0718  2.3792
   17MOL   H32911241   3.888   0.756   6.527  0.7950  0.7912 -1.4715
   17MOL   H33011242   3.803   0.836   6.724 -0.5129 -0.0744 -1.0936
   17MOL   H33111243   3.900   0.981   6.668  1.8874  1.7092  2.3213
   17MOL   H33211244   3.982   0.774   6.885  1.6430  0.0356 -1.2839
   17MOL   H33311245   4.069   0.920   6.851  0.2274 -2.3923 -0.5562
   17MOL   H33411246   3.783   0.908   6.962 -0.5074  0.5859  2.7840
   17MOL   H33511247   3.849   1.051   6.915  0.2765  0.1119 -1.2923
   17MOL   H33611248   3.859   0.977   7.171 -0.4069  0.1603  0.3877
   17MOL   H33711249   3.985   0.867   7.129  0.2785  0.5053 -0.2680
   17MOL   H33811250   3.979   1.165   7.116 -0.4832 -0.6194 -2.3580
   17MOL   H33911251   4.120   1.071   7.062  0.1726  2.3908  0.1187
   17MOL   H34011252   4.173   1.131   7.305 -0.2233  0.5120 -0.8823
   17MOL   H34111253   4.136   0.964   7.299 -0.8844 -1.1732  0.3406
   17MOL   N34211254   3.918   1.203   7.384 -0.1660 -0.5969  0.3611
   17MOL   C34311255   3.814   1.236   7.483  0.3423  0.9879 -0.5302
   17MOL   C34411256   3.776   1.378   7.479  0.3644  0.2196 -0.0351
   17MOL   C34511257   3.647   1.397   7.568  0.8173  0.2347  0.5875
   17MOL   C34611258   3.656   1.362   7.716  0.4705 -0.6448 -0.1891
   17MOL   C34711259   3.568   1.450   0.088 -0.3518 -0.6266  0.3471
   17MOL   C34811260   3.568   1.416   0.238  0.8475  0.6888 -0.5023
   17MOL   C34911261   3.483   1.292   0.274 -0.0396  0.1725  0.0406
   17MOL   C35011262   3.462   1.276   0.423 -0.6312 -0.8233  0.2115
   17MOL   C35111263   3.395   1.139   0.445 -0.1229 -0.0909 -0.0048
   17MOL   C35211264   3.255   1.131   0.392  0.1273 -0.2771 -0.3049
   17MOL   C35311265   3.179   0.998   0.430 -0.3476  0.0613  0.7679
   17MOL   O35411266   3.239   0.892   0.408  0.7434 -0.1720  0.0843
   17MOL   H35511267   3.954   1.278   7.326 -0.0869  0.7298  2.0855
   17MOL   H35611268   3.739   1.161   7.456 -1.4793  2.5416  0.1181
   17MOL   H35711269   3.858   1.211   7.579  2.4566  0.5050 -1.5927
   17MOL   H35811270   3.752   1.398   7.374  0.2212 -1.6502 -0.3767
   17MOL   H35911271   3.848   1.452   7.516 -0.8193  0.2058  2.3524
   17MOL   H36011272   3.613   1.500   7.555  1.3397  0.3891  0.4183
   17MOL   H36111273   3.560   1.343   7.531 -0.1924  1.2084  1.5221
   17MOL   H36211274   3.756   1.372   0.041 -0.5409 -0.4425  2.3038
   17MOL   H36311275   3.631   1.256   0.001 -1.6757 -0.1730  1.1745
   17MOL   H36411276   3.461   1.447   0.068 -0.5005  1.0589  0.7878
   17MOL   H36511277   3.595   1.555   0.075 -0.0486 -0.8944 -1.2688
   17MOL   H36611278   3.668   1.389   0.272  0.4987 -1.0990 -0.8397
   17MOL   H36711279   3.532   1.498   0.299 -0.9902 -1.0736  0.8212
   17MOL   H36811280   3.528   1.206   0.224  1.6124  1.3372 -0.5252
   17MOL   H36911281   3.387   1.295   0.222  0.3537  0.7684 -0.6571
   17MOL   H37011282   3.557   1.285   0.475 -0.1688  2.7665 -1.1256
   17MOL   H37111283   3.399   1.351   0.471 -0.1838  2.0930 -3.5597
   17MOL   H37211284   3.399   1.121   0.552  0.6847 -1.0497 -0.1942
   17MOL   H37311285   3.461   1.061   0.407 -1.6923 -0.9593 -0.9859
   17MOL   H37411286   3.246   1.130   0.284 -2.5808 -1.5230 -0.1185
   17MOL   H37511287   3.195   1.217   0.423 -1.5101 -1.6671  0.5199
   17MOL   N37611288   3.052   1.004   0.468  0.3616 -0.1916 -0.2078
   17MOL   C37711289   2.972   0.889   0.503 -0.4212 -0.5852 -0.9861
   17MOL   C37811290   2.842   0.927   0.584  0.2190 -0.3032 -0.3539
   17MOL   C37911291   2.757   0.814   0.637  0.0176 -0.5025  0.1855
   17MOL   C38011292   2.623   0.873   0.702  0.7876 -0.2947 -0.1267
   17MOL   C38111293   2.654   0.946   0.828  0.8734 -0.2878 -0.0234
   17MOL   C38211294   2.538   0.964   0.930 -0.3224 -0.5214  0.6959
   17MOL   C38311295   2.495   0.827   0.991  0.6447 -0.2281  0.1311
   17MOL   C38411296   2.564   0.786   1.119  0.3247  0.0950  0.0068
   17MOL   C38511297   2.512   0.653   1.175 -0.4203  0.5080 -0.5208
   17MOL   C38611298   2.494   0.536   1.075  0.4414  0.2137  0.0125
   17MOL   C38711299   2.620   0.473   1.025  0.0565  1.3441  0.2222
   17MOL   O38811300   2.641   0.351   1.047 -0.2211  0.4977 -0.5490
   17MOL   H38911301   3.006   1.094   0.471  1.6847  0.4805  0.2480
   17MOL   H39011302   2.941   0.823   0.422  0.5112 -0.5730 -1.3573
   17MOL   H39111303   3.040   0.830   0.564  1.8754  1.8485 -1.1400
   17MOL   H39211304   2.775   0.987   0.523  0.8821 -0.3846 -1.1851
   17MOL   H39311305   2.866   0.989   0.669  0.0666 -0.6963 -0.0229
   17MOL   H39411306   2.746   0.745   0.553 -1.4455  0.3515 -0.3545
   17MOL   H39511307   2.812   0.748   0.704  0.2097 -1.0692 -0.5175
   17MOL   H39611308   2.560   0.786   0.720  1.2246  0.0539  3.5118
   17MOL   H39711309   2.570   0.940   0.634  1.2152  0.7577  0.5646
   17MOL   H39811310   2.689   1.047   0.805  2.3706 -1.2882 -2.3025
   17MOL   H39911311   2.736   0.889   0.871  0.1671 -0.0107  1.7156
   17MOL   H40011312   2.570   1.032   1.009 -1.4414  1.8502 -0.8238
   17MOL   H40111313   2.459   1.014   0.874  0.3232  1.0125  1.1281
   17MOL   H40211314   2.519   0.757   0.911 -1.3553 -1.0603  0.2440
   17MOL   H40311315   2.388   0.838   1.003  0.3219 -1.1029 -1.8718
   17MOL   H40411316   2.671   0.793   1.096 -0.1726  2.2917 -1.7931
   17MOL   H40511317   2.557   0.868   1.191 -0.5401  1.5142 -1.6592
   17MOL   H40611318   2.412   0.671   1.213 -0.8011  0.5806 -1.5695
   17MOL   H40711319   2.570   0.622   1.262 -0.6697 -1.6662 -1.0992
   17MOL   H40811320   2.429   0.540   0.988 -0.0422  0.6139  0.3927
   17MOL   H40911321   2.451   0.462   1.142 -1.0682  2.1403  1.2216
   17MOL   N41011322   2.697   0.555   0.957 -0.5377 -0.4635 -0.0408
   17MOL   C41111323   2.814   0.515   0.878 -0.2098 -0.0690  0.3251
   17MOL   C41211324   2.943   0.591   0.901 -0.1374  0.3357 -0.2597
   17MOL   C41311325   3.059   0.553   0.805 -0.0294 -0.7002 -0.7020
   17MOL   C41411326   3.198   0.602   0.850  0.1744  0.6316 -0.6611
   17MOL   C41511327   3.233   0.753   0.823 -0.4417  0.0232 -0.2741
   17MOL   C41611328   3.358   0.797   0.898 -0.5037 -0.6807 -0.4675
   17MOL   C41711329   3.432   0.910   0.831 -0.3004 -0.0870  0.4928
   17MOL   C41811330   3.558   0.954   0.917  0.2574 -0.1622  0.6296
   17MOL   C41911331   3.653   1.056   0.842  0.1160  0.2792  0.3363
   17MOL   C42011332   3.600   1.202   0.845 -0.3434 -0.6801  0.0311
   17MOL   C42111333   3.705   1.287   0.779 -0.1002  0.6128 -0.0412
   17MOL   O42211334   3.819   1.244   0.766  0.2173  0.2441 -0.0243
   17MOL   H42311335   2.649   0.642   0.938 -2.8546 -1.4261  1.1594
   17MOL   H42411336   2.836   0.408   0.876  1.4766  0.2389  1.2972
   17MOL   H42511337   2.776   0.537   0.778 -2.6456 -1.8063  0.8433
   17MOL   H42611338   2.982   0.558   0.997 -1.2443 -1.3794 -0.3806
   17MOL   H42711339   2.926   0.698   0.912 -0.3543  0.1662  1.1451
   17MOL   H42811340   3.058   0.444   0.802 -1.9960 -0.7229 -0.2373
   17MOL   H42911341   3.035   0.596   0.708  0.5916  0.7684 -0.2208
   17MOL   H43011342   3.270   0.542   0.794 -0.8923 -2.0340  0.7576
   17MOL   H43111343   3.221   0.577   0.954  1.1000 -0.5124 -1.1224
   17MOL   H43211344   3.151   0.813   0.862 -0.1627  0.3214 -0.1540
   17MOL   H43311345   3.231   0.773   0.716 -0.0233 -2.2214 -0.7310
   17MOL   H43411346   3.333   0.845   0.993  0.5415 -2.8177  0.9184
   17MOL   H43511347   3.420   0.714   0.931 -1.2538 -0.8410  0.5496
   17MOL   H43611348   3.370   0.998   0.814 -0.5467 -0.6465 -1.6598
   17MOL   H43711349   3.466   0.880   0.731  1.2375 -0.1145  1.0195
   17MOL   H43811350   3.529   1.004   1.009 -0.0590  0.0012  0.4423
   17MOL   H43911351   3.610   0.861   0.943 -0.0929 -0.8326 -0.9943
   17MOL   H44011352   3.665   1.022   0.739 -0.7306  0.1948  0.2608
   17MOL   H44111353   3.745   1.041   0.898 -0.1392 -1.1619  0.3908
   17MOL   H44211354   3.608   1.233   0.949  1.4533  2.9966 -1.1069
   17MOL   H44311355   3.502   1.223   0.804 -0.0463  0.7475  0.0435
   17MOL   N44411356   3.663   1.407   0.738  0.5781  0.0217  0.0767
   17MOL   C44511357   3.752   1.501   0.665 -0.5409  0.5781  0.4589
   17MOL   C44611358   3.687   1.637   0.650  0.5761  0.2031  0.4595
   17MOL   C44711359   3.574   1.635   0.542  0.0572 -0.1698 -0.0492
   17MOL   C44811360   3.461   1.745   0.554 -0.2912 -0.0340  0.0461
   17MOL   C44911361   3.374   1.770   0.430 -0.1128  0.7330 -0.6943
   17MOL   C45011362   3.256   1.666   0.410 -0.2822  0.3588 -0.2072
   17MOL   C45111363   3.188   1.690   0.277  0.4031 -0.4563  0.0786
   17MOL   C45211364   3.074   1.599   0.242 -0.3449  0.1404 -0.8208
   17MOL   C45311365   3.126   1.458   0.225  0.1489  0.0250  0.0198
   17MOL   C45411366   3.030   1.362   0.145 -0.1078  0.6499  0.5301
   17MOL   C45511367   2.909   1.321   0.234  0.5870  0.1297 -0.2064
   17MOL   O45611368   2.935   1.265   0.338  0.0272 -0.1681  0.2383
   17MOL   H45711369   3.567   1.431   0.756  0.2408  0.4652 -2.1387
   17MOL   H45811370   3.847   1.521   0.715  0.8848 -3.1289 -0.6061
   17MOL   H45911371   3.783   1.460   0.569  2.6351 -0.0452  1.6733
   17MOL   H46011372   3.763   1.712   0.630 -0.3189  1.5012  1.8228
   17MOL   H46111373   3.655   1.677   0.746  2.9255  1.2805  0.8310
   17MOL   H46211374   3.624   1.654   0.447 -0.1675 -0.6542 -0.2667
   17MOL   H46311375   3.536   1.533   0.541  1.0232 -0.5407  0.4416
   17MOL   H46411376   3.505   1.840   0.583 -0.8893  0.7630 -1.5876
   17MOL   H46511377   3.396   1.729   0.641 -1.1855 -0.8279 -0.7574
   17MOL   H46611378   3.445   1.775   0.348  2.0942  1.3298  1.1987
   17MOL   H46711379   3.330   1.869   0.430 -4.6058 -1.1197  2.1069
   17MOL   H46811380   3.292   1.564   0.419 -2.6592 -0.3775  1.4120
   17MOL   H46911381   3.188   1.680   0.495  0.0372  2.6996 -0.2904
   17MOL   H47011382   3.254   1.693   0.190 -0.6019 -1.8885 -0.7649
   17MOL   H47111383   3.137   1.786   0.282  0.7647 -0.2460 -0.2840
   17MOL   H47211384   3.012   1.608   0.331  1.5035  1.7418  0.3554
   17MOL   H47311385   3.010   1.622   0.156 -0.9272 -1.8694 -0.9538
   17MOL   H47411386   3.160   1.414   0.319  0.8645  0.1764 -0.1659
   17MOL   H47511387   3.214   1.472   0.162 -0.6742  1.3452 -0.8756
   17MOL   H47611388   3.080   1.268   0.121 -1.7337 -0.2603  0.6198
   17MOL   H47711389   3.003   1.408   0.050  0.1452  1.6405  0.9280
   17MOL   N47811390   2.788   1.352   0.190  0.4307  0.2297 -0.3315
   17MOL   C47911391   2.687   1.378   0.290 -0.1099  0.8137  0.5410
   17MOL   C48011392   2.566   1.426   0.208 -0.9318 -0.0517 -0.4001
   17MOL   C48111393   2.460   1.488   0.298 -1.0768  0.2674  0.8068
   17MOL   C48211394   2.318   1.493   0.244 -0.3444  0.2616  0.8559
   17MOL   C48311395   2.278   1.601   0.138  0.3624 -0.2214 -0.5651
   17MOL   C48411396   2.131   1.572   0.083  0.1115  0.2687  0.2778
   17MOL   C48511397   2.047   1.688   0.039  0.2691  0.6266 -0.2230
   17MOL   C48611398   2.102   1.771   7.638  0.3294 -0.5515 -0.6573
   17MOL   C48711399   2.222   1.868   7.672  0.0928  0.7112  1.0758
   17MOL   C48811400   2.287   1.914   7.539  0.8437 -0.9478 -0.5781
   17MOL   C48911401   2.349   1.800   7.467  0.0069 -0.3272  0.0493
   17MOL   O49011402   2.455   1.752   7.514  0.0320 -0.1622  0.2830
   17MOL   H49111403   2.776   1.383   0.095 -0.6457 -0.6015 -0.4748
   17MOL   H49211404   2.659   1.287   0.344 -2.1260  0.9069 -0.3042
   17MOL   H49311405   2.722   1.459   0.354  0.2334  0.8915  0.2621
   17MOL   H49411406   2.521   1.359   0.134  0.2973  0.1260 -1.3354
   17MOL   H49511407   2.602   1.513   0.151 -0.8323 -0.0193 -0.2884
   17MOL   H49611408   2.453   1.434   0.392  0.1042  2.0544  1.9327
   17MOL   H49711409   2.480   1.593   0.316 -1.6515  0.4389  0.4740
   17MOL   H49811410   2.251   1.498   0.330  0.5837 -1.6820  1.7186
   17MOL   H49911411   2.286   1.398   0.202  1.7055 -0.1544  0.1870
   17MOL   H50011412   2.345   1.610   0.053 -0.6404  3.0529 -1.0507
   17MOL   H50111413   2.278   1.700   0.183  1.7742  0.1126 -1.2602
   17MOL   H50211414   2.127   1.498   0.002 -2.1809  0.1083  0.5044
   17MOL   H50311415   2.064   1.528   0.157  0.2018 -1.4622 -0.6435
   17MOL   H50411416   2.019   1.759   0.117 -0.1485  0.4464 -0.2092
   17MOL   H50511417   1.950   1.646   0.013 -0.2413  2.3909 -1.1928
   17MOL   H50611418   2.113   1.700   7.556  0.2535 -1.5712  0.1983
   17MOL   H50711419   2.027   1.842   7.605  0.2913 -0.6647 -0.8129
   17MOL   H50811420   2.304   1.819   0.008  0.9483  0.4861 -0.4565
   17MOL   H50911421   2.192   1.957   0.013 -0.5837  2.2432 -1.5784
   17MOL   H51011422   2.362   1.993   7.545  0.8644 -0.9900 -0.2284
   17MOL   H51111423   2.213   1.957   7.472  1.6309  0.6643 -0.4419
   17MOL   N51211424   2.280   1.748   7.367  0.1462  0.2775  0.8026
   17MOL   C51311425   2.315   1.622   7.307 -0.1570 -0.0549  0.2126
   17MOL   C51411426   2.242   1.508   7.382 -0.0135  1.1434 -0.5137
   17MOL   C51511427   2.228   1.373   7.309 -0.1183  0.6218  0.3143
   17MOL   C51611428   2.198   1.256   7.409 -0.6618  0.4218  0.1190
   17MOL   C51711429   2.333   1.205   7.470  0.7902  0.6060  0.7507
   17MOL   C51811430   2.307   1.135   7.603  0.2621  0.1988 -0.8226
   17MOL   C51911431   2.437   1.090   7.679  0.7848 -0.9416  0.0149
   17MOL   C52011432   2.422   1.033   0.107 -0.2299 -0.3121 -0.6316
   17MOL   C52111433   2.563   1.014   0.171 -0.7666  0.5873  0.0749
   17MOL   C52211434   2.553   0.937   0.299 -0.0704 -0.3058  0.0668
   17MOL   C52311435   2.501   0.798   0.285 -0.4183  0.8423 -0.4407
   17MOL   O52411436   2.550   0.720   0.197  0.5047  0.3842 -0.4363
   17MOL   H52511437   2.192   1.789   7.338  0.4322  1.1102  1.1141
   17MOL   H52611438   2.281   1.634   7.204  1.3257  1.1445 -0.1475
   17MOL   H52711439   2.422   1.606   7.295 -0.0089  1.6532 -0.8911
   17MOL   H52811440   2.143   1.546   7.407  0.8748  2.8753  0.4116
   17MOL   H52911441   2.294   1.502   7.478  0.9987  0.0232 -1.1171
   17MOL   H53011442   2.148   1.381   7.236 -0.2158  0.3315  0.3869
   17MOL   H53111443   2.320   1.352   7.255 -0.8806  0.6103 -0.9864
   17MOL   H53211444   2.142   1.172   7.369  0.0644  0.3834 -0.8367
   17MOL   H53311445   2.132   1.301   7.483  0.1302  1.6063  0.1302
   17MOL   H53411446   2.394   1.294   7.486 -0.9698  1.7392  1.2574
   17MOL   H53511447   2.392   1.142   7.403 -0.7637 -2.1960  1.9348
   17MOL   H53611448   2.254   1.201   7.671  1.7857  1.5807 -0.9552
   17MOL   H53711449   2.239   1.049   7.600  0.6689 -0.0956 -1.7875
   17MOL   H53811450   2.496   1.182   7.681 -0.0362 -0.3249 -2.6064
   17MOL   H53911451   2.499   1.019   7.626 -0.9221 -2.3052 -0.1982
   17MOL   H54011452   2.368   1.107   0.166  0.4581 -1.1966  1.1231
   17MOL   H54111453   2.371   0.936   0.103 -1.0896  0.0763  0.4714
   17MOL   H54211454   2.609   1.112   0.187 -0.8233  0.5214  0.6706
   17MOL   H54311455   2.635   0.968   0.103 -0.2402 -0.3439  1.2397
   17MOL   H54411456   2.491   0.990   0.370  0.7645  1.9360 -0.8423
   17MOL   H54511457   2.648   0.935   0.353  1.6796  0.9894 -2.8465
   17MOL   N54611458   2.392   0.770   0.360 -0.3354 -0.8878  0.2780
   17MOL   C54711459   2.302   0.647   0.367 -0.0498  0.1178 -0.0513
   17MOL   C54811460   2.355   0.553   0.475 -0.6046 -1.3478  0.1922
   17MOL   C54911461   2.279   0.430   0.480 -0.5731  1.3328 -0.5575
   17MOL   C55011462   2.334   0.336   0.592  0.5488 -0.0209  0.6976
   17MOL   C55111463   2.250   0.208   0.623 -0.1712  0.2219  0.0825
   17MOL   C55211464   2.330   0.102   0.713 -0.2375  0.1438  0.1986
   17MOL   C55311465   2.231   0.012   0.785 -0.3381  0.6341 -0.2943
   17MOL   C55411466   2.299   7.640   0.898 -0.5741  0.4927  0.8113
   17MOL   C55511467   2.196   7.559   0.969  0.0079 -0.2004 -0.6401
   17MOL   C55611468   2.251   7.426   1.032  0.2373 -0.0192  0.6131
   17MOL   C55711469   2.184   7.299   0.988  0.2740  0.1260  0.7619
   17MOL   O55811470   2.059   7.298   0.974 -1.0161 -0.0966  0.6629
   17MOL   H55911471   2.382   0.832   0.439  1.5320  0.9097 -0.8390
   17MOL   H56011472   2.203   0.678   0.399 -0.2329  0.7549 -1.1970
   17MOL   H56111473   2.294   0.607   0.266 -0.9745 -0.5571  0.2815
   17MOL   H56211474   2.351   0.601   0.573 -2.2756  0.2746 -0.6456
   17MOL   H56311475   2.459   0.531   0.455  0.3253  0.9713  2.1613
   17MOL   H56411476   2.172   0.447   0.482 -0.6727  0.8154 -1.3204
   17MOL   H56511477   2.284   0.369   0.390  0.3967 -0.7653  0.8485
   17MOL   H56611478   2.358   0.397   0.679 -0.0049  2.0556 -0.5591
   17MOL   H56711479   2.426   0.292   0.554 -1.4161 -2.9188 -0.9321
   17MOL   H56811480   2.219   0.162   0.530  1.8763 -0.5395 -0.2592
   17MOL   H56911481   2.158   0.239   0.672 -0.8699 -1.5168 -0.0932
   17MOL   H57011482   2.403   0.050   0.652  0.0129  0.8564 -0.1105
   17MOL   H57111483   2.378   0.150   0.798  1.6104  0.3254 -0.9254
   17MOL   H57211484   2.190   7.655   0.714  1.4387  0.0774 -0.7852
   17MOL   H57311485   2.147   0.066   0.828 -0.8860 -0.8180  0.4975
   17MOL   H57411486   2.356   7.567   0.842  0.5318  2.1792 -0.3108
   17MOL   H57511487   2.378   7.689   0.954  0.3848  2.0234 -1.8035
   17MOL   H57611488   2.117   7.534   0.899 -0.4723  0.6876 -0.4346
   17MOL   H57711489   2.164   7.624   1.051  0.4294  1.6188 -1.8926
   17MOL   H57811490   2.251   7.428   1.141  2.1256 -0.8712  0.6523
   17MOL   H57911491   2.356   7.408   1.009 -0.2295 -2.4913  0.2620
   17MOL   N58011492   2.258   7.191   0.957  0.5421 -0.1492 -0.2503
   17MOL   C58111493   2.213   7.050   0.942 -0.6826  0.3568  0.7923
   17MOL   C58211494   2.314   6.979   0.854  0.1271 -0.2429 -0.7498
   17MOL   C58311495   2.278   6.848   0.795 -0.4858 -0.1363  0.8033
   17MOL   C58411496   2.390   6.823   0.689  0.3336  0.5478 -0.1017
   17MOL   C58511497   2.390   6.679   0.642 -0.1762 -0.4322 -0.2310
   17MOL   C58611498   2.277   6.649   0.542  0.6906 -0.6805  0.3978
   17MOL   C58711499   2.273   6.498   0.498  0.8648  0.0620 -0.6829
   17MOL   C58811500   2.152   6.478   0.400  0.1172 -0.4264  0.1727
   17MOL   C58911501   2.146   6.329   0.348 -0.1480  0.5200  0.7261
   17MOL   C59011502   2.032   6.312   0.242  0.1736 -0.0350  0.3388
   17MOL   C59111503   2.004   6.166   0.206  0.6330 -0.1196 -0.0701
   17MOL   O59211504   1.956   6.092   0.295  0.1868  0.4846 -0.4811
   17MOL   H59311505   2.358   7.203   0.959  0.4486  0.5500  0.5676
   17MOL   H59411506   2.211   7.001   1.040 -1.1920  0.8406  1.0255
   17MOL   H59511507   2.118   7.047   0.890 -0.5856 -3.1884  0.6863
   17MOL   H59611508   2.408   6.961   0.906 -1.0462  0.4200  1.6539
   17MOL   H59711509   2.346   7.047   0.775  0.1670 -0.0892 -0.5991
   17MOL   H59811510   2.282   6.776   0.877  0.5702  0.3080  1.1438
   17MOL   H59911511   2.182   6.854   0.744 -0.2155 -0.3733  0.2539
   17MOL   H60011512   2.488   6.840   0.733 -0.3244  3.7394  0.2263
   17MOL   H60111513   2.377   6.895   0.609  2.7138  0.1843 -0.8451
   17MOL   H60211514   2.391   6.612   0.728 -1.4374 -1.8791 -1.3102
   17MOL   H60311515   2.486   6.662   0.594 -0.2669 -1.7284  0.0261
   17MOL   H60411516   2.177   6.676   0.574  0.8365  0.4849 -0.1084
   17MOL   H60511517   2.291   6.710   0.453  0.5227 -0.8856  0.2311
   17MOL   H60611518   2.253   6.439   0.588  0.2446  1.3142  0.0093
   17MOL   H60711519   2.368   6.452   0.469 -0.1005 -1.1301 -2.0212
   17MOL   H60811520   2.057   6.509   0.442  0.7342 -0.1605  1.3853
   17MOL   H60911521   2.165   6.549   0.318 -1.0244 -2.1040 -1.4933
   17MOL   H61011522   2.127   6.269   0.436 -0.1000  1.8086  1.6331
   17MOL   H61111523   2.242   6.294   0.311 -0.9380  0.8455 -1.7741
   17MOL   H61211524   2.063   6.371   0.156  0.0682  0.8000  0.8721
   17MOL   H61311525   1.950   6.365   0.290 -0.0876  1.6973 -1.9306
   17MOL   N61411526   2.035   6.118   0.083  0.9714 -0.0480 -0.0803
   17MOL   C61511527   2.010   5.979   0.045  0.4944 -0.3855 -0.0925
   17MOL   C61611528   2.033   5.971   7.608 -0.6531  0.8938 -0.6212
   17MOL   C61711529   2.026   5.824   7.549  0.0048  0.5478 -0.3408
   17MOL   C61811530   2.043   5.809   7.393 -1.1949  0.7424  0.1715
   17MOL   C61911531   2.058   5.663   7.351 -0.0914 -0.8548  0.3108
   17MOL   C62011532   2.070   5.666   7.197 -0.1820 -0.1410  0.5191
   17MOL   C62111533   2.116   5.534   7.137  0.8855  0.3144 -0.0694
   17MOL   C62211534   2.142   5.545   6.981 -0.1808  0.2958 -0.1732
   17MOL   C62311535   2.240   5.650   6.930 -0.2209 -1.0872  0.1461
   17MOL   C62411536   2.384   5.632   6.975  0.6632 -0.9296  0.3387
   17MOL   C62511537   2.465   5.533   6.891  0.6647 -0.3091  0.1106
   17MOL   O62611538   2.419   5.485   6.785 -1.0353  0.1338  0.2198
   17MOL   H62711539   2.078   6.180   0.016  2.7762 -1.3704 -0.1824
   17MOL   H62811540   1.909   5.942   0.063  1.3284 -2.7342 -0.0887
   17MOL   H62911541   2.071   5.907   0.099  1.4748  1.3664  1.1880
   17MOL   H63011542   2.133   6.005   7.581 -1.2744  2.6040 -0.8283
   17MOL   H63111543   1.970   6.034   7.546  1.5231  1.5244 -2.2605
   17MOL   H63211544   2.097   5.753   7.593  2.3988  3.1756  0.2284
   17MOL   H63311545   1.932   5.779   7.581  0.0981  2.0825  2.2689
   17MOL   H63411546   2.114   5.877   7.346 -2.4056 -0.0673 -2.9285
   17MOL   H63511547   1.947   5.842   7.354 -0.8669  1.0926 -0.3508
   17MOL   H63611548   1.968   5.603   7.367  0.5025 -1.2127  2.3763
   17MOL   H63711549   2.144   5.614   7.395  0.6191 -0.0135 -0.1372
   17MOL   H63811550   1.979   5.701   7.148 -0.3970  2.0570  2.4066
   17MOL   H63911551   2.155   5.727   7.166 -0.4079 -0.9495 -1.7921
   17MOL   H64011552   2.037   5.460   7.146 -0.8100  2.3224  2.4829
   17MOL   H64111553   2.204   5.488   7.182  0.6131  0.1891  0.3371
   17MOL   H64211554   2.167   5.444   6.947  1.1349  0.3802  0.5549
   17MOL   H64311555   2.042   5.571   6.946  1.2693  4.0603 -1.7744
   17MOL   H64411556   2.213   5.755   6.941 -1.5398 -1.2924 -0.9932
   17MOL   H64511557   2.237   5.638   6.821 -3.0636  1.0276 -0.0659
   17MOL   H64611558   2.388   5.603   7.080  3.2726 -0.5584  0.3834
   17MOL   H64711559   2.439   5.726   6.967  0.4233 -0.5691  2.5874
   17MOL   N64811560   2.585   5.499   6.942 -0.3177 -0.3560  0.0228
   17MOL   C64911561   2.683   5.407   6.887  0.8985 -0.7132 -0.3872
   17MOL   C65011562   2.624   5.262   6.890 -0.5631 -0.5146  0.5037
   17MOL   C65111563   2.634   5.223   7.045  0.0125 -0.1431 -0.7445
   17MOL   C65211564   2.581   5.087   7.070 -0.1299  0.6453  0.2909
   17MOL   C65311565   2.671   4.968   7.033  0.6856 -0.4782 -0.7713
   17MOL   C65411566   2.603   4.827   7.048 -0.2119 -0.1782  0.0772
   17MOL   C65511567   2.627   4.745   7.167  0.6225  0.5815  0.9331
   17MOL   C65611568   2.773   4.687   7.176  0.2123  0.2223  0.1070
   17MOL   C65711569   2.799   4.566   7.259  0.0292 -0.3471  0.7172
   17MOL   C65811570   2.744   4.583   7.407 -0.1331  0.0126  0.3120
   17MOL   C65911571   2.755   4.456   7.488 -0.3665  0.0287 -0.5504
   17MOL   O66011572   2.658   4.385   7.499 -0.1160  0.5630 -0.4050
   17MOL   H66111573   2.620   5.556   7.018 -1.1725 -0.2881  0.3704
   17MOL   H66211574   2.783   5.422   6.928  0.7915 -1.0388  0.0061
   17MOL   H66311575   2.686   5.433   6.782  0.1366  0.6746 -0.0751
   17MOL   H66411576   2.683   5.191   6.832 -1.7559 -0.3115 -0.9956
   17MOL   H66511577   2.526   5.243   6.846 -0.8248 -2.1748  1.8039
   17MOL   H66611578   2.732   5.219   7.092 -0.0010  1.1790 -0.5810
   17MOL   H66711579   2.572   5.288   7.107  0.3989 -1.8294  1.4318
   17MOL   H66811580   2.481   5.070   7.031 -1.0616  2.0603  2.0084
   17MOL   H66911581   2.553   5.079   7.175 -0.5330  2.2066  0.3174
   17MOL   H67011582   2.771   4.973   7.075  0.5910  3.7034 -0.8778
   17MOL   H67111583   2.669   4.964   6.924 -0.5031  2.1550 -0.8660
   17MOL   H67211584   2.496   4.849   7.039 -0.4552 -1.7480 -1.1332
   17MOL   H67311585   2.634   4.767   6.963 -0.9250 -1.0249  0.4101
   17MOL   H67411586   2.563   4.658   7.177 -0.5342  1.4496  1.1187
   17MOL   H67511587   2.617   4.809   7.255 -0.5473 -0.6524  1.7208
   17MOL   H67611588   2.797   4.658   7.074  0.7824 -0.9122  0.5581
   17MOL   H67711589   2.836   4.768   7.213  0.2593  0.3754 -0.3098
   17MOL   H67811590   2.904   4.537   7.256  0.0380 -0.2076 -1.7783
   17MOL   H67911591   2.733   4.488   7.222 -0.9160  0.8303 -0.1467
   17MOL   H68011592   2.642   4.621   7.407  0.2223  1.0556 -2.5573
   17MOL   H68111593   2.803   4.656   7.461  1.2997 -0.3715 -0.7095
   17MOL   H68211594   2.853   4.438   7.533  0.0841  2.4120 -0.4929
   18MOL     N111595   3.881   3.917   4.596  1.1988  0.0493 -0.5739
   18MOL     C211596   3.999   3.836   4.572  0.2077 -0.2354 -0.0258
   18MOL     C311597   4.114   3.932   4.592 -0.3575  0.6927 -0.4163
   18MOL     C411598   4.240   3.862   4.622 -0.3678 -0.6520 -0.3478
   18MOL     C511599   4.360   3.960   4.630  0.5221 -0.2023 -0.6347
   18MOL     C611600   4.345   4.052   4.753  1.0706 -0.3031 -0.2837
   18MOL     C711601   4.476   4.116   4.805  1.1284  0.5745 -0.1021
   18MOL     C811602   4.466   4.256   4.880 -0.0175 -0.7914 -0.5631
   18MOL     C911603   4.392   4.249   5.013  0.7553 -0.2068  0.1589
   18MOL    C1011604   4.419   4.376   5.097 -0.5581  0.7951  0.3302
   18MOL    C1111605   4.326   4.386   5.222  0.9688 -0.3066 -0.1730
   18MOL    C1211606   4.185   4.444   5.190 -0.7972 -0.0259  0.6409
   18MOL    O1311607   4.150   4.469   5.072  0.1104  0.8876 -0.2752
   18MOL    H1411608   3.866   3.957   4.688  2.2004  0.0048 -0.3829
   18MOL    H1511609   3.990   3.784   4.478  0.5782  2.1955 -1.4540
   18MOL    H1611610   4.017   3.762   4.650  1.4896  0.5211  0.4170
   18MOL    H1711611   4.092   4.002   4.673  2.0872 -0.6368  1.4763
   18MOL    H1811612   4.118   3.983   4.496  0.8887 -0.8632 -1.2090
   18MOL    H1911613   4.227   3.813   4.719 -3.0517 -2.7818 -1.7113
   18MOL    H2011614   4.254   3.782   4.550  2.7806  0.8095 -1.4476
   18MOL    H2111615   4.367   4.016   4.537 -1.1505 -0.5326 -0.9743
   18MOL    H2211616   4.450   3.899   4.634 -0.1971 -1.3150 -1.1119
   18MOL    H2311617   4.294   4.010   4.840 -2.0037  0.2152 -1.7620
   18MOL    H2411618   4.278   4.130   4.717  1.5537 -0.3208 -1.2178
   18MOL    H2511619   4.534   4.048   4.867 -0.1413 -1.0730 -0.6772
   18MOL    H2611620   4.545   4.138   4.723 -1.2404  0.1038 -2.2826
   18MOL    H2711621   4.420   4.333   4.818 -0.4884  0.4223  1.2354
   18MOL    H2811622   4.571   4.276   4.902 -0.7299  1.1240  1.2685
   18MOL    H2911623   4.283   4.239   5.011  0.6152  1.0542  0.8091
   18MOL    H3011624   4.422   4.158   5.064 -0.7068 -0.5962  0.3414
   18MOL    H3111625   4.416   4.469   5.041  1.1660  1.3195  1.0797
   18MOL    H3211626   4.520   4.381   5.138 -0.5534 -0.2918  0.4594
   18MOL    H3311627   4.368   4.452   5.297 -0.4551 -0.1424  0.5018
   18MOL    H3411628   4.332   4.294   5.280 -1.2440 -0.3272  0.0815
   18MOL    H3511629   3.862   3.994   4.534 -0.7758 -0.2481 -0.3642
   18MOL    N3611630   4.108   4.461   5.293  0.6598 -0.3388  0.0999
   18MOL    C3711631   3.963   4.502   5.275  0.1579  0.0166  0.3437
   18MOL    C3811632   3.872   4.470   5.394  0.6819  0.8024 -0.0895
   18MOL    C3911633   3.755   4.563   5.416 -0.0130 -0.1299  0.3198
   18MOL    C4011634   3.781   4.705   5.485  0.3125 -0.3320 -0.0219
   18MOL    C4111635   3.827   4.698   5.630 -0.5747 -0.1257  0.0128
   18MOL    C4211636   3.899   4.821   5.679 -0.0072 -0.1791  0.2691
   18MOL    C4311637   3.903   4.810   5.831  0.2927  0.5010 -0.3792
   18MOL    C4411638   3.991   4.918   5.907  0.0225 -0.3820 -0.0153
   18MOL    C4511639   3.976   4.932   6.059  0.9322 -0.6330  0.1431
   18MOL    C4611640   3.980   4.786   6.128 -0.4544  0.7048  0.7694
   18MOL    C4711641   4.118   4.719   6.123 -0.4016  0.2853 -0.4645
   18MOL    O4811642   4.197   4.717   6.027  0.2471 -0.5131 -0.6032
   18MOL    H4911643   4.140   4.437   5.386  0.2919 -1.1523  0.0198
   18MOL    H5011644   3.954   4.609   5.255  0.5591 -0.1986 -1.0620
   18MOL    H5111645   3.920   4.449   5.190  1.3834  0.9675 -0.9021
   18MOL    H5211646   3.927   4.469   5.488 -1.8928 -0.7515  1.4622
   18MOL    H5311647   3.822   4.373   5.384  0.5172  0.8569  0.1888
   18MOL    H5411648   3.712   4.581   5.317  0.6614  1.8004  0.3415
   18MOL    H5511649   3.674   4.516   5.470  0.6740 -1.5046  0.1619
   18MOL    H5611650   3.695   4.768   5.460 -0.9056 -2.1731 -0.5387
   18MOL    H5711651   3.858   4.752   5.424  1.0792 -1.0796  0.3718
   18MOL    H5811652   3.891   4.610   5.631 -0.2272  0.0628 -2.9197
   18MOL    H5911653   3.738   4.673   5.689  0.5278 -0.9195  1.3591
   18MOL    H6011654   4.003   4.825   5.646 -0.2015  0.0049 -0.3254
   18MOL    H6111655   3.851   4.909   5.638  0.8285 -0.2356 -0.8535
   18MOL    H6211656   3.924   4.710   5.867 -1.2415  0.8356  1.5292
   18MOL    H6311657   3.803   4.841   5.862  0.4911  1.7529 -0.9325
   18MOL    H6411658   4.096   4.915   5.879 -0.0445 -0.9013 -0.2239
   18MOL    H6511659   3.954   5.010   5.862 -2.6633  0.1275  3.0431
   18MOL    H6611660   3.878   4.978   6.078  0.7484 -0.5485 -0.9680
   18MOL    H6711661   4.053   4.994   6.105 -1.0208 -1.0787  4.2025
   18MOL    H6811662   3.901   4.722   6.089  1.6889 -0.2181 -2.2493
   18MOL    H6911663   3.955   4.811   6.231 -0.9888 -0.0909  0.8380
   18MOL    N7011664   4.160   4.682   6.247 -0.0584 -0.3614 -0.0075
   18MOL    C7111665   4.279   4.606   6.283 -1.2250 -0.0063 -0.4300
   18MOL    C7211666   4.273   4.456   6.251 -0.0024  0.2838  0.1976
   18MOL    C7311667   4.380   4.374   6.322 -0.7307 -0.1491 -0.2157
   18MOL    C7411668   4.368   4.222   6.279  0.4503  0.4924  0.1949
   18MOL    C7511669   4.407   4.185   6.136 -0.0246 -0.2010 -0.8653
   18MOL    C7611670   4.411   4.030   6.112  0.0509 -0.0016  0.5383
   18MOL    C7711671   4.382   3.975   5.970  0.3091  0.5688  0.3820
   18MOL    C7811672   4.356   3.827   5.963  0.4395  0.2854  0.3124
   18MOL    C7911673   4.462   3.727   6.011  0.2410  0.3664 -0.5608
   18MOL    C8011674   4.434   3.572   5.974 -1.1364  0.7300 -0.0506
   18MOL    C8111675   4.418   3.531   5.831 -0.5360  0.2656  0.1140
   18MOL    O8211676   4.514   3.542   5.752  0.4437  0.4454 -0.0071
   18MOL    H8311677   4.092   4.683   6.322 -1.2057  0.8581 -1.0418
   18MOL    H8411678   4.378   4.645   6.262 -0.4639 -1.3006  0.6808
   18MOL    H8511679   4.283   4.603   6.392 -0.2297 -2.1998 -0.4953
   18MOL    H8611680   4.300   4.447   6.146 -3.0294 -0.2436 -0.5945
   18MOL    H8711681   4.170   4.424   6.267 -0.4677  0.0317 -2.9761
   18MOL    H8811682   4.478   4.414   6.296  0.6717 -2.3606  1.4970
   18MOL    H8911683   4.365   4.377   6.430  0.5309 -1.6658  0.0262
   18MOL    H9011684   4.261   4.198   6.279  0.5058  0.2389 -0.9726
   18MOL    H9111685   4.432   4.156   6.337 -0.1761  1.0227  1.5320
   18MOL    H9211686   4.498   4.239   6.112 -0.7170  0.5782 -1.7649
   18MOL    H9311687   4.328   4.229   6.076 -0.9010  1.3200  1.3332
   18MOL    H9411688   4.504   3.987   6.149  0.2949 -1.8987 -2.2036
   18MOL    H9511689   4.330   3.992   6.173 -0.0467  0.1043  0.4766
   18MOL    H9611690   4.464   3.995   5.901 -1.0212  2.5567 -0.6529
   18MOL    H9711691   4.300   4.028   5.923  0.0194 -1.0289 -0.9324
   18MOL    H9811692   4.258   3.807   6.006  1.3540 -0.2058  2.2351
   18MOL    H9911693   4.344   3.792   5.860  3.1264  0.8405 -0.2338
   18MOL   H10011694   4.471   3.723   6.120  0.4186 -3.9645 -0.6484
   18MOL   H10111695   4.562   3.745   5.972  0.3643  1.1324  0.0917
   18MOL   H10211696   4.343   3.538   6.025 -1.2144 -0.8578 -1.1931
   18MOL   H10311697   4.513   3.507   6.012 -0.5442  0.8726 -1.0288
   18MOL   N10411698   4.296   3.485   5.793 -0.2540  0.1424  0.6249
   18MOL   C10511699   4.266   3.473   5.650  0.7406  0.4246  0.9000
   18MOL   C10611700   4.134   3.545   5.612  0.0444  0.2618 -0.3762
   18MOL   C10711701   4.118   3.690   5.663  0.1808  0.1747  0.0113
   18MOL   C10811702   4.015   3.792   5.610 -0.4033 -0.3068  0.5168
   18MOL   C10911703   4.017   3.925   5.680 -0.2034 -0.1847 -0.9476
   18MOL   C11011704   3.962   4.050   5.603  0.6260 -0.1655 -0.3274
   18MOL   C11111705   3.821   4.038   5.552  0.6473  0.1542 -0.4586
   18MOL   C11211706   3.714   4.061   5.655  0.5462 -0.7356 -1.1168
   18MOL   C11311707   3.569   4.081   5.590  0.0379 -0.3094  0.6094
   18MOL   C11411708   3.516   3.960   5.509 -0.2270 -0.3509  0.0475
   18MOL   C11511709   3.478   3.828   5.584 -0.0543  0.4124 -0.4385
   18MOL   O11611710   3.383   3.835   5.660  0.0152 -0.1757 -0.1992
   18MOL   H11711711   4.220   3.476   5.858 -2.1224  2.8417 -1.0243
   18MOL   H11811712   4.342   3.510   5.582 -0.5822  1.5148  0.0146
   18MOL   H11911713   4.261   3.368   5.619 -0.2407  0.1997  1.7763
   18MOL   H12011714   4.048   3.482   5.633  0.9005 -0.9484 -0.4458
   18MOL   H12111715   4.130   3.549   5.503 -0.3213 -0.2452 -0.3799
   18MOL   H12211716   4.103   3.678   5.770  1.0365 -4.1340 -0.2488
   18MOL   H12311717   4.219   3.731   5.654 -0.0052  0.7469  0.5696
   18MOL   H12411718   3.914   3.751   5.615 -1.4816  2.0807 -1.1137
   18MOL   H12511719   4.036   3.812   5.505  1.2157  2.0642  1.2348
   18MOL   H12611720   4.121   3.956   5.697 -0.8744  1.1952  0.7681
   18MOL   H12711721   3.971   3.926   5.778  0.1266 -3.5850 -0.6959
   18MOL   H12811722   3.969   4.138   5.667 -1.8949 -0.8648  0.9831
   18MOL   H12911723   4.036   4.047   5.523  1.6534 -0.9138  0.6468
   18MOL   H13011724   3.812   3.937   5.512  0.9790  0.3566 -1.0593
   18MOL   H13111725   3.809   4.115   5.476 -0.4027  0.2470 -0.2062
   18MOL   H13211726   3.710   3.989   5.737  2.8813 -1.7081 -1.8052
   18MOL   H13311727   3.735   4.156   5.705 -3.7721 -1.1563  1.7724
   18MOL   H13411728   3.577   4.170   5.527 -1.2634 -1.4339 -1.2125
   18MOL   H13511729   3.491   4.104   5.662 -1.2806 -1.0284 -0.5384
   18MOL   H13611730   3.583   3.932   5.428 -0.0715  1.6897 -0.5453
   18MOL   H13711731   3.429   3.991   5.451 -0.5682 -1.3312  0.0189
   18MOL   N13811732   3.547   3.716   5.562 -0.0048 -0.7043  0.1150
   18MOL   C13911733   3.542   3.600   5.641  0.3349 -0.0003 -0.3362
   18MOL   C14011734   3.443   3.511   5.574 -0.1404 -0.3644  0.2626
   18MOL   C14111735   3.454   3.371   5.639 -0.0482 -0.2321 -0.1065
   18MOL   C14211736   3.383   3.364   5.773  0.2054  0.2589  0.1092
   18MOL   C14311737   3.352   3.215   5.818 -0.3842 -0.6777  0.2782
   18MOL   C14411738   3.232   3.210   5.914 -0.3560 -0.2291 -0.0506
   18MOL   C14511739   3.251   3.300   6.039 -0.4759  0.4105 -0.4090
   18MOL   C14611740   3.364   3.248   6.141  0.0625 -0.2643  0.2472
   18MOL   C14711741   3.373   3.351   6.256  0.0645 -0.0292  0.5681
   18MOL   C14811742   3.463   3.313   6.369 -0.0339 -0.5066  0.3555
   18MOL   C14911743   3.604   3.290   6.332 -0.6236  0.8853  0.4211
   18MOL   O15011744   3.672   3.385   6.284 -0.2036  0.2119 -0.0163
   18MOL   H15111745   3.609   3.710   5.482  2.1399 -0.8919  1.7518
   18MOL   H15211746   3.642   3.558   5.646  0.4804  0.3973  0.2197
   18MOL   H15311747   3.504   3.621   5.741 -2.0165 -3.6563 -0.3437
   18MOL   H15411748   3.472   3.506   5.469 -0.5565  1.8890  0.0259
   18MOL   H15511749   3.344   3.552   5.592  0.4198  0.8665  0.5835
   18MOL   H15611750   3.399   3.305   5.571  1.0682 -1.1422 -0.1416
   18MOL   H15711751   3.554   3.330   5.653  0.5781  0.6011 -1.9605
   18MOL   H15811752   3.293   3.422   5.755  1.0081  1.3072 -0.5481
   18MOL   H15911753   3.434   3.423   5.849  1.0071 -0.8223  0.4317
   18MOL   H16011754   3.435   3.168   5.870 -0.3426 -2.0315 -0.9708
   18MOL   H16111755   3.326   3.147   5.737 -2.1764 -0.7463  0.8853
   18MOL   H16211756   3.147   3.250   5.859 -0.9595 -3.1180 -1.3463
   18MOL   H16311757   3.198   3.110   5.944 -1.0046 -0.5946 -1.9297
   18MOL   H16411758   3.155   3.293   6.091 -0.2917 -0.6866 -0.2165
   18MOL   H16511759   3.264   3.404   6.009 -2.9674  0.9268  0.1123
   18MOL   H16611760   3.320   3.152   6.169  1.0294 -0.8106 -0.0411
   18MOL   H16711761   3.459   3.230   6.090  0.1704  0.2677  0.2605
   18MOL   H16811762   3.276   3.373   6.301  0.7027  1.4149  1.2747
   18MOL   H16911763   3.409   3.444   6.210  0.7573  0.4893  2.1123
   18MOL   H17011764   3.426   3.217   6.405  1.7434 -2.5197 -2.9673
   18MOL   H17111765   3.466   3.390   6.447 -2.9776 -0.7093  0.7053
   18MOL   N17211766   3.651   3.165   6.345  0.0000 -0.1030  0.1614
   18MOL   C17311767   3.792   3.112   6.342  0.2187 -0.2935 -0.6564
   18MOL   C17411768   3.843   3.078   6.485  0.5525  0.1951 -0.2670
   18MOL   C17511769   3.974   2.996   6.490 -0.2488  0.5959 -0.1694
   18MOL   C17611770   3.960   2.855   6.440 -0.0601 -0.4263  0.2468
   18MOL   C17711771   4.070   2.766   6.487  0.1248  0.7886 -0.1069
   18MOL   C17811772   4.199   2.797   6.418 -0.3792  1.0785  0.5100
   18MOL   C17911773   4.309   2.697   6.447 -0.7506  0.2683  0.0277
   18MOL   C18011774   4.445   2.759   6.410  0.2835 -0.3787 -0.2279
   18MOL   C18111775   4.549   2.655   6.390 -0.3497 -0.0385  0.3702
   18MOL   C18211776   4.693   2.727   6.399  0.2661 -0.3440 -0.4968
   18MOL   C18311777   4.792   2.614   6.401  0.2510  0.4219 -0.0517
   18MOL   O18411778   4.793   2.531   6.311  0.4763  0.2660 -0.5281
   18MOL   H18511779   3.576   3.100   6.365 -0.2705 -0.1488 -0.9798
   18MOL   H18611780   3.785   3.018   6.287 -1.0918 -0.7902  0.3316
   18MOL   H18711781   3.862   3.176   6.289  0.2261  0.2524 -0.0019
   18MOL   H18811782   3.763   3.025   6.538 -2.2749  5.5151  1.1861
   18MOL   H18911783   3.859   3.173   6.537  0.3527  0.2256 -0.2598
   18MOL   H19011784   4.053   3.038   6.427  0.7484 -2.0814 -0.7958
   18MOL   H19111785   4.003   2.997   6.595  0.5360 -0.2088 -0.3700
   18MOL   H19211786   3.959   2.859   6.331  0.9652  2.4069  0.3192
   18MOL   H19311787   3.859   2.818   6.464 -1.6834  1.8644 -2.7505
   18MOL   H19411788   4.039   2.663   6.469 -1.9123  1.3697 -0.1039
   18MOL   H19511789   4.084   2.771   6.595  1.9568 -0.6397 -0.2584
   18MOL   H19611790   4.198   2.810   6.310  0.7080 -2.4802 -0.0232
   18MOL   H19711791   4.225   2.893   6.462 -0.7702  0.1987  2.7778
   18MOL   H19811792   4.297   2.610   6.382 -0.7828 -0.7516  1.3936
   18MOL   H19911793   4.310   2.665   6.551 -2.5091  0.8406  0.2278
   18MOL   H20011794   4.433   2.816   6.318  1.9470 -2.0193 -1.5306
   18MOL   H20111795   4.465   2.825   6.494  3.2179 -1.3146 -0.1294
   18MOL   H20211796   4.528   2.615   6.291 -1.7920  1.2510  0.1334
   18MOL   H20311797   4.551   2.580   6.469 -1.7494 -0.3262  0.1418
   18MOL   H20411798   4.698   2.778   6.496  1.8619  0.0650 -0.7815
   18MOL   H20511799   4.714   2.790   6.313 -1.3050 -0.0079 -0.6588
   18MOL   N20611800   4.857   2.589   6.516 -0.1966 -0.8932  0.2786
   18MOL   C20711801   4.924   2.463   6.559 -0.0531  0.0040  0.1370
   18MOL   C20811802   5.037   2.491   6.652  0.0044  0.0235  1.2051
   18MOL   C20911803   5.146   2.578   6.582 -0.7263  0.6116  0.4343
   18MOL   C21011804   5.260   2.595   6.685 -0.2093  0.2800 -0.1875
   18MOL   C21111805   5.379   2.670   6.621 -0.4217 -0.1618  0.1139
   18MOL   C21211806   5.488   2.711   6.723  0.6722  0.1781  0.0570
   18MOL   C21311807   5.623   2.735   6.662 -0.4367  0.4271 -0.4004
   18MOL   C21411808   5.639   2.846   6.558  0.3724  0.0089 -0.0083
   18MOL   C21511809   5.764   2.825   6.468 -0.5994 -0.3845 -0.5916
   18MOL   C21611810   5.785   2.920   6.350 -0.1311 -0.4744  0.0806
   18MOL   C21711811   5.671   2.877   6.249 -0.5785 -0.2606 -0.1224
   18MOL   O21811812   5.675   2.777   6.180 -0.4390 -0.2602 -0.1466
   18MOL   H21911813   4.846   2.656   6.591 -0.1607 -0.6437  0.0633
   18MOL   H22011814   4.956   2.416   6.466 -0.0296  1.0077 -0.3637
   18MOL   H22111815   4.851   2.395   6.603  0.0576 -0.8353 -0.9744
   18MOL   H22211816   5.073   2.391   6.676  1.4054  0.5797  1.4787
   18MOL   H22311817   5.003   2.534   6.746  0.1993  1.2505  0.7194
   18MOL   H22411818   5.181   2.551   6.482 -0.8776  2.0662 -0.0261
   18MOL   H22511819   5.108   2.678   6.560 -3.6271  0.0671  2.7119
   18MOL   H22611820   5.292   2.504   6.736 -1.2870  0.2082  0.3805
   18MOL   H22711821   5.209   2.648   6.766 -1.4168 -0.9187 -0.1351
   18MOL   H22811822   5.335   2.759   6.576 -0.3281 -0.0865  0.1711
   18MOL   H22911823   5.418   2.611   6.538  1.2812  0.8137  0.1758
   18MOL   H23011824   5.457   2.794   6.787  0.5048  0.0691  0.1174
   18MOL   H23111825   5.487   2.629   6.795 -3.0482  1.9202  2.1140
   18MOL   H23211826   5.643   2.635   6.622 -0.7599  0.0454  0.3855
   18MOL   H23311827   5.701   2.762   6.734  1.1311  0.0390 -1.9032
   18MOL   H23411828   5.552   2.848   6.491 -0.5198  2.6798  1.1298
   18MOL   H23511829   5.628   2.949   6.593  0.3049  0.6683 -1.9059
   18MOL   H23611830   5.762   2.723   6.430 -1.2471 -1.8902  3.2780
   18MOL   H23711831   5.855   2.820   6.528 -1.9217  2.4989  1.8031
   18MOL   H23811832   5.877   2.908   6.293  0.2628  2.3339  0.0195
   18MOL   H23911833   5.776   3.025   6.377  1.2039  0.7158 -3.7408
   18MOL   N24011834   5.585   2.977   6.237  0.9638 -0.2281  0.1604
   18MOL   C24111835   5.455   2.978   6.176 -0.3051  0.3605  0.4517
   18MOL   C24211836   5.350   2.938   6.270 -0.1177  0.7987 -0.1138
   18MOL   C24311837   5.212   2.939   6.203 -0.6331  0.1521 -0.2375
   18MOL   C24411838   5.090   2.909   6.298 -0.1162 -0.3317  0.3837
   18MOL   C24511839   5.081   3.015   6.406 -0.3048  0.6886  0.0981
   18MOL   C24611840   4.940   3.012   6.477  0.3621  0.2576 -0.3849
   18MOL   C24711841   4.921   3.099   6.603 -0.6523  0.0228 -0.5200
   18MOL   C24811842   4.984   3.233   6.590  0.1016  0.0448  0.2145
   18MOL   C24911843   4.961   3.329   6.702  0.2730  0.3689 -0.1283
   18MOL   C25011844   5.010   3.476   6.660 -0.7703 -0.3800  0.5131
   18MOL   C25111845   5.160   3.500   6.693 -0.9009  0.3082  1.1956
   18MOL   O25211846   5.249   3.465   6.617 -0.0255  0.0291  0.2657
   18MOL   H25311847   5.593   3.044   6.312 -0.1831  1.0004 -0.7920
   18MOL   H25411848   5.462   2.903   6.097  0.4871  0.7792  0.1324
   18MOL   H25511849   5.442   3.076   6.131 -0.7263  0.7438  1.3911
   18MOL   H25611850   5.355   3.015   6.348 -0.9538 -0.0855  0.8427
   18MOL   H25711851   5.364   2.838   6.311  1.3023  0.6890 -0.8696
   18MOL   H25811852   5.199   3.033   6.149 -1.6356  0.3182  0.2811
   18MOL   H25911853   5.216   2.859   6.129 -1.2037 -1.2549  1.2277
   18MOL   H26011854   5.082   2.807   6.336  0.2354 -0.2679  0.6253
   18MOL   H26111855   4.995   2.932   6.250 -1.7422 -2.1492  2.6145
   18MOL   H26211856   5.099   3.114   6.363 -0.1341  0.7974  0.4210
   18MOL   H26311857   5.159   2.994   6.480 -1.1961 -1.2809  0.5067
   18MOL   H26411858   4.871   3.062   6.409  1.9417  2.0646 -0.7083
   18MOL   H26511859   4.920   2.907   6.500 -0.9577  1.2736  3.4433
   18MOL   H26611860   4.953   3.046   6.693 -1.5073 -1.0373 -0.8263
   18MOL   H26711861   4.812   3.099   6.609 -0.5862  1.3036  1.2540
   18MOL   H26811862   5.089   3.223   6.564 -0.1289 -0.1839 -0.6463
   18MOL   H26911863   4.940   3.280   6.502 -1.1312  0.4891  1.0511
   18MOL   H27011864   5.008   3.309   6.799  0.5304  1.7813  0.0518
   18MOL   H27111865   4.854   3.336   6.725  0.2637 -0.1396  0.0023
   18MOL   H27211866   4.958   3.555   6.714 -0.5828 -0.6211  1.0530
   18MOL   H27311867   4.989   3.506   6.557  1.2891  1.2801  0.5462
   18MOL   N27411868   5.189   3.565   6.805  0.5619 -0.0106  0.0167
   18MOL   C27511869   5.315   3.584   6.864 -0.7272 -0.8143 -0.2067
   18MOL   C27611870   5.299   3.569   7.010 -0.1369  0.2155 -1.2944
   18MOL   C27711871   5.425   3.606   7.090 -0.5151  0.6398  0.0490
   18MOL   C27811872   5.478   3.748   7.082 -0.2252 -0.0963  0.6226
   18MOL   C27911873   5.365   3.852   7.114 -0.1846  0.3874 -0.2953
   18MOL   C28011874   5.409   4.001   7.123 -0.4874  0.2232 -0.3687
   18MOL   C28111875   5.480   4.057   7.006 -1.1610 -0.3697  0.7141
   18MOL   C28211876   5.399   4.076   6.879 -0.3553 -0.2113 -0.0318
   18MOL   C28311877   5.455   4.184   6.790  0.1759  0.1911 -0.2664
   18MOL   C28411878   5.563   4.142   6.689  0.4906  0.3861  0.0832
   18MOL   C28511879   5.630   4.262   6.612  0.0423 -0.3358  0.0466
   18MOL   O28611880   5.620   4.380   6.651 -0.1682 -0.0030  0.1351
   18MOL   H28711881   5.111   3.591   6.865  0.4305  2.3277 -1.0958
   18MOL   H28811882   5.339   3.683   6.825 -1.6088  0.6288  2.7884
   18MOL   H28911883   5.383   3.514   6.815  1.0619  1.3400 -0.8732
   18MOL   H29011884   5.263   3.469   7.035  3.2725 -0.4805  1.1369
   18MOL   H29111885   5.209   3.622   7.042 -0.5540 -1.8324  1.0582
   18MOL   H29211886   5.401   3.588   7.195  2.4699  1.5166  0.9259
   18MOL   H29311887   5.510   3.548   7.055 -0.2288  2.0140 -1.6211
   18MOL   H29411888   5.525   3.761   6.984  1.3276  1.5798  1.5567
   18MOL   H29511889   5.568   3.755   7.143 -0.5234 -2.8898  1.4762
   18MOL   H29611890   5.311   3.822   7.204  0.9224 -1.3535 -0.1726
   18MOL   H29711891   5.281   3.838   7.047 -0.5170 -1.0918  0.4012
   18MOL   H29811892   5.320   4.059   7.148 -0.6684 -0.2088  0.0062
   18MOL   H29911893   5.467   4.012   7.214 -0.3265 -1.0132 -0.3040
   18MOL   H30011894   5.571   3.997   6.991 -0.2253  1.8716 -3.0588
   18MOL   H30111895   5.533   4.147   7.037  0.2047 -1.3086  1.2183
   18MOL   H30211896   5.393   3.986   6.818  0.8951  1.0070 -1.9937
   18MOL   H30311897   5.297   4.111   6.897  0.3676  1.7088  0.3997
   18MOL   H30411898   5.485   4.262   6.860  0.9968  0.4895 -0.9402
   18MOL   H30511899   5.372   4.227   6.734  0.4982  0.7452 -0.3187
   18MOL   H30611900   5.511   4.076   6.620 -0.3440  0.4303  0.6662
   18MOL   H30711901   5.633   4.066   6.724 -1.2731 -1.6014 -0.5871
   18MOL   N30811902   5.677   4.231   6.488  0.1915  0.9038 -0.5909
   18MOL   C30911903   5.732   4.331   6.389 -0.5884 -0.5281 -0.1539
   18MOL   C31011904   5.827   4.261   6.287 -0.0444 -0.2453  0.1092
   18MOL   C31111905   5.901   4.367   6.200 -0.3593  1.0909 -0.5127
   18MOL   C31211906   5.989   4.332   6.075 -0.8273 -0.3604 -0.6577
   18MOL   C31311907   6.013   4.465   5.985  0.6768 -0.0328 -0.5361
   18MOL   C31411908   6.098   4.449   5.856 -0.4046  0.3307 -0.6621
   18MOL   C31511909   6.088   4.571   5.758  0.0089 -0.4113 -0.8718
   18MOL   C31611910   6.174   4.693   5.783  0.3079 -0.5330 -0.0617
   18MOL   C31711911   6.321   4.658   5.797 -0.1200 -0.6593  0.6302
   18MOL   C31811912   6.398   4.786   5.829  0.3345 -0.6108  0.2898
   18MOL   C31911913   6.551   4.765   5.831  0.2043 -0.1022 -0.3825
   18MOL   O32011914   6.595   4.665   5.891 -0.4678  0.2225 -0.1967
   18MOL   H32111915   5.679   4.135   6.456 -0.7164  0.9988 -0.9690
   18MOL   H32211916   5.798   4.396   6.447 -0.5206 -0.1422 -0.6582
   18MOL   H32311917   5.648   4.388   6.349 -0.8287 -0.7682  0.0124
   18MOL   H32411918   5.782   4.192   6.216 -0.0322 -0.5632  0.4094
   18MOL   H32511919   5.891   4.203   6.353  0.3522 -0.1375 -0.1795
   18MOL   H32611920   5.833   4.447   6.171 -1.3526 -0.2395 -1.9547
   18MOL   H32711921   5.967   4.418   6.270  0.6126 -0.6635 -0.1192
   18MOL   H32811922   5.945   4.252   6.015  0.7006  0.4892 -2.9595
   18MOL   H32911923   6.082   4.283   6.102 -1.2668 -0.1667  1.3219
   18MOL   H33011924   6.053   4.548   6.042 -1.7187  1.6282 -1.2218
   18MOL   H33111925   5.912   4.498   5.959 -0.3221 -0.2469  2.9236
   18MOL   H33211926   6.202   4.421   5.868 -0.5756 -0.3489 -0.7281
   18MOL   H33311927   6.048   4.371   5.799 -0.5166  0.9885 -1.4815
   18MOL   H33411928   5.983   4.600   5.753  0.3766  1.2865  0.6006
   18MOL   H33511929   6.112   4.537   5.658  0.2363 -0.3913 -0.8248
   18MOL   H33611930   6.167   4.762   5.699  2.5676 -1.7552 -1.3033
   18MOL   H33711931   6.141   4.753   5.868 -0.2231  0.1611 -0.7581
   18MOL   H33811932   6.360   4.620   5.702  0.1411  0.2691  0.3572
   18MOL   H33911933   6.341   4.585   5.875  0.1040 -0.8343  0.4077
   18MOL   H34011934   6.360   4.820   5.926  1.2204 -1.9381  1.1165
   18MOL   H34111935   6.383   4.870   5.761  5.4507 -0.0599 -0.3244
   18MOL   N34211936   6.624   4.850   5.758  0.3003  0.6699  0.4129
   18MOL   C34311937   6.772   4.851   5.753 -0.3593  0.3580 -0.5857
   18MOL   C34411938   6.825   4.992   5.789 -0.4401  0.7909 -0.5410
   18MOL   C34511939   6.796   5.089   5.672  0.0898 -0.6381  0.0389
   18MOL   C34611940   6.872   5.225   5.687 -0.6193 -0.5470 -0.8718
   18MOL   C34711941   6.833   5.339   5.596  0.1116  0.5095  0.4039
   18MOL   C34811942   6.943   5.455   5.581 -0.1027  0.0292  0.0165
   18MOL   C34911943   6.872   5.582   5.511 -0.2615  0.2406  0.2547
   18MOL   C35011944   6.948   5.713   5.539  0.1047 -0.5804  0.8156
   18MOL   C35111945   6.893   5.844   5.488  0.2467  0.2354 -1.0697
   18MOL   C35211946   6.921   5.856   5.336  0.1827  0.0681 -0.2150
   18MOL   C35311947   6.850   5.973   5.270  0.2274  0.6156  0.2725
   18MOL   O35411948   6.737   5.957   5.224  0.7588 -0.1821 -0.3510
   18MOL   H35511949   6.574   4.924   5.710 -0.8850 -1.2994 -1.5177
   18MOL   H35611950   6.824   4.791   5.828 -2.9332  0.6208  1.4589
   18MOL   H35711951   6.798   4.827   5.650 -0.7365  0.3774 -0.6880
   18MOL   H35811952   6.933   4.983   5.800 -0.2534  1.0936 -2.0482
   18MOL   H35911953   6.782   5.033   5.880  0.1854  2.0955 -0.8219
   18MOL   H36011954   6.822   5.047   5.575 -2.2786 -2.1098  0.0139
   18MOL   H36111955   6.691   5.117   5.674  0.4438  0.7611  2.5115
   18MOL   H36211956   6.975   5.190   5.682  0.1991  1.5678  0.5282
   18MOL   H36311957   6.881   5.261   5.789 -0.5041  2.4762 -1.9115
   18MOL   H36411958   6.749   5.399   5.632 -0.1926  0.9600 -0.9992
   18MOL   H36511959   6.802   5.289   5.504 -1.5390  1.5472  0.3638
   18MOL   H36611960   6.963   5.488   5.682 -0.3451  0.5609 -0.1114
   18MOL   H36711961   7.039   5.422   5.540  0.4353  1.3235  0.2245
   18MOL   H36811962   6.767   5.586   5.538 -1.1411 -0.7865 -2.8374
   18MOL   H36911963   6.878   5.561   5.404 -1.9227  2.2511 -0.2725
   18MOL   H37011964   6.941   5.716   5.648  1.0888 -1.5388  0.9182
   18MOL   H37111965   7.046   5.709   5.493 -0.9577 -0.1937 -1.5456
   18MOL   H37211966   6.932   5.928   5.547  1.0144  0.0234 -1.2623
   18MOL   H37311967   6.786   5.836   5.508  0.3774  0.9111 -0.0364
   18MOL   H37411968   6.899   5.766   5.279  0.3259 -0.7119  0.9552
   18MOL   H37511969   7.028   5.865   5.315 -0.1219  0.5071 -1.6067
   18MOL   N37611970   6.916   6.087   5.251  0.1050  0.4671  0.1027
   18MOL   C37711971   6.866   6.204   5.184  0.1190 -0.2187  0.1286
   18MOL   C37811972   6.799   6.292   5.289 -0.0061 -0.1848 -0.2294
   18MOL   C37911973   6.717   6.417   5.237  1.1438  0.6077  0.7107
   18MOL   C38011974   6.615   6.475   5.338  0.6079  0.1793  0.6404
   18MOL   C38111975   6.497   6.548   5.282  0.1327  0.0333  0.3019
   18MOL   C38211976   6.365   6.479   5.296 -0.1262  0.3796  0.5827
   18MOL   C38311977   6.358   6.343   5.228  0.7849 -0.5314 -0.7005
   18MOL   C38411978   6.249   6.253   5.280  0.4809  0.5395  0.3742
   18MOL   C38511979   6.252   6.115   5.203 -0.7198  0.4146  0.0754
   18MOL   C38611980   6.368   6.022   5.226  0.1339 -0.2591 -0.3001
   18MOL   C38711981   6.391   5.982   5.369  0.5621 -0.1064 -0.0587
   18MOL   O38811982   6.292   5.946   5.438  0.5089 -0.0585  0.2108
   18MOL   H38911983   7.005   6.097   5.298  0.4420  0.1160 -0.4479
   18MOL   H39011984   6.951   6.258   5.142 -0.0536  0.1656  0.2729
   18MOL   H39111985   6.801   6.171   5.103  2.6660 -0.5625 -1.8578
   18MOL   H39211986   6.867   6.346   5.355 -0.8405  0.8967 -0.2336
   18MOL   H39311987   6.731   6.228   5.346  1.2759 -1.1467  0.2326
   18MOL   H39411988   6.786   6.489   5.194 -0.2709  0.1037 -2.5812
   18MOL   H39511989   6.661   6.381   5.150 -0.6209 -0.5690  2.2892
   18MOL   H39611990   6.684   6.538   5.395 -0.8348  2.6938 -0.3297
   18MOL   H39711991   6.589   6.400   5.413  0.5972 -0.6945 -0.2292
   18MOL   H39811992   6.510   6.571   5.176  0.9608  0.3613  0.4656
   18MOL   H39911993   6.486   6.646   5.328  0.3884 -0.6804  1.8960
   18MOL   H40011994   6.353   6.464   5.404  0.1462  0.0376  0.5655
   18MOL   H40111995   6.289   6.543   5.252  0.9265  0.7989 -0.6285
   18MOL   H40211996   6.449   6.284   5.217  0.3278 -1.7511  1.7059
   18MOL   H40311997   6.327   6.353   5.124  0.9358 -3.5332 -1.0656
   18MOL   H40411998   6.254   6.240   5.388 -1.7128 -0.4138  0.3910
   18MOL   H40511999   6.151   6.300   5.269  0.4582  0.2086 -0.9082
   18MOL   H40612000   6.237   6.132   5.096 -0.2502  2.0948  0.2655
   18MOL   H40712001   6.162   6.058   5.227  0.9836 -2.5322 -0.3062
   18MOL   H40812002   6.459   6.075   5.199 -0.5355  1.4357  0.6869
   18MOL   H40912003   6.350   5.928   5.173 -2.5212 -0.3166  0.6269
   18MOL   N41012004   6.516   5.997   5.416 -0.1240 -0.2382  0.3591
   18MOL   C41112005   6.555   6.007   5.552 -0.0818 -0.0835  0.2710
   18MOL   C41212006   6.671   6.107   5.582 -0.3972  0.1276 -0.5221
   18MOL   C41312007   6.747   6.085   5.707 -0.5788  0.0720 -0.0170
   18MOL   C41412008   6.832   6.204   5.751  0.1601 -0.3932 -0.8847
   18MOL   C41512009   6.931   6.166   5.864 -0.7612 -0.5003  0.2604
   18MOL   C41612010   7.028   6.286   5.887 -0.2276 -0.5707 -0.3348
   18MOL   C41712011   7.110   6.274   6.013  0.3271  0.2483 -0.5306
   18MOL   C41812012   7.208   6.402   6.024  0.5293  0.5909  0.0788
   18MOL   C41912013   7.139   6.540   6.001  0.6262  0.2825 -0.2098
   18MOL   C42012014   7.238   6.648   6.019 -0.2612  0.1877  0.5773
   18MOL   C42112015   7.191   6.784   5.970  0.5996 -0.3875  0.7451
   18MOL   O42212016   7.105   6.789   5.886 -0.3656 -0.7321 -0.4026
   18MOL   H42312017   6.588   5.999   5.345  0.8682 -0.5917  1.3451
   18MOL   H42412018   6.468   6.038   5.611 -0.4977 -1.3615  0.3433
   18MOL   H42512019   6.596   5.914   5.590 -0.8730 -0.7577 -0.5054
   18MOL   H42612020   6.637   6.210   5.574 -2.3001 -0.6756 -3.3949
   18MOL   H42712021   6.752   6.094   5.510  0.1164 -0.9841  0.2428
   18MOL   H42812022   6.671   6.074   5.784  0.5111 -1.9876  0.8067
   18MOL   H42912023   6.803   5.991   5.705  2.3226  1.7542 -0.6184
   18MOL   H43012024   6.774   6.291   5.782  2.0084 -0.0971  1.9260
   18MOL   H43112025   6.890   6.233   5.664  1.0986  1.6895  0.3975
   18MOL   H43212026   7.000   6.089   5.830  2.3649  1.7548  1.1850
   18MOL   H43312027   6.868   6.157   5.952 -0.7769 -0.8227  0.2148
   18MOL   H43412028   7.090   6.311   5.801  1.9025 -1.8965  0.7902
   18MOL   H43512029   6.968   6.377   5.895  1.9200  0.7371  1.3665
   18MOL   H43612030   7.170   6.182   6.013  0.5729  0.3832  2.2993
   18MOL   H43712031   7.033   6.266   6.090 -1.1337  1.2079 -1.8659
   18MOL   H43812032   7.268   6.411   6.115  0.3741  0.4180  0.2000
   18MOL   H43912033   7.279   6.382   5.945 -0.5330 -0.8780 -0.5255
   18MOL   H44012034   7.053   6.559   6.065  1.2228 -2.3099  1.4586
   18MOL   H44112035   7.098   6.548   5.901 -2.8207  1.5943  1.2257
   18MOL   H44212036   7.330   6.618   5.967  0.0767  2.1631 -0.0095
   18MOL   H44312037   7.261   6.658   6.125 -1.2331 -0.7787  0.8872
   18MOL   N44412038   7.249   6.895   6.018 -0.3808  0.2481 -0.9457
   18MOL   C44512039   7.216   7.031   5.978 -0.6235  0.5059 -0.1202
   18MOL   C44612040   7.113   7.094   6.064 -0.2575  0.5626 -0.8107
   18MOL   C44712041   7.059   7.213   5.990  0.0304  0.5710  0.2966
   18MOL   C44812042   6.937   7.272   6.065  0.6326 -0.3509  0.6873
   18MOL   C44912043   6.974   7.337   6.191  0.0081  0.1398  0.2250
   18MOL   C45012044   6.863   7.429   6.248 -0.2674 -0.0323  0.3086
   18MOL   C45112045   6.867   7.576   6.197  0.6797 -0.5698  0.1348
   18MOL   C45212046   6.741   7.654   6.228  0.4686  0.0735 -0.3526
   18MOL   C45312047   6.762   0.091   6.237 -0.2829  0.3189  0.5156
   18MOL   C45412048   6.628   0.164   6.230 -0.2398  1.0058 -0.6029
   18MOL   C45512049   6.526   0.124   6.337 -0.5586  0.5158 -0.2812
   18MOL   O45612050   6.539   0.165   6.452 -0.1078  0.0241 -0.7909
   18MOL   H45712051   7.326   6.885   6.083 -1.8409  1.7397  1.0597
   18MOL   H45812052   7.309   7.088   5.976 -0.0137 -0.4626 -0.0721
   18MOL   H45912053   7.193   7.020   5.871 -1.7765  0.4911  0.1256
   18MOL   H46012054   7.158   7.119   6.160 -1.1893  1.3143 -0.5620
   18MOL   H46112055   7.033   7.020   6.076 -0.4321  0.3221 -3.1869
   18MOL   H46212056   7.145   7.277   5.971  1.4127 -1.8619 -1.9082
   18MOL   H46312057   7.016   7.186   5.893  2.1342 -0.2435 -0.4455
   18MOL   H46412058   6.858   7.197   6.073  0.6577 -0.8157 -2.7314
   18MOL   H46512059   6.898   7.351   6.000 -0.6861  0.1835  2.1011
   18MOL   H46612060   7.063   7.399   6.180  0.4464 -0.6014 -0.4920
   18MOL   H46712061   6.992   7.257   6.264 -1.5418 -0.5969 -0.1720
   18MOL   H46812062   6.767   7.383   6.227 -1.0751  0.9641  1.7051
   18MOL   H46912063   6.870   7.436   6.357  1.8227 -2.5076  0.3821
   18MOL   H47012064   6.877   7.579   6.089  0.5748  0.4158  0.1501
   18MOL   H47112065   6.948   7.633   6.243 -0.1146  0.3527  0.3988
   18MOL   H47212066   6.658   7.631   6.161  2.3318 -1.9413 -2.0261
   18MOL   H47312067   6.691   7.614   6.316  0.4637 -0.1180 -0.4408
   18MOL   H47412068   6.841   0.105   6.163  1.0754 -0.6321  1.7486
   18MOL   H47512069   6.818   0.117   6.327 -0.7459  2.0565  0.3223
   18MOL   H47612070   6.589   0.139   6.131  2.1683 -1.3569 -1.0362
   18MOL   H47712071   6.649   0.271   6.225 -0.9600  1.1540 -0.4947
   18MOL   N47812072   6.445   0.021   6.308 -0.3624  0.0019 -0.0592
   18MOL   C47912073   6.357   7.677   6.407  1.0419 -0.0598  0.2646
   18MOL   C48012074   6.384   7.531   6.418  0.1151 -0.0706  0.1997
   18MOL   C48112075   6.310   7.464   6.531 -0.4692 -0.4428 -0.5976
   18MOL   C48212076   6.350   7.317   6.551  1.0268 -0.5005 -0.0884
   18MOL   C48312077   6.285   7.240   6.656  0.7608 -0.0062 -0.7189
   18MOL   C48412078   6.343   7.275   6.796  0.5195  0.1616 -0.4064
   18MOL   C48512079   6.242   7.210   6.888 -0.0003 -0.0473 -0.5647
   18MOL   C48612080   6.120   7.292   6.917  0.3602  0.2255 -0.2093
   18MOL   C48712081   6.043   7.238   7.041  0.0562  0.3603 -0.1676
   18MOL   C48812082   5.898   7.290   7.059  0.3610 -0.0800  0.3074
   18MOL   C48912083   5.841   7.238   7.192  0.3826  0.3796  0.7191
   18MOL   O49012084   5.818   7.116   7.208 -0.1314  0.3187  0.1529
   18MOL   H49112085   6.455   7.701   6.214  0.0128 -1.1715  0.4239
   18MOL   H49212086   6.367   0.001   6.508  0.7594 -0.3975  0.4278
   18MOL   H49312087   6.255   7.700   6.379  1.7481  0.3626 -2.0948
   18MOL   H49412088   6.490   7.532   6.441 -0.0649 -1.7306  1.1525
   18MOL   H49512089   6.372   7.489   6.318 -0.8774 -2.1288  1.1738
   18MOL   H49612090   6.332   7.518   6.623 -2.2377 -0.1779 -0.3216
   18MOL   H49712091   6.204   7.465   6.509 -0.7872 -3.0606  0.5726
   18MOL   H49812092   6.459   7.312   6.554  1.0976 -0.3297 -1.7576
   18MOL   H49912093   6.318   7.284   6.452  0.1820  0.4620 -0.1434
   18MOL   H50012094   6.280   7.134   6.632 -0.2013  0.5069 -2.8808
   18MOL   H50112095   6.180   7.264   6.646  0.0728 -1.5096  2.3728
   18MOL   H50212096   6.445   7.240   6.813  0.3696  1.1056  2.6610
   18MOL   H50312097   6.350   7.384   6.803 -4.5803  0.5445  0.1973
   18MOL   H50412098   6.289   7.193   6.985  0.2883 -1.3925 -0.9228
   18MOL   H50512099   6.224   7.110   6.847 -0.5234 -0.3856  0.4684
   18MOL   H50612100   6.148   7.396   6.932 -0.1294  0.5202 -1.2696
   18MOL   H50712101   6.059   7.298   6.827 -1.4686 -1.8170  0.8445
   18MOL   H50812102   6.112   7.255   7.124  0.2208  0.5015 -0.3340
   18MOL   H50912103   6.040   7.129   7.038  2.4508  0.2490  0.1283
   18MOL   H51012104   5.829   7.273   6.976  0.8589 -0.6057 -0.0073
   18MOL   H51112105   5.900   7.399   7.057 -0.6206 -0.0759 -2.4789
   18MOL   N51212106   5.818   7.334   7.283  0.5354 -0.2627  0.4564
   18MOL   C51312107   5.746   7.305   7.403  0.4613 -0.4918  0.5611
   18MOL   C51412108   5.845   7.252   7.518  0.0205  0.1875  0.7121
   18MOL   C51512109   5.947   7.363   7.570 -0.1854 -0.3889 -0.6448
   18MOL   C51612110   6.061   7.314   7.662  0.0783 -0.4323  0.0624
   18MOL   C51712111   6.147   7.431   0.013  0.5553 -0.5410 -0.1115
   18MOL   C51812112   6.283   7.383   0.065  0.1807 -0.3594 -0.2823
   18MOL   C51912113   6.384   7.497   0.091  0.7666  0.4334 -0.0176
   18MOL   C52012114   6.528   7.450   0.123  0.4945  0.1455  0.3617
   18MOL   C52112115   6.615   7.566   0.157 -0.6324  0.3079  0.0703
   18MOL   C52212116   6.755   7.520   0.203 -0.9829  0.7215 -0.1797
   18MOL   C52312117   6.843   7.449   0.093 -0.5121  0.6721 -0.0149
   18MOL   O52412118   6.856   7.497   7.695 -0.3675  0.1746  0.5808
   18MOL   H52512119   5.832   7.432   7.265 -1.3560 -0.1738 -0.8155
   18MOL   H52612120   5.704   7.399   7.439 -0.0269 -0.5216  0.0898
   18MOL   H52712121   5.664   7.237   7.379 -0.0629 -0.0049  0.9575
   18MOL   H52812122   5.893   7.159   7.486  1.2540 -0.1803  3.5300
   18MOL   H52912123   5.775   7.223   7.596 -3.1695  0.2219 -1.9974
   18MOL   H53012124   5.997   7.420   7.491 -0.4309 -0.4137 -0.8161
   18MOL   H53112125   5.894   7.445   7.619  1.4116 -0.7171  1.7170
   18MOL   H53212126   6.136   7.253   7.612 -0.1229  0.2068 -1.0510
   18MOL   H53312127   6.010   7.257   0.024  1.0144 -0.5441  0.5976
   18MOL   H53412128   6.086   7.468   0.096  1.2234 -1.3734  0.7629
   18MOL   H53512129   6.146   7.517   7.662  0.8977 -0.2258  0.2846
   18MOL   H53612130   6.278   7.315   0.150  2.2790 -0.9082 -0.5803
   18MOL   H53712131   6.330   7.314   7.712 -0.5414  0.5791 -1.7509
   18MOL   H53812132   6.347   7.558   0.174  2.7328 -0.6853  1.7482
   18MOL   H53912133   6.382   7.562   0.004 -2.2054 -1.4678 -1.4490
   18MOL   H54012134   6.528   7.378   0.205  0.7377  0.4020  0.5867
   18MOL   H54112135   6.567   7.396   0.037 -2.0160 -0.5507 -0.3795
   18MOL   H54212136   6.568   7.630   0.232 -0.3141  0.5024  0.1055
   18MOL   H54312137   6.615   7.632   0.070 -0.4830  0.2196  0.0043
   18MOL   H54412138   6.739   7.438   0.274  0.3865  2.5799  2.3789
   18MOL   H54512139   6.816   7.585   0.267 -1.1689 -1.0336  1.8433
   18MOL   N54612140   6.903   7.331   0.132  0.9079 -1.0539 -0.4115
   18MOL   C54712141   6.963   7.235   0.036 -0.3091 -0.0861  0.1726
   18MOL   C54812142   6.886   7.102   0.038  0.0032  0.0407 -0.2540
   18MOL   C54912143   6.743   7.110   0.006 -0.3084 -0.2459  0.2879
   18MOL   C55012144   6.666   6.979   0.021  0.2556 -0.2801 -0.1845
   18MOL   C55112145   6.529   6.977   7.681  0.6649  0.2652  0.2115
   18MOL   C55212146   6.446   6.846   7.688  0.2368  0.6322 -0.0319
   18MOL   C55312147   6.297   6.853   7.657 -0.7497 -0.1383  0.1751
   18MOL   C55412148   6.273   6.904   7.514  0.2108  0.1033 -0.4150
   18MOL   C55512149   6.127   6.936   7.488 -0.4042 -0.0903 -0.9128
   18MOL   C55612150   6.107   6.993   7.350  0.5646  0.3349  0.1891
   18MOL   C55712151   6.079   6.886   7.240  0.7606 -0.2773 -0.5907
   18MOL   O55812152   6.175   6.822   7.199  0.2190 -0.1546 -0.5137
   18MOL   H55912153   6.887   7.301   0.227 -1.2599 -0.9971 -0.7400
   18MOL   H56012154   6.972   7.270   7.649  0.3985 -2.5691 -0.6343
   18MOL   H56112155   7.063   7.208   0.069 -1.1523 -0.5835  2.4546
   18MOL   H56212156   6.897   7.067   0.141  2.2461 -0.5496 -0.6659
   18MOL   H56312157   6.928   7.029   7.684 -2.6182  1.0348 -3.0006
   18MOL   H56412158   6.684   7.187   0.055 -1.9834 -0.2370 -1.6820
   18MOL   H56512159   6.736   7.150   7.620  3.0799 -0.2037  0.0067
   18MOL   H56612160   6.656   6.951   0.126  0.9706  0.6271  0.1298
   18MOL   H56712161   6.719   6.896   7.689 -0.4291  1.3317 -3.8337
   18MOL   H56812162   6.527   7.001   7.574  0.3729  0.2909  0.2244
   18MOL   H56912163   6.471   7.058   0.009  0.4356  0.0597  0.2890
   18MOL   H57012164   6.490   6.780   7.613  1.5587  1.8248 -0.3391
   18MOL   H57112165   6.466   6.804   0.071  0.3704 -0.1236 -0.3814
   18MOL   H57212166   6.251   6.925   0.009  0.7173 -0.1048  1.1496
   18MOL   H57312167   6.250   6.756   7.671 -0.0906 -0.4592  0.2047
   18MOL   H57412168   6.343   6.987   7.499 -1.1304  1.5241  1.0695
   18MOL   H57512169   6.312   6.828   7.446  2.4710 -0.2649  1.2111
   18MOL   H57612170   6.101   7.011   7.563  1.5631  0.3461 -0.6472
   18MOL   H57712171   6.066   6.847   7.501 -0.4689  0.2893  1.6922
   18MOL   H57812172   6.199   7.047   7.329 -0.1187  1.1056 -0.8487
   18MOL   H57912173   6.030   7.070   7.355  0.1083  0.1045 -2.6279
   18MOL   N58012174   5.951   6.880   7.199 -0.0463 -0.3574  0.0967
   18MOL   C58112175   5.890   6.770   7.128  0.0312 -0.0067  0.0572
   18MOL   C58212176   5.861   6.649   7.214 -0.5399  0.0316  0.2020
   18MOL   C58312177   5.758   6.553   7.147  0.0361  0.6401  0.1980
   18MOL   C58412178   5.700   6.468   7.262 -0.2334 -0.4884 -1.0283
   18MOL   C58512179   5.607   6.360   7.206 -0.3503 -0.1131 -0.3722
   18MOL   C58612180   5.515   6.310   7.319  0.0287 -0.0923  0.0069
   18MOL   C58712181   5.462   6.169   7.289  0.5088  0.8024  1.2282
   18MOL   C58812182   5.342   6.159   7.195 -0.2334 -0.3511  0.2683
   18MOL   C58912183   5.305   6.013   7.178 -0.9795 -0.1443  0.3378
   18MOL   C59012184   5.189   5.994   7.078 -0.2906  0.4307  0.0713
   18MOL   C59112185   5.056   6.052   7.108 -0.3491  0.4879 -0.5205
   18MOL   O59212186   5.000   6.021   7.217 -0.1463 -0.0056 -0.5533
   18MOL   H59312187   5.882   6.940   7.242  0.0052  1.0093 -1.6510
   18MOL   H59412188   5.804   6.823   7.085  1.0311  1.0251 -0.7114
   18MOL   H59512189   5.942   6.734   7.039  1.5498  2.3568 -0.0618
   18MOL   H59612190   5.820   6.683   7.309  0.6490  0.1837  0.6665
   18MOL   H59712191   5.951   6.593   7.239 -0.2654  0.0196 -0.8012
   18MOL   H59812192   5.682   6.605   7.088 -1.0425  0.5570  1.5082
   18MOL   H59912193   5.797   6.480   7.076  2.6281  1.6185  0.5433
   18MOL   H60012194   5.645   6.531   7.332 -0.3034 -2.0424  0.3659
   18MOL   H60112195   5.776   6.429   7.329  0.4688  0.0360 -1.5128
   18MOL   H60212196   5.669   6.278   7.172  2.6962  1.3960  1.3630
   18MOL   H60312197   5.561   6.391   7.112  2.4517  1.3841 -1.2833
   18MOL   H60412198   5.561   6.315   7.418 -0.4142 -0.7795  0.2483
   18MOL   H60512199   5.432   6.380   7.321  0.9640  1.1184 -1.9096
   18MOL   H60612200   5.422   6.140   7.386  2.0867 -1.0969  1.3452
   18MOL   H60712201   5.542   6.101   7.256 -1.5791 -0.6774 -1.0088
   18MOL   H60812202   5.252   6.215   7.222 -1.2084 -1.1544 -1.2041
   18MOL   H60912203   5.369   6.209   7.101 -3.9661  0.2606 -0.5848
   18MOL   H61012204   5.290   5.963   7.274 -1.1458 -0.6393  0.0522
   18MOL   H61112205   5.384   5.951   7.137 -0.8287 -0.9888  1.8672
   18MOL   H61212206   5.176   5.889   7.055 -0.7615  0.5240 -0.0945
   18MOL   H61312207   5.214   6.030   6.978 -1.1925 -1.6512 -0.9152
   18MOL   N61412208   5.012   6.147   7.022 -0.4512  0.1847  0.2140
   18MOL   C61512209   4.887   6.225   7.039 -0.3722 -0.4399  0.4463
   18MOL   C61612210   4.905   6.326   7.140 -0.2010 -0.1756 -0.4218
   18MOL   C61712211   4.770   6.411   7.144 -0.8966  0.4240 -0.1290
   18MOL   C61812212   4.786   6.511   7.257  0.7180 -0.0410 -0.1143
   18MOL   C61912213   4.668   6.607   7.265 -0.7845  0.6277 -0.6853
   18MOL   C62012214   4.671   6.701   7.388 -0.1930 -0.1027 -0.0919
   18MOL   C62112215   4.684   6.634   7.528  0.4590  0.5827  0.1776
   18MOL   C62212216   4.662   6.734   7.643 -0.5597  0.6898 -0.7517
   18MOL   C62312217   4.680   6.658   0.065 -0.5601  0.2457 -0.0041
   18MOL   C62412218   4.670   6.740   0.192 -0.9268  0.3759  0.0576
   18MOL   C62512219   4.729   6.665   0.314 -0.9999  0.4210  0.1663
   18MOL   O62612220   4.678   6.558   0.347 -0.1469  0.1038 -0.0929
   18MOL   H62712221   5.077   6.159   6.945 -0.3847 -1.5761 -0.0273
   18MOL   H62812222   4.805   6.154   7.055 -0.6029  0.0153  1.3258
   18MOL   H62912223   4.868   6.269   6.942  2.1043 -3.2099 -1.3815
   18MOL   H63012224   4.986   6.389   7.102  0.4227 -0.2032  0.8317
   18MOL   H63112225   4.935   6.288   7.237 -0.9944  0.7560  0.1977
   18MOL   H63212226   4.748   6.463   7.051  1.1913  0.2848 -0.7110
   18MOL   H63312227   4.683   6.348   7.161 -0.0903 -1.6993 -3.5291
   18MOL   H63412228   4.883   6.560   7.254  0.7344 -0.0787 -0.2374
   18MOL   H63512229   4.785   6.447   7.345 -0.9099  0.6547  0.3972
   18MOL   H63612230   4.576   6.550   7.252 -1.6713  2.0882 -0.9867
   18MOL   H63712231   4.664   6.662   7.171 -2.1360 -1.0803 -1.6635
   18MOL   H63812232   4.747   6.779   7.385 -1.6317  1.3437  0.4042
   18MOL   H63912233   4.577   6.755   7.384 -1.1504 -1.7718 -0.2647
   18MOL   H64012234   4.778   6.580   7.536  0.8550  1.2584  0.0992
   18MOL   H64112235   4.614   6.550   7.527  1.6267 -0.4156  1.0955
   18MOL   H64212236   4.726   6.822   7.635 -0.6197  1.0261  2.0455
   18MOL   H64312237   4.565   6.783   7.630 -0.1168  1.5221 -0.9592
   18MOL   H64412238   4.773   6.603   0.066 -2.1812 -2.5638  1.0816
   18MOL   H64512239   4.599   6.585   0.071 -0.8085  0.3468 -1.8221
   18MOL   H64612240   4.571   6.768   0.225 -0.1411  1.4619  1.5454
   18MOL   H64712241   4.718   6.834   0.166 -0.8158  0.3191  0.0543
   18MOL   N64812242   4.838   6.720   0.369  0.1615  0.4715  0.0439
   18MOL   C64912243   4.921   6.665   0.470 -0.0040 -0.4376 -0.4485
   18MOL   C65012244   4.961   6.761   0.573  0.2282  0.1971 -0.2790
   18MOL   C65112245   5.037   6.701   0.698  0.3904  0.1566  0.4039
   18MOL   C65212246   5.137   6.587   0.670 -0.3478  0.2623 -0.3118
   18MOL   C65312247   5.205   6.542   0.808  0.6634 -0.0717  0.1080
   18MOL   C65412248   5.269   6.403   0.810 -0.1247 -0.0015 -0.4337
   18MOL   C65512249   5.336   6.359   0.941 -0.1650 -0.0336 -0.3117
   18MOL   C65612250   5.410   6.222   0.940  0.0163  0.3010  0.8152
   18MOL   C65712251   5.313   6.107   0.915  0.7518 -0.2308  0.2329
   18MOL   C65812252   5.377   5.968   0.898  0.2808  0.3489 -0.0415
   18MOL   C65912253   5.463   5.951   0.771 -0.2599 -0.4573  0.0900
   18MOL   O66012254   5.464   6.030   0.683 -0.3625 -0.4286  0.5224
   18MOL   H66112255   4.864   6.808   0.327 -2.0070  1.3877  0.5598
   18MOL   H66212256   5.010   6.624   0.423 -2.3216 -4.0296 -1.9151
   18MOL   H66312257   4.873   6.578   0.515  1.1598 -0.3915  0.9274
   18MOL   H66412258   4.881   6.830   0.601  1.3578  1.0306  0.9529
   18MOL   H66512259   5.036   6.818   0.518  0.5635 -0.0335 -0.0645
   18MOL   H66612260   5.075   6.778   0.765  0.6828 -0.2176  0.6676
   18MOL   H66712261   4.955   6.658   0.756  1.8217 -0.6194  1.8953
   18MOL   H66812262   5.220   6.615   0.606  1.9167 -1.5556  1.7616
   18MOL   H66912263   5.084   6.510   0.614 -0.2213 -0.4881  0.5929
   18MOL   H67012264   5.142   6.559   0.895 -0.8285 -3.4195 -0.2258
   18MOL   H67112265   5.282   6.615   0.834  1.9672 -1.9025  1.5381
   18MOL   H67212266   5.187   6.332   0.819  0.5550 -0.4868  2.5338
   18MOL   H67312267   5.338   6.378   0.729  1.4438  0.3212  0.7673
   18MOL   H67412268   5.265   6.356   1.025  1.3804 -0.4524  1.0103
   18MOL   H67512269   5.419   6.424   0.967 -0.3272  0.4900 -1.1094
   18MOL   H67612270   5.484   6.227   0.860  0.2476  0.3297  1.0315
   18MOL   H67712271   5.460   6.206   1.035  2.1276  1.0682 -0.1264
   18MOL   H67812272   5.272   6.128   0.816  0.7493  1.3519  0.5459
   18MOL   H67912273   5.230   6.100   0.986 -0.2955  1.0718 -0.8330
   18MOL   H68012274   5.297   5.894   0.891 -0.4795  1.1602 -0.0771
   18MOL   H68112275   5.444   5.947   0.980 -0.1841  3.2850  1.1691
   18MOL   H68212276   5.521   5.859   0.759 -0.0145 -0.4558  1.1715
   19MOL     N112277   1.708   5.621   0.093  0.9646 -0.0349 -0.2766
   19MOL     C212278   1.829   5.629   0.160  0.2955  0.6365 -0.1494
   19MOL     C312279   1.811   5.703   0.295 -0.4482 -0.0626  0.4238
   19MOL     C412280   1.948   5.729   0.353  0.1637 -0.4328  0.3655
   19MOL     C512281   1.961   5.817   0.481 -0.2459  0.3942 -0.1193
   19MOL     C612282   2.109   5.875   0.497 -0.2444 -0.0341 -0.3080
   19MOL     C712283   2.134   5.980   0.615  0.7675  0.3500 -0.4501
   19MOL     C812284   2.275   6.031   0.642  0.0542 -0.1329  0.4354
   19MOL     C912285   2.273   6.131   0.761  0.3127  0.2952 -0.6703
   19MOL    C1012286   2.406   6.212   0.770  0.0739  0.0719  0.9285
   19MOL    C1112287   2.415   6.322   0.883 -0.0195  0.5941  0.1673
   19MOL    C1212288   2.457   6.263   1.020  0.3392  0.7180 -0.5539
   19MOL    O1312289   2.530   6.165   1.020 -0.2433  0.9931  0.3652
   19MOL    H1412290   1.713   5.550   0.021 -1.4790  0.3117 -0.8375
   19MOL    H1512291   1.905   5.668   0.092 -0.2569 -1.8014 -2.2563
   19MOL    H1612292   1.853   5.524   0.179 -1.7002  0.4548  1.6044
   19MOL    H1712293   1.740   5.665   0.368 -1.3130  1.6245  0.4907
   19MOL    H1812294   1.763   5.794   0.258  0.9796  0.7419  0.5218
   19MOL    H1912295   2.000   5.633   0.363  2.2334  0.5786 -0.3880
   19MOL    H2012296   2.010   5.775   0.276  0.1978  0.1477  0.7406
   19MOL    H2112297   1.927   5.784   0.580  1.6404  0.5074  0.5914
   19MOL    H2212298   1.900   5.903   0.455 -0.5837  0.4871  0.9440
   19MOL    H2312299   2.147   5.916   0.403  0.7132 -2.1183 -0.8648
   19MOL    H2412300   2.171   5.789   0.522 -1.2327 -0.8865 -0.7448
   19MOL    H2512301   2.067   6.065   0.599 -0.5756 -0.9274 -1.7440
   19MOL    H2612302   2.092   5.925   0.699  0.2646 -2.8186 -2.6982
   19MOL    H2712303   2.305   6.084   0.551 -0.6538  0.7908  0.7346
   19MOL    H2812304   2.347   5.949   0.650  2.7040  2.0806  0.0354
   19MOL    H2912305   2.181   6.187   0.746  2.3397  3.5200 -1.5558
   19MOL    H3012306   2.248   6.068   0.846 -1.0513 -0.0815 -1.3316
   19MOL    H3112307   2.438   6.248   0.672  0.1214 -0.4870  0.7323
   19MOL    H3212308   2.491   6.144   0.785 -0.1981  0.0448  2.4047
   19MOL    H3312309   2.324   6.382   0.885  1.0102  2.1690  0.3347
   19MOL    H3412310   2.501   6.384   0.859  0.9895 -1.8822 -3.0832
   19MOL    H3512311   1.710   5.714   0.053 -0.8877 -0.3328 -1.1265
   19MOL    N3612312   2.420   6.312   1.137  0.1963  0.0723 -0.3918
   19MOL    C3712313   2.458   6.280   1.275  0.5940 -0.0144 -0.7669
   19MOL    C3812314   2.375   6.157   1.332 -0.3234 -0.3273  0.0120
   19MOL    C3912315   2.398   6.138   1.476  0.2076 -0.4152  0.1926
   19MOL    C4012316   2.309   6.032   1.536  0.0886 -0.4354 -0.1986
   19MOL    C4112317   2.319   6.020   1.688  0.4177  0.1693 -0.0972
   19MOL    C4212318   2.241   5.903   1.746 -0.5378  0.6387  0.0643
   19MOL    C4312319   2.248   5.896   1.896  0.8169 -0.5650 -0.3107
   19MOL    C4412320   2.117   5.838   1.953 -0.0617  0.5512  0.0674
   19MOL    C4512321   2.117   5.828   2.113 -0.3536  0.4831  0.9023
   19MOL    C4612322   1.987   5.771   2.178  1.3568 -0.1997 -0.7718
   19MOL    C4712323   1.871   5.867   2.169 -0.6830 -0.1927  0.1277
   19MOL    O4812324   1.889   5.978   2.125  0.3730 -0.2907 -0.4747
   19MOL    H4912325   2.368   6.399   1.140 -2.4793 -1.5133 -0.1922
   19MOL    H5012326   2.566   6.269   1.285  0.5868  1.4590  1.2808
   19MOL    H5112327   2.436   6.371   1.332 -1.4883 -0.8735 -0.1288
   19MOL    H5212328   2.384   6.063   1.279 -2.4761  0.5713 -2.0661
   19MOL    H5312329   2.271   6.189   1.339  0.3150  1.6261  1.0886
   19MOL    H5412330   2.499   6.099   1.491  0.4000 -0.0906 -0.2555
   19MOL    H5512331   2.381   6.234   1.526 -0.0971  0.4643 -1.5605
   19MOL    H5612332   2.325   5.931   1.499  1.6369 -1.1527  2.2912
   19MOL    H5712333   2.206   6.060   1.515  0.1097 -1.0848 -1.1833
   19MOL    H5812334   2.301   6.115   1.738  2.7939 -0.4120  1.9446
   19MOL    H5912335   2.424   5.995   1.705  0.3876  0.0883 -0.0344
   19MOL    H6012336   2.139   5.938   1.727 -0.5574 -0.7904 -2.7409
   19MOL    H6112337   2.257   5.803   1.707 -0.1259  0.1331  1.5042
   19MOL    H6212338   2.249   5.996   1.941 -1.0128  1.3100 -4.1719
   19MOL    H6312339   2.330   5.836   1.935  1.0821 -0.2870 -0.4381
   19MOL    H6412340   2.024   5.881   1.917  0.9848  3.9436  1.2554
   19MOL    H6512341   2.113   5.739   1.908  1.0606  0.6679 -0.2898
   19MOL    H6612342   2.143   5.926   2.152  2.0606  0.9605 -1.7284
   19MOL    H6712343   2.201   5.766   2.142 -0.7719 -0.9433 -0.8226
   19MOL    H6812344   2.009   5.752   2.284  0.8931  1.1588 -0.4216
   19MOL    H6912345   1.967   5.671   2.140  0.5521 -0.2681 -0.1788
   19MOL    N7012346   1.755   5.827   2.220  0.0437  0.2103 -0.2481
   19MOL    C7112347   1.627   5.903   2.239 -0.3674  0.7093 -0.6806
   19MOL    C7212348   1.580   5.962   2.103 -0.1322 -0.2312 -0.3461
   19MOL    C7312349   1.442   6.043   2.117  0.1539  0.2694  0.0093
   19MOL    C7412350   1.368   6.077   1.982  0.1228 -0.4184  0.3393
   19MOL    C7512351   1.437   6.161   1.880  0.3783 -0.9646  0.0621
   19MOL    C7612352   1.412   6.310   1.896  0.0518  0.1541 -0.2722
   19MOL    C7712353   1.474   6.392   1.782 -0.0993 -0.2318  0.3343
   19MOL    C7812354   1.458   6.547   1.798 -0.3149 -0.0474 -0.5734
   19MOL    C7912355   1.454   6.624   1.667  0.4170  0.9635 -0.9469
   19MOL    C8012356   1.467   6.772   1.678 -0.7733 -0.4038  0.6466
   19MOL    C8112357   1.397   6.844   1.561  1.1238  0.2520  0.3309
   19MOL    O8212358   1.395   6.801   1.446 -0.2676  0.1102 -0.3716
   19MOL    H8312359   1.751   5.728   2.239  3.2271  0.2094  0.7627
   19MOL    H8412360   1.553   5.859   2.306  0.4425  1.8457  0.9799
   19MOL    H8512361   1.647   5.984   2.308 -0.4623 -0.1549  0.3768
   19MOL    H8612362   1.570   5.879   2.033  0.3053 -1.5138  1.0949
   19MOL    H8712363   1.660   6.027   2.068  1.5084 -1.6384  0.6830
   19MOL    H8812364   1.374   5.982   2.177  0.7034  0.2559  0.6201
   19MOL    H8912365   1.458   6.132   2.177 -2.9146 -0.1959  1.6216
   19MOL    H9012366   1.272   6.119   2.011 -0.7060  0.0925 -2.9692
   19MOL    H9112367   1.350   5.978   1.939 -3.7039  0.7030 -0.8428
   19MOL    H9212368   1.400   6.126   1.783  0.4100  0.1544 -0.3551
   19MOL    H9312369   1.545   6.150   1.883  0.5542  0.3500 -1.2890
   19MOL    H9412370   1.305   6.324   1.886  0.1698  2.1250  1.0652
   19MOL    H9512371   1.434   6.327   2.001  1.8422  1.2112 -0.8017
   19MOL    H9612372   1.430   6.358   1.688 -0.1655 -1.3358  0.7483
   19MOL    H9712373   1.580   6.367   1.780 -0.0315  0.1575 -1.8005
   19MOL    H9812374   1.367   6.581   1.847 -0.3001 -0.9571  0.0852
   19MOL    H9912375   1.543   6.566   1.863 -0.0944 -1.9757 -0.2823
   19MOL   H10012376   1.356   6.599   1.627  0.7405 -0.4411 -0.8847
   19MOL   H10112377   1.525   6.586   1.593  1.1547 -0.4010  0.4246
   19MOL   H10212378   1.569   6.809   1.675 -0.7538 -0.4805  0.2966
   19MOL   H10312379   1.417   6.809   1.767 -0.8433  0.3432  0.3029
   19MOL   N10412380   1.330   6.957   1.589 -0.2181 -0.5929  0.1140
   19MOL   C10512381   1.275   7.035   1.482 -0.0628  0.3165 -0.3243
   19MOL   C10612382   1.160   7.134   1.531 -0.6508 -0.0331  0.2339
   19MOL   C10712383   1.075   7.194   1.412  0.0982  0.1896  0.7103
   19MOL   C10812384   0.935   7.240   1.457 -0.0486 -0.1405  0.0516
   19MOL   C10912385   0.854   7.288   1.332 -0.0487  0.6224  0.2679
   19MOL   C11012386   0.736   7.377   1.369 -0.2726 -0.0106 -0.0608
   19MOL   C11112387   0.615   7.299   1.417 -0.1748  0.3236 -0.0134
   19MOL   C11212388   0.496   7.383   1.445 -0.0329 -0.2701  0.0698
   19MOL   C11312389   0.431   7.430   1.313  0.0220  1.4378  0.4852
   19MOL   C11412390   0.285   7.483   1.343  0.0403 -0.4969  0.1680
   19MOL   C11512391   0.203   7.511   1.213  0.5775 -0.4941 -0.3290
   19MOL   O11612392   0.239   7.601   1.141  0.1439 -1.0034  0.2010
   19MOL   H11712393   1.319   6.993   1.683  1.7452  0.9837 -0.2297
   19MOL   H11812394   1.356   7.089   1.433  1.1375 -1.2358 -0.0667
   19MOL   H11912395   1.233   6.970   1.405  0.6595  1.4214 -1.6935
   19MOL   H12012396   1.209   7.206   1.596  1.0625 -0.4973 -0.5278
   19MOL   H12112397   1.090   7.086   1.600 -0.2146  1.2225  1.5793
   19MOL   H12212398   1.130   7.277   1.367  0.4402  0.1700  1.0878
   19MOL   H12312399   1.060   7.113   1.341 -1.9435 -0.1015  1.4096
   19MOL   H12412400   0.940   7.316   1.535  2.7665 -0.9364  0.7180
   19MOL   H12512401   0.881   7.155   1.498 -0.5081 -0.4838 -1.2205
   19MOL   H12612402   0.810   7.208   1.273  0.0576  2.3191 -2.2030
   19MOL   H12712403   0.918   7.343   1.263 -0.7006  1.1816  0.1020
   19MOL   H12812404   0.768   7.453   1.441  0.1991  2.1652 -2.5032
   19MOL   H12912405   0.707   7.448   1.291 -0.7561 -0.4753 -0.3012
   19MOL   H13012406   0.639   7.235   1.502 -0.0743 -0.0634 -0.3302
   19MOL   H13112407   0.599   7.222   1.341 -2.6031  0.7369  0.0460
   19MOL   H13212408   0.422   7.324   1.498  0.4003 -0.1780  0.7965
   19MOL   H13312409   0.524   7.472   1.503 -0.5428  0.1331 -0.3020
   19MOL   H13412410   0.413   7.354   1.237 -1.6064  2.5259 -0.2511
   19MOL   H13512411   0.485   7.511   1.265  1.3893  0.5011  0.4291
   19MOL   H13612412   0.286   7.566   1.413  2.5752 -0.3564  0.0015
   19MOL   H13712413   0.226   7.399   1.382 -0.6461 -0.1419 -0.0906
   19MOL   N13812414   0.083   7.455   1.200  0.4310  0.1752 -0.4197
   19MOL   C13912415   0.001   7.453   1.082  0.3340 -0.7678 -0.3008
   19MOL   C14012416   0.069   7.380   0.959 -0.3589  0.0123  0.0238
   19MOL   C14112417   7.695   7.413   0.844 -0.5817  0.0204  0.2761
   19MOL   C14212418   7.552   7.346   0.848  0.5069  0.4214  0.5260
   19MOL   C14312419   7.441   7.453   0.818 -0.4032 -0.1951  0.0768
   19MOL   C14412420   7.304   7.400   0.858  0.1727 -0.4887 -1.0861
   19MOL   C14512421   7.192   7.506   0.865  0.3167 -0.5760  0.6479
   19MOL   C14612422   7.048   7.457   0.891  0.0324  0.8123 -0.1956
   19MOL   C14712423   7.036   7.383   1.020 -0.0469 -0.3080  0.1399
   19MOL   C14812424   6.895   7.379   1.074  0.1681 -0.3471  0.3323
   19MOL   C14912425   6.783   7.342   0.969 -0.5673 -0.2345 -0.1507
   19MOL   O15012426   6.738   7.442   0.903 -0.6695  0.5134  0.3419
   19MOL   H15112427   0.053   7.397   1.277  1.2604 -1.3175 -1.1972
   19MOL   H15212428   7.622   7.405   1.106  0.3353 -0.1136  1.0473
   19MOL   H15312429   7.686   7.553   1.052  2.0815 -0.3849 -0.8852
   19MOL   H15412430   0.078   7.274   0.983 -1.8077  0.7487  4.2454
   19MOL   H15512431   0.172   7.410   0.945 -0.5741  0.7453 -0.0373
   19MOL   H15612432   7.693   7.522   0.841 -1.6438 -0.0200 -1.4788
   19MOL   H15712433   0.021   7.365   0.755 -2.8954  0.9369 -1.3435
   19MOL   H15812434   7.532   7.301   0.945 -0.7442  1.5361  0.8024
   19MOL   H15912435   7.541   7.261   0.781  0.3938  0.8296  0.0279
   19MOL   H16012436   7.460   7.491   0.718 -0.7399  1.2043  0.5364
   19MOL   H16112437   7.461   7.536   0.887 -0.0329 -1.0263  0.9889
   19MOL   H16212438   7.279   7.315   0.796  0.0222 -1.8030  0.7404
   19MOL   H16312439   7.307   7.358   0.959 -1.1307  1.4598 -0.1920
   19MOL   H16412440   7.204   7.562   0.772  0.8173 -1.2483  0.3082
   19MOL   H16512441   7.210   7.591   0.931 -1.6481 -0.4011  0.9956
   19MOL   H16612442   6.996   7.552   0.881 -1.5838  0.1584  1.6108
   19MOL   H16712443   7.014   7.411   0.799 -0.2760  0.4407  0.1039
   19MOL   H16812444   7.094   7.444   1.090  0.5732  1.3606 -1.7618
   19MOL   H16912445   7.079   7.283   1.013 -1.1363 -0.7822  0.2586
   19MOL   H17012446   6.867   7.477   1.112  1.8421 -0.0277  0.7401
   19MOL   H17112447   6.896   7.309   1.158 -0.3502 -1.0095 -0.2034
   19MOL   N17212448   6.754   7.216   0.941  0.1607  0.0875 -0.5217
   19MOL   C17312449   6.653   7.163   0.853  0.0357 -0.2034 -0.5523
   19MOL   C17412450   6.518   7.124   0.923 -0.0227  0.5070  0.0546
   19MOL   C17512451   6.433   7.025   0.842 -0.0437  0.0734  0.2795
   19MOL   C17612452   6.308   6.970   0.917 -0.3434 -0.0973 -0.3080
   19MOL   C17712453   6.213   6.896   0.825  0.1775  0.2729 -0.3427
   19MOL   C17812454   6.079   6.862   0.890 -0.1243  0.0653  0.4263
   19MOL   C17912455   5.983   6.785   0.809 -0.9630 -0.1698 -0.1440
   19MOL   C18012456   5.865   6.740   0.883 -0.1821  0.4963 -0.3282
   19MOL   C18112457   5.759   6.685   0.782 -0.1609 -0.0532 -0.1552
   19MOL   C18212458   5.652   6.598   0.853  0.4200 -0.0549 -0.2820
   19MOL   C18312459   5.549   6.684   0.929 -0.0027 -0.0723 -0.0161
   19MOL   O18412460   5.489   6.775   0.876 -0.1602 -0.1041  0.1850
   19MOL   H18512461   6.811   7.142   0.979 -1.3916 -1.6139 -1.4467
   19MOL   H18612462   6.624   7.234   0.776 -1.8526  1.0251  1.2342
   19MOL   H18712463   6.698   7.072   0.813 -2.2026 -2.5018  1.9014
   19MOL   H18812464   6.462   7.216   0.938 -1.8061 -0.4220 -0.7866
   19MOL   H18912465   6.549   7.089   1.021  1.4190 -0.2209 -0.6416
   19MOL   H19012466   6.393   7.072   0.752  0.2199 -2.3420 -1.1159
   19MOL   H19112467   6.499   6.954   0.793 -0.4590  0.9570 -1.5891
   19MOL   H19212468   6.255   7.060   0.948  0.6734  0.3082  0.2851
   19MOL   H19312469   6.334   6.910   1.004  0.2897  1.6049  0.7003
   19MOL   H19412470   6.256   6.799   0.801  0.4698  0.0930  0.8525
   19MOL   H19512471   6.189   6.950   0.733 -3.0769 -2.3551 -1.1345
   19MOL   H19612472   6.104   6.806   0.981 -2.1427  0.1850  1.0641
   19MOL   H19712473   6.030   6.956   0.917  0.0952  0.1349  0.5889
   19MOL   H19812474   6.044   6.706   0.764 -0.3453  0.9851 -1.4002
   19MOL   H19912475   5.955   6.848   0.724  1.6207  1.5202  0.1993
   19MOL   H20012476   5.898   6.648   0.931  2.0369  1.6965  0.5176
   19MOL   H20112477   5.824   6.820   0.944  2.4993  1.2871  0.5136
   19MOL   H20212478   5.807   6.625   0.705 -0.8650 -0.9391  0.0877
   19MOL   H20312479   5.708   6.771   0.737 -1.0530  1.0653  2.8793
   19MOL   H20412480   5.700   6.523   0.916  1.0050  0.4803 -0.0755
   19MOL   H20512481   5.594   6.533   0.788 -0.8142 -0.4503  1.2026
   19MOL   N20612482   5.525   6.657   1.060 -0.5885  0.1239 -0.1672
   19MOL   C20712483   5.413   6.711   1.129 -0.4126  0.8413 -0.0393
   19MOL   C20812484   5.460   6.794   1.249 -0.4236 -0.5510 -0.0836
   19MOL   C20912485   5.344   6.862   1.310 -0.9503 -0.0175  0.3198
   19MOL   C21012486   5.387   6.954   1.427 -0.6867  0.3258  0.0425
   19MOL   C21112487   5.282   7.059   1.470  0.4003  1.1454  0.3407
   19MOL   C21212488   5.316   7.152   1.585  0.3384 -0.1193 -0.0971
   19MOL   C21312489   5.213   7.265   1.616 -0.2474 -0.4733  0.0135
   19MOL   C21412490   5.241   7.329   1.756 -0.0149 -0.3204 -0.0338
   19MOL   C21512491   5.158   7.463   1.788  0.9331  0.9804 -0.3514
   19MOL   C21612492   5.222   7.530   1.910  0.0733  0.1331  0.0169
   19MOL   C21712493   5.157   7.669   1.936 -0.2045  0.6078 -0.1073
   19MOL   O21812494   5.052   7.674   2.002  0.4499 -0.1506 -0.3495
   19MOL   H21912495   5.589   6.595   1.107 -0.3562 -0.5578 -1.3501
   19MOL   H22012496   5.349   6.631   1.166 -1.5849  2.1147  0.7260
   19MOL   H22112497   5.353   6.781   1.070  1.1152  1.3929 -0.9615
   19MOL   H22212498   5.536   6.869   1.227 -0.0409 -1.1826 -0.9251
   19MOL   H22312499   5.508   6.732   1.325  1.7700  1.4922  0.2767
   19MOL   H22412500   5.290   6.917   1.233 -0.6204 -0.0074  0.0944
   19MOL   H22512501   5.279   6.784   1.350  1.0760 -0.3398  3.1415
   19MOL   H22612502   5.475   7.013   1.400 -0.2912 -0.1903  0.1940
   19MOL   H22712503   5.409   6.885   1.507  1.6512  0.2501 -0.6307
   19MOL   H22812504   5.194   7.002   1.499 -0.1377  1.6024 -0.3761
   19MOL   H22912505   5.262   7.135   1.394  3.4158  0.1154 -1.5549
   19MOL   H23012506   5.325   7.095   1.677  1.0036 -0.4956 -0.3927
   19MOL   H23112507   5.419   7.188   1.583  0.2356  0.3698  2.1365
   19MOL   H23212508   5.113   7.227   1.593  0.1935 -0.9466 -1.1366
   19MOL   H23312509   5.238   7.338   1.539  2.3268 -0.9052  0.4009
   19MOL   H23412510   5.217   7.265   1.840  1.4285  0.5786  1.0771
   19MOL   H23512511   5.348   7.343   1.766 -0.3336  1.0219  1.7954
   19MOL   H23612512   5.053   7.437   1.795  1.3062 -0.3974  0.1791
   19MOL   H23712513   5.161   7.541   1.711 -2.1782 -0.3390 -1.8784
   19MOL   H23812514   5.329   7.532   1.892 -0.1740  0.7660 -1.4058
   19MOL   H23912515   5.197   7.467   1.996  0.9275 -0.7462 -0.3629
   19MOL   N24012516   5.222   0.059   1.879 -0.3971 -0.7704  0.1640
   19MOL   C24112517   5.174   0.193   1.887  0.2814 -0.3192 -0.8480
   19MOL   C24212518   5.107   0.251   1.761  0.2098 -0.1293 -0.3832
   19MOL   C24312519   5.096   0.402   1.783  0.0341  0.3039 -0.5681
   19MOL   C24412520   5.058   0.476   1.651  0.2627 -0.0230 -0.3055
   19MOL   C24512521   5.154   0.447   1.543 -0.4914  0.1394  0.2017
   19MOL   C24612522   5.166   0.556   1.437 -0.5571  1.0065 -0.0158
   19MOL   C24712523   5.264   0.522   1.318 -0.0740  0.4344 -0.3958
   19MOL   C24812524   5.223   0.415   1.210 -0.0063 -0.3670 -0.4753
   19MOL   C24912525   5.329   0.406   1.098  0.4612  0.2702  0.4961
   19MOL   C25012526   5.277   0.303   1.000 -0.2223  0.6019 -0.0358
   19MOL   C25112527   5.381   0.265   0.896 -0.3419 -0.0119  0.2493
   19MOL   O25212528   5.462   0.356   0.864 -0.4394 -0.4102 -0.6266
   19MOL   H25312529   5.310   0.045   1.831  0.5923  0.7139  1.5103
   19MOL   H25412530   5.252   0.257   1.928  1.0900 -1.8127  0.0038
   19MOL   H25512531   5.096   0.191   1.963 -0.0576  0.0287 -1.1903
   19MOL   H25612532   5.006   0.213   1.747 -0.0554 -0.5628  2.3954
   19MOL   H25712533   5.173   0.215   1.682  2.1509 -2.0089  1.9800
   19MOL   H25812534   5.026   0.428   1.862  1.2126  0.2105  0.5295
   19MOL   H25912535   5.194   0.440   1.812  0.5803 -1.4939 -0.0132
   19MOL   H26012536   5.061   0.584   1.671  0.4796 -0.0140 -0.3789
   19MOL   H26112537   4.958   0.449   1.619 -0.7236  2.0381  0.9088
   19MOL   H26212538   5.143   0.356   1.484  0.5791 -0.4944  0.9600
   19MOL   H26312539   5.258   0.437   1.575  0.6543 -0.9054 -3.5414
   19MOL   H26412540   5.066   0.582   1.402 -0.3069 -0.2643 -1.7026
   19MOL   H26512541   5.196   0.655   1.473  1.5099  0.2987  0.2459
   19MOL   H26612542   5.361   0.491   1.357  0.3821  1.6099 -0.5808
   19MOL   H26712543   5.292   0.613   1.265  0.3247 -0.5629 -1.9284
   19MOL   H26812544   5.207   0.330   1.277 -1.4479  1.7955  2.0241
   19MOL   H26912545   5.131   0.451   1.164  0.9082  1.2728 -1.0788
   19MOL   H27012546   5.425   0.371   1.135  1.8457  1.0496 -2.2192
   19MOL   H27112547   5.355   0.499   1.047 -1.2837  0.4350 -0.1160
   19MOL   H27212548   5.182   0.329   0.953 -0.9421 -0.7795  0.6093
   19MOL   H27312549   5.257   0.213   1.059 -0.7249  0.2504 -0.7370
   19MOL   N27412550   5.388   0.136   0.858  0.5604  0.0416 -0.5380
   19MOL   C27512551   5.496   0.099   0.771 -0.0489  0.0104  0.4007
   19MOL   C27612552   5.532   7.660   0.779  1.0318 -0.5208 -0.3190
   19MOL   C27712553   5.630   7.619   0.663 -0.0150 -0.0762 -0.0120
   19MOL   C27812554   5.771   7.688   0.675 -0.5310  0.4027 -0.4459
   19MOL   C27912555   5.864   7.685   0.552  0.2220  0.4632  0.0579
   19MOL   C28012556   5.825   0.054   0.436  0.0545 -0.9245  0.1312
   19MOL   C28112557   5.911   0.035   0.309  0.7034 -0.1025 -0.5846
   19MOL   C28212558   6.043   0.106   0.309  0.6179  0.1905  0.1017
   19MOL   C28312559   6.117   0.080   0.182 -0.2109  0.4583 -0.4131
   19MOL   C28412560   6.235   0.173   0.153  0.1607 -0.0967  0.5417
   19MOL   C28512561   6.273   0.167   0.002  0.3646 -0.3455  0.6082
   19MOL   O28612562   6.206   0.100   7.641 -0.3093 -0.1258  0.3519
   19MOL   H28712563   5.336   0.065   0.907  0.8273 -0.8356 -1.5234
   19MOL   H28812564   5.588   0.154   0.788 -0.6026  0.8329  0.7661
   19MOL   H28912565   5.475   0.130   0.668  2.5488  0.0796 -0.1396
   19MOL   H29012566   5.447   7.594   0.760  0.4848  0.9963 -3.3971
   19MOL   H29112567   5.580   7.649   0.876 -0.9612  0.4629  0.8174
   19MOL   H29212568   5.636   7.510   0.663  1.4821 -0.0073  0.1151
   19MOL   H29312569   5.583   7.646   0.569 -1.2979  2.8093  1.3899
   19MOL   H29412570   5.827   7.649   0.761 -0.8979 -0.2530 -0.5007
   19MOL   H29512571   5.762   0.077   0.704  2.6290  0.1408  1.7862
   19MOL   H29612572   5.866   7.584   0.512  1.2247 -0.8976  3.3465
   19MOL   H29712573   5.967   7.708   0.579  0.2346  0.1929  0.2409
   19MOL   H29812574   5.719   0.033   0.422 -0.2757  0.8875 -0.2918
   19MOL   H29912575   5.831   0.161   0.458  2.1565 -1.4804  2.5163
   19MOL   H30012576   5.851   0.077   0.229 -0.4837 -0.7468 -0.0415
   19MOL   H30112577   5.937   7.647   0.285 -0.0480 -0.0912 -1.4442
   19MOL   H30212578   6.019   0.211   0.294  0.6104 -0.1086 -2.0790
   19MOL   H30312579   6.106   0.094   0.398 -1.7451 -2.6841  1.4561
   19MOL   H30412580   6.040   0.099   0.108  1.4739  0.5980 -2.1721
   19MOL   H30512581   6.146   7.691   0.173 -0.2116  0.4015  0.2147
   19MOL   H30612582   6.320   0.151   0.217  0.2420  0.7857  0.7318
   19MOL   H30712583   6.206   0.276   0.171  0.6354  0.1358  0.0164
   19MOL   N30812584   6.395   0.217   7.689 -0.2973  0.2610 -0.5873
   19MOL   C30912585   6.453   0.236   7.556  0.4433 -0.1097  0.9097
   19MOL   C31012586   6.499   0.098   7.499  0.0697 -0.5395  0.1485
   19MOL   C31112587   6.551   0.115   7.349 -0.0701  1.0068 -0.6013
   19MOL   C31212588   6.594   7.707   7.279  0.0982  0.1800 -0.5471
   19MOL   C31312589   6.622   0.009   7.127  0.1152  0.2535 -0.4280
   19MOL   C31412590   6.614   7.598   7.045  0.8867 -0.1887  0.1582
   19MOL   C31512591   6.722   7.603   6.935 -0.2354  0.1651 -0.3277
   19MOL   C31612592   6.715   7.480   6.846 -0.0354 -0.2391 -0.1497
   19MOL   C31712593   6.813   7.488   6.725 -0.7046  0.1539  1.6415
   19MOL   C31812594   6.776   7.589   6.615  0.1600  0.7836  0.2816
   19MOL   C31912595   6.833   0.013   6.629 -0.3080 -0.7383  0.3349
   19MOL   O32012596   6.948   0.032   6.665  0.5509  0.1224  0.1120
   19MOL   H32112597   6.451   0.252   0.050 -0.2298  0.5591 -0.7686
   19MOL   H32212598   6.533   0.309   7.552 -0.4196  0.7637 -2.9590
   19MOL   H32312599   6.381   0.269   7.481  0.6631  1.4956  1.3961
   19MOL   H32412600   6.416   0.029   7.502 -0.6591  0.2960 -0.6834
   19MOL   H32512601   6.570   0.056   7.570 -0.9826 -0.4024  1.2940
   19MOL   H32612602   6.470   0.168   7.299 -0.7047  0.4767 -0.1535
   19MOL   H32712603   6.638   0.179   7.359 -0.4950  1.4389  0.3994
   19MOL   H32812604   6.515   7.634   7.300  0.6356 -0.4647 -0.7540
   19MOL   H32912605   6.683   7.665   7.326 -0.6418  0.9476  1.5982
   19MOL   H33012606   6.713   0.069   7.119 -0.8154  2.1270  2.2952
   19MOL   H33112607   6.550   0.075   7.079 -0.3711 -1.2544 -1.8190
   19MOL   H33212608   6.625   7.511   7.110 -1.1195  0.3157  1.2142
   19MOL   H33312609   6.521   7.585   6.989  1.8246  0.1802 -1.5063
   19MOL   H33412610   6.823   7.609   6.977 -0.0876 -1.8759 -0.3413
   19MOL   H33512611   6.704   7.692   6.875 -2.7702 -0.2372 -0.2109
   19MOL   H33612612   6.744   7.404   6.918  0.7300  1.4202  1.3127
   19MOL   H33712613   6.611   7.467   6.817  0.6120 -3.5604 -1.1901
   19MOL   H33812614   6.809   7.385   6.691 -3.5862 -0.1351  2.7861
   19MOL   H33912615   6.910   7.516   6.768  0.0945  0.7165 -0.4462
   19MOL   H34012616   6.668   7.600   6.601  0.4613  2.2881 -0.9757
   19MOL   H34112617   6.809   7.550   6.519 -1.9423  3.9593 -1.8221
   19MOL   N34212618   6.745   0.114   6.628  0.0250  0.4081  0.0316
   19MOL   C34312619   6.780   0.251   6.667  0.3887 -0.3124 -0.1147
   19MOL   C34412620   6.800   0.263   6.825 -0.4288 -0.6794  0.2291
   19MOL   C34512621   6.789   0.404   6.886 -0.0907 -0.4387 -0.3545
   19MOL   C34612622   6.735   0.399   7.032 -1.2212 -0.3485 -0.4316
   19MOL   C34712623   6.829   0.453   7.138 -0.4081  0.0363 -0.0764
   19MOL   C34812624   6.753   0.479   7.265 -0.0534  0.2625  0.7599
   19MOL   C34912625   6.847   0.524   7.377 -0.4208 -0.0554 -0.2857
   19MOL   C35012626   6.778   0.587   7.501  0.4497 -0.3855 -0.3223
   19MOL   C35112627   6.870   0.657   7.596 -0.2531 -0.1610  0.4117
   19MOL   C35212628   6.789   0.732   7.707  0.1951  0.1858  0.4774
   19MOL   C35312629   6.762   0.884   7.669 -0.3731 -0.8204  0.3052
   19MOL   O35412630   6.862   0.956   7.630  0.6806  0.0242 -0.7161
   19MOL   H35512631   6.651   0.106   6.590  0.2531 -0.8816 -0.3007
   19MOL   H35612632   6.872   0.280   6.617 -0.5325  0.4517 -1.4337
   19MOL   H35712633   6.696   0.314   6.635 -2.2509 -1.9517  3.2848
   19MOL   H35812634   6.905   0.235   6.840 -0.2240 -0.0818 -0.0864
   19MOL   H35912635   6.732   0.197   6.879 -1.0635 -1.6436 -1.6689
   19MOL   H36012636   6.891   0.442   6.880 -0.5001  1.0060  1.3402
   19MOL   H36112637   6.719   0.462   6.826  0.0099  0.0306 -0.0219
   19MOL   H36212638   6.716   0.295   7.059  0.9862 -0.1719  2.0077
   19MOL   H36312639   6.640   0.450   7.044 -0.7491  0.7276 -1.2459
   19MOL   H36412640   6.872   0.544   7.096 -0.4484  0.4387  0.7440
   19MOL   H36512641   6.908   0.381   7.162 -0.8636 -0.3116  0.4035
   19MOL   H36612642   6.676   0.556   7.253  0.9279  1.4607  2.0398
   19MOL   H36712643   6.707   0.386   7.297  1.4444 -1.4676 -1.9803
   19MOL   H36812644   6.928   0.587   7.341 -1.1005  0.7384 -0.4414
   19MOL   H36912645   6.910   0.447   7.423 -1.4160  0.1169  1.4363
   19MOL   H37012646   6.701   0.657   7.468 -0.4789 -1.0135  0.5001
   19MOL   H37112647   6.713   0.513   7.547 -2.7718  1.3128 -2.0273
   19MOL   H37212648   6.936   0.729   7.548  0.6915  0.3518  2.4035
   19MOL   H37312649   6.940   0.588   7.641 -0.4225  0.6154  1.9190
   19MOL   H37412650   6.854   0.726   0.079  1.1483  0.4316 -0.2108
   19MOL   H37512651   6.692   0.685   0.011 -0.5088  1.4337  0.0550
   19MOL   N37612652   6.637   0.923   7.671 -0.2137 -0.4861  0.0075
   19MOL   C37712653   6.595   1.060   7.632  0.5061  0.1357  0.2791
   19MOL   C37812654   6.453   1.053   7.572  0.2166  0.1591  0.5129
   19MOL   C37912655   6.350   1.062   7.685 -0.1767  0.3736  0.2117
   19MOL   C38012656   6.205   1.029   7.644  0.5260  0.3816 -0.3020
   19MOL   C38112657   6.100   1.025   0.044  0.4832  0.2236  0.0967
   19MOL   C38212658   5.961   0.975   0.002 -0.5452  1.2379 -0.3833
   19MOL   C38312659   5.848   1.001   0.102 -0.0327  0.5048  1.0038
   19MOL   C38412660   5.827   0.883   0.190  0.4268  0.0169 -0.1430
   19MOL   C38512661   5.725   0.924   0.299  0.4101  0.4816 -1.2485
   19MOL   C38612662   5.580   0.910   0.243  0.2481  0.2752 -0.0655
   19MOL   C38712663   5.509   0.779   0.263 -0.3826 -0.5366 -0.4981
   19MOL   O38812664   5.540   0.706   0.354 -0.0499 -0.3448 -0.1131
   19MOL   H38912665   6.568   0.855   7.697 -0.0814 -0.1694  1.2297
   19MOL   H39012666   6.605   1.129   0.000 -0.1756  0.2290  0.2789
   19MOL   H39112667   6.657   1.100   7.551 -0.5390  0.3829 -0.4004
   19MOL   H39212668   6.432   0.963   7.514  1.5965  0.2976 -0.2392
   19MOL   H39312669   6.442   1.136   7.502 -1.8773 -0.1433  0.4562
   19MOL   H39412670   6.371   0.996   0.054  0.7496  0.0415 -0.2754
   19MOL   H39512671   6.361   1.163   0.008  2.5567 -0.8046  2.7231
   19MOL   H39612672   6.202   0.933   7.592  5.3757  0.3242 -0.6386
   19MOL   H39712673   6.174   1.109   7.576 -0.3102  1.2377  1.0668
   19MOL   H39812674   6.092   1.127   0.081  1.3656 -1.0777  4.1221
   19MOL   H39912675   6.132   0.960   0.126 -0.2120  1.8321  1.6829
   19MOL   H40012676   5.934   1.038   7.633 -1.3220  2.9612  1.1201
   19MOL   H40112677   5.971   0.872   7.685 -1.8481  1.3154 -1.0907
   19MOL   H40212678   5.758   1.037   0.053  0.7195  0.3493 -0.5357
   19MOL   H40312679   5.878   1.087   0.162 -0.3343  0.6186  0.9874
   19MOL   H40412680   5.797   0.796   0.132  2.2717 -1.1885  0.6519
   19MOL   H40512681   5.919   0.869   0.247  0.6673 -0.9340 -0.7508
   19MOL   H40612682   5.747   1.028   0.323  0.5573  0.3695 -0.9036
   19MOL   H40712683   5.732   0.864   0.389  2.4723  0.6048 -1.3097
   19MOL   H40812684   5.574   0.925   0.135 -0.3298  0.4999 -0.0002
   19MOL   H40912685   5.517   0.982   0.294 -1.4758 -0.9136 -0.4525
   19MOL   N41012686   5.400   0.753   0.183  0.1517 -0.1929 -0.2009
   19MOL   C41112687   5.308   0.641   0.186 -0.5964 -0.7368 -0.0748
   19MOL   C41212688   5.333   0.548   0.076 -0.4014 -0.1644 -0.7436
   19MOL   C41312689   5.354   0.594   7.645 -0.0114 -0.4031 -0.4164
   19MOL   C41412690   5.362   0.481   7.539 -0.3247 -0.2572  0.3053
   19MOL   C41512691   5.394   0.531   7.397 -0.5581 -0.7192  0.5719
   19MOL   C41612692   5.374   0.433   7.283 -0.2337  0.0980  0.3535
   19MOL   C41712693   5.433   0.483   7.156 -0.0675 -0.1426  0.6090
   19MOL   C41812694   5.385   0.616   7.105  0.0186 -0.1243  0.1513
   19MOL   C41912695   5.449   0.651   6.966  0.2949  0.5446 -0.9685
   19MOL   C42012696   5.438   0.798   6.919 -0.6229 -0.7206  0.2585
   19MOL   C42112697   5.498   0.815   6.787 -0.6587 -0.5419 -0.4778
   19MOL   O42212698   5.583   0.731   6.745 -0.1819 -0.3074  0.3406
   19MOL   H42312699   5.393   0.816   0.104 -1.5699 -0.0622  0.0453
   19MOL   H42412700   5.303   0.599   0.286  0.4498  0.7202  0.6012
   19MOL   H42512701   5.210   0.683   0.162 -0.5548 -0.8486 -0.4408
   19MOL   H42612702   5.250   0.477   0.073  1.1778 -2.1370  0.2424
   19MOL   H42712703   5.424   0.494   0.104 -0.1600  0.8309  0.4204
   19MOL   H42812704   5.274   0.660   7.612  0.7183  1.0847  0.7640
   19MOL   H42912705   5.445   0.651   7.634  1.3360 -2.0330  1.7580
   19MOL   H43012706   5.267   0.428   7.542 -1.1116  0.9827 -1.8160
   19MOL   H43112707   5.438   0.407   7.562 -1.5748 -2.2915 -1.9643
   19MOL   H43212708   5.496   0.571   7.398 -1.1032  0.7411  2.7858
   19MOL   H43312709   5.337   0.620   7.372 -0.1489 -0.3883  0.8080
   19MOL   H43412710   5.415   0.333   7.297  0.3288  0.0552 -1.4890
   19MOL   H43512711   5.267   0.414   7.273 -0.6551  0.8947  2.9452
   19MOL   H43612712   5.430   0.420   7.067 -1.1072  0.3767  0.2671
   19MOL   H43712713   5.541   0.489   7.169  0.1840 -1.5380 -0.7209
   19MOL   H43812714   5.276   0.627   7.099  0.2091  1.6008 -0.5304
   19MOL   H43912715   5.411   0.692   7.178 -2.9954 -0.6933  1.8852
   19MOL   H44012716   5.405   0.586   6.890 -1.4130 -0.1524  0.5852
   19MOL   H44112717   5.553   0.616   6.970  0.4357  1.1619  0.9946
   19MOL   H44212718   5.495   0.870   6.977 -0.6539 -0.1579 -0.3962
   19MOL   H44312719   5.335   0.831   6.914 -0.3990  0.0653  0.7748
   19MOL   N44412720   5.469   0.931   6.730 -0.0791 -0.1038 -0.2858
   19MOL   C44512721   5.518   0.962   6.590  0.7462 -0.2862  0.7956
   19MOL   C44612722   5.659   1.020   6.590  0.1209 -0.2218  0.2915
   19MOL   C44712723   5.689   1.062   6.447 -0.2744 -0.3887 -0.0429
   19MOL   C44812724   5.814   1.160   6.454  0.4492 -0.5218  0.7789
   19MOL   C44912725   5.827   1.254   6.329 -0.2754 -0.2349 -0.2515
   19MOL   C45012726   5.965   1.314   6.324  0.1672  0.2198 -0.5920
   19MOL   C45112727   5.978   1.415   6.208 -0.5572 -0.7991 -0.3325
   19MOL   C45212728   6.115   1.489   6.203 -0.2942 -0.4567 -0.0794
   19MOL   C45312729   6.122   1.585   6.081 -0.5702 -0.1040 -0.0143
   19MOL   C45412730   6.259   1.652   6.039 -0.3131 -0.5248 -0.0329
   19MOL   C45512731   6.350   1.550   5.978  0.6122  0.0116  0.2466
   19MOL   O45612732   6.310   1.486   5.885 -0.0583  0.3806  0.2027
   19MOL   H45712733   5.407   0.994   6.779 -0.0139 -0.8636  0.7912
   19MOL   H45812734   5.511   0.868   6.535  2.4050  0.5844 -0.9419
   19MOL   H45912735   5.453   1.044   6.560 -0.6078 -0.8527  2.0742
   19MOL   H46012736   5.725   0.944   6.634 -0.4320 -0.2757  1.0516
   19MOL   H46112737   5.667   1.107   6.655  2.3681  2.3229 -3.2185
   19MOL   H46212738   5.709   0.978   6.381  0.8403  1.3991 -2.0643
   19MOL   H46312739   5.598   1.103   6.403  0.0340  0.8797  0.4820
   19MOL   H46412740   5.904   1.100   6.457  2.3944  2.3436  4.1438
   19MOL   H46512741   5.810   1.230   6.538  0.7398 -0.9878  1.1814
   19MOL   H46612742   5.734   1.311   6.322 -0.1513 -0.0373 -0.2835
   19MOL   H46712743   5.815   1.195   6.238 -0.7358 -0.4213 -0.0722
   19MOL   H46812744   5.988   1.357   6.421 -0.5936 -1.1407  0.1931
   19MOL   H46912745   6.037   1.234   6.308 -0.2545 -0.7970  2.3181
   19MOL   H47012746   5.893   1.484   6.213  0.4078  0.3345  1.1442
   19MOL   H47112747   5.973   1.360   6.115  1.1577 -0.4680 -0.6344
   19MOL   H47212748   6.136   1.528   6.303  1.4047  0.8130 -0.9018
   19MOL   H47312749   6.197   1.419   6.182  0.2143  0.7223 -2.1891
   19MOL   H47412750   6.051   1.667   6.096 -1.4430 -0.3479 -2.6184
   19MOL   H47512751   6.084   1.531   5.995 -0.6145 -0.6863  0.3730
   19MOL   H47612752   6.311   1.707   6.118  0.3246  0.6387 -1.2374
   19MOL   H47712753   6.234   1.729   5.966 -0.7092  1.1730  1.8258
   19MOL   N47812754   6.472   1.531   6.034  0.3561 -0.3878  0.1742
   19MOL   C47912755   6.590   1.448   5.983 -0.0365  0.0213 -0.7222
   19MOL   C48012756   6.553   1.296   5.998 -0.1432  0.6191  0.0643
   19MOL   C48112757   6.674   1.207   5.951 -0.0377 -0.5797 -0.2906
   19MOL   C48212758   6.644   1.056   5.974 -0.3496 -0.4351 -0.3061
   19MOL   C48312759   6.755   0.966   5.940 -0.1497  0.2130  0.2343
   19MOL   C48412760   6.724   0.817   5.971  0.0314  0.6289  0.6335
   19MOL   C48512761   6.853   0.738   5.971  0.5040 -0.3793  0.2843
   19MOL   C48612762   6.839   0.584   5.964 -0.5694  0.2504  0.3850
   19MOL   C48712763   6.966   0.503   5.918  1.1331  0.0573  0.0105
   19MOL   C48812764   7.101   0.561   5.972  0.5366  0.2131 -0.6263
   19MOL   C48912765   7.229   0.479   5.936 -0.6151 -0.4172  0.2494
   19MOL   O49012766   7.226   0.369   5.880  0.0654 -0.0871 -0.1724
   19MOL   H49112767   6.492   1.578   6.122 -2.5729 -2.3917  1.9822
   19MOL   H49212768   6.598   1.467   5.876  0.8662  5.1764  0.1317
   19MOL   H49312769   6.669   1.472   6.054 -0.8281 -0.7538  0.4332
   19MOL   H49412770   6.464   1.277   5.939 -0.0035 -0.9879  0.3627
   19MOL   H49512771   6.527   1.285   6.103  2.8167  2.4647  1.0684
   19MOL   H49612772   6.699   1.232   5.847 -0.8704 -0.0750 -0.3737
   19MOL   H49712773   6.764   1.223   6.010  1.4389 -0.2011 -2.5553
   19MOL   H49812774   6.546   1.039   5.928 -0.7518  0.7085  0.1003
   19MOL   H49912775   6.641   1.060   6.083 -1.8466 -1.7877 -0.2780
   19MOL   H50012776   6.845   0.999   5.992 -0.5190  1.1318  0.3116
   19MOL   H50112777   6.781   0.979   5.835 -2.6863 -1.0057 -0.5899
   19MOL   H50212778   6.681   0.804   6.070  1.3391 -1.5163  0.9651
   19MOL   H50312779   6.652   0.773   5.902 -1.2821  1.7972  1.2323
   19MOL   H50412780   6.917   0.766   6.055 -1.2505  0.9146  1.2221
   19MOL   H50512781   6.908   0.766   5.881  1.4741 -0.2141  0.9187
   19MOL   H50612782   6.803   0.550   6.061  1.1166 -1.1767  0.5243
   19MOL   H50712783   6.757   0.556   5.898  0.0393 -0.0838 -0.2263
   19MOL   H50812784   6.982   0.488   5.811 -0.9112 -1.5413 -0.1058
   19MOL   H50912785   6.958   0.399   5.950 -0.0446 -0.3970 -1.7022
   19MOL   H51012786   7.095   0.559   6.080 -0.3739 -2.0508 -0.7082
   19MOL   H51112787   7.117   0.664   5.940 -0.6752  0.7169  0.3536
   19MOL   N51212788   7.348   0.542   5.962  0.3206  0.4451 -0.0717
   19MOL   C51312789   7.482   0.482   5.932 -0.0930 -0.3962  0.2687
   19MOL   C51412790   7.551   0.462   6.067 -0.1289  0.2832  0.3381
   19MOL   C51512791   7.687   0.385   6.037  1.2579 -0.5382  0.7879
   19MOL   C51612792   7.667   0.236   5.993 -0.2031  0.0658 -0.9303
   19MOL   C51712793   0.086   0.178   5.968 -0.8918  0.2180 -0.6084
   19MOL   C51812794   0.086   0.037   5.906 -0.0515 -0.1177  1.0707
   19MOL   C51912795   0.225   7.697   5.896  0.4274  0.0604  0.1858
   19MOL   C52012796   0.321   0.050   5.794  0.4288 -0.9674  0.4460
   19MOL   C52112797   0.456   7.683   5.791  0.6900  0.1549  0.5607
   19MOL   C52212798   0.552   0.026   5.688  0.2313 -0.8299 -0.1923
   19MOL   C52312799   0.491   0.009   5.550  0.1074 -0.0732 -0.1149
   19MOL   O52412800   0.474   7.607   5.507 -0.3865 -0.1340 -0.2866
   19MOL   H52512801   7.335   0.636   5.998  2.0816  0.1231  1.5334
   19MOL   H52612802   7.475   0.392   5.871  0.7861 -0.2232 -0.0883
   19MOL   H52712803   7.541   0.553   5.873 -1.5990 -0.5772 -1.5118
   19MOL   H52812804   7.495   0.412   6.146 -1.7397  0.1375 -0.8721
   19MOL   H52912805   7.582   0.559   6.105 -2.7978  1.9709 -1.6294
   19MOL   H53012806   0.022   0.448   5.964 -0.3327  0.6225  0.6632
   19MOL   H53112807   0.037   0.387   6.124  1.5499  0.0867  0.5504
   19MOL   H53212808   7.623   0.230   5.894 -0.6687  2.0186 -0.8649
   19MOL   H53312809   7.610   0.177   6.064  2.3959  0.1878  1.3306
   19MOL   H53412810   0.143   0.178   6.061  0.8584 -1.7739 -1.6536
   19MOL   H53512811   0.132   0.248   5.899  0.2946  0.0764  0.0284
   19MOL   H53612812   0.026   7.685   5.968  0.5845 -2.0713 -0.3966
   19MOL   H53712813   0.045   0.041   5.805  0.2423 -0.1527  0.9502
   19MOL   H53812814   0.215   7.595   5.860 -0.6031 -0.0082  0.6686
   19MOL   H53912815   0.272   7.690   5.994  2.5155  3.0178 -0.5154
   19MOL   H54012816   0.271   0.035   5.698  1.2767  2.6110 -0.6294
   19MOL   H54112817   0.331   0.158   5.793 -0.3139 -0.8860 -1.8737
   19MOL   H54212818   0.440   7.578   5.765  0.7311  0.5023 -0.9450
   19MOL   H54312819   0.508   7.677   5.887  1.5466 -0.7035  0.0606
   19MOL   H54412820   0.649   7.698   5.714 -0.4989 -1.3287  1.7632
   19MOL   H54512821   0.562   0.133   5.705 -2.2780 -0.6845  0.4905
   19MOL   N54612822   0.468   0.124   5.479 -0.1872  0.0204 -0.3476
   19MOL   C54712823   0.402   0.135   5.349 -0.4818  0.2727 -0.8748
   19MOL   C54812824   0.275   0.230   5.357 -0.1112  0.3033  0.0915
   19MOL   C54912825   0.156   0.151   5.400  0.2644 -0.0259 -0.4144
   19MOL   C55012826   0.024   0.221   5.364  0.4576 -0.5083 -0.8373
   19MOL   C55112827   7.618   0.139   5.408  0.0428  0.5581 -0.3637
   19MOL   C55212828   7.596   0.126   5.557 -0.0189  0.4886  0.6366
   19MOL   C55312829   7.451   0.065   5.577  0.3723  0.3580 -0.6080
   19MOL   C55412830   7.376   0.076   5.715  0.3197  0.0243  0.2972
   19MOL   C55512831   7.244   0.003   5.704 -0.0699 -0.3425 -0.2224
   19MOL   C55612832   7.139   0.040   5.808 -0.5127  0.5129 -0.1490
   19MOL   C55712833   7.192   0.011   5.951  0.3759 -0.5461  0.2801
   19MOL   O55812834   7.221   7.613   5.984  0.0227 -0.0170 -0.1730
   19MOL   H55912835   0.484   0.206   5.536  2.0611 -1.0189  0.5512
   19MOL   H56012836   0.484   0.183   5.297  0.3916 -1.1198 -0.8171
   19MOL   H56112837   0.389   0.039   5.298  1.7534  0.9121 -2.7613
   19MOL   H56212838   0.248   0.264   5.257 -0.8374 -2.9132 -0.8686
   19MOL   H56312839   0.295   0.316   5.421 -0.0506 -1.5538  2.6471
   19MOL   H56412840   0.155   0.047   5.367 -2.5016  0.0978 -0.8378
   19MOL   H56512841   0.155   0.149   5.509  1.8254  1.8400 -0.3319
   19MOL   H56612842   0.013   0.241   5.257  0.5225  0.5712 -0.6457
   19MOL   H56712843   0.020   0.319   5.410 -1.2889 -0.0201 -1.9656
   19MOL   H56812844   7.633   0.038   5.371  0.0530 -0.0082  1.1839
   19MOL   H56912845   7.528   0.166   5.352  0.5635  0.1871 -1.3925
   19MOL   H57012846   7.665   0.054   5.599  1.2679 -1.4600 -4.4623
   19MOL   H57112847   7.605   0.229   5.593  0.0655  0.0445  1.9100
   19MOL   H57212848   7.443   7.676   5.549 -1.1316  0.4403 -0.5033
   19MOL   H57312849   7.386   0.112   5.504  0.9540  0.6197 -0.9625
   19MOL   H57412850   7.436   0.020   5.787  0.6806 -1.4130 -1.1220
   19MOL   H57512851   7.369   0.183   5.739 -0.6231  0.2064 -0.7567
   19MOL   H57612852   7.266   7.612   5.692 -0.4738 -0.4388 -0.1318
   19MOL   H57712853   7.199   0.035   5.610 -0.4012  0.0706  0.0707
   19MOL   H57812854   7.038   0.002   5.798 -0.7191  1.1522 -0.4727
   19MOL   H57912855   7.128   0.148   5.804 -2.5809  0.2334 -3.4337
   19MOL   N58012856   7.206   0.121   6.038  0.7604  0.6762 -0.5849
   19MOL   C58112857   7.273   0.111   6.166  0.1960 -0.6663 -0.1130
   19MOL   C58212858   7.263   0.244   6.235 -0.0450 -1.3514  0.0465
   19MOL   C58312859   7.117   0.286   6.248 -0.6266  0.8522 -0.0268
   19MOL   C58412860   7.091   0.408   6.334 -0.5823 -0.1360  0.7844
   19MOL   C58512861   6.948   0.447   6.329 -0.8262  0.4148  0.8520
   19MOL   C58612862   6.911   0.560   6.425  0.7480 -0.5041 -0.0758
   19MOL   C58712863   6.775   0.628   6.401  0.2856 -0.1251 -0.3243
   19MOL   C58812864   6.654   0.551   6.469  0.1841  0.1112  0.0150
   19MOL   C58912865   6.513   0.612   6.459 -0.3413 -1.1701  0.0697
   19MOL   C59012866   6.398   0.511   6.493  0.4719  0.1550 -0.2849
   19MOL   C59112867   6.384   0.473   6.643 -0.8304 -0.6844 -0.0715
   19MOL   O59212868   6.351   0.556   6.725 -0.5278  0.2575 -0.5254
   19MOL   H59312869   7.211   0.211   5.990  0.6954  0.1911 -1.5181
   19MOL   H59412870   7.236   0.030   6.229 -0.2796  0.2268  0.7703
   19MOL   H59512871   7.380   0.093   6.153  0.3740  0.3467 -0.1209
   19MOL   H59612872   7.313   0.325   6.181  0.2334 -1.9100 -0.5299
   19MOL   H59712873   7.325   0.240   6.325  0.2796 -1.1398 -0.1669
   19MOL   H59812874   7.072   0.290   6.149  0.2322 -1.3245 -0.5470
   19MOL   H59912875   7.066   0.202   6.295 -0.7867  1.9011  1.7227
   19MOL   H60012876   7.155   0.481   6.284 -0.1099  1.3101  3.4047
   19MOL   H60112877   7.129   0.402   6.436 -1.6964 -3.3844  1.0667
   19MOL   H60212878   6.892   0.362   6.368  1.8437 -0.6598  2.4598
   19MOL   H60312879   6.907   0.454   6.228 -1.8361 -1.0036  1.1437
   19MOL   H60412880   6.922   0.542   6.532 -1.5431 -1.8704 -0.0253
   19MOL   H60512881   6.989   0.636   6.422 -0.2628  0.5347 -0.6923
   19MOL   H60612882   6.754   0.637   6.295 -2.3665  1.6215  0.3290
   19MOL   H60712883   6.789   0.733   6.423  2.2145 -0.7765  1.7839
   19MOL   H60812884   6.656   0.452   6.424 -0.4290 -0.2640  0.7803
   19MOL   H60912885   6.674   0.540   6.576 -0.9592 -0.2132  0.2025
   19MOL   H61012886   6.491   0.654   6.361  0.0447  0.2654  0.5773
   19MOL   H61112887   6.497   0.701   6.520  2.9007  0.4020 -1.2124
   19MOL   H61212888   6.395   0.422   6.430 -1.3286  1.8277 -2.6353
   19MOL   H61312889   6.299   0.546   6.464  0.4484  1.3903  1.2164
   19MOL   N61412890   6.419   0.345   6.670 -0.2097  0.0919 -0.1826
   19MOL   C61512891   6.434   0.295   6.813 -0.5324 -0.2510 -0.0501
   19MOL   C61612892   6.304   0.230   6.853  0.0049  1.0170  0.2580
   19MOL   C61712893   6.264   0.107   6.769 -0.0986  0.3199  0.1067
   19MOL   C61812894   6.121   0.071   6.788  0.0526 -0.6869 -0.0946
   19MOL   C61912895   6.070   7.661   6.710 -0.0896  0.0637 -0.4521
   19MOL   C62012896   5.918   7.632   6.697 -0.2138 -0.9968 -0.1816
   19MOL   C62112897   5.888   7.513   6.607 -0.7553 -0.4615 -0.1377
   19MOL   C62212898   5.741   7.520   6.562 -0.0770  0.0667  0.1391
   19MOL   C62312899   5.692   7.386   6.510  0.1829 -0.1067  0.6313
   19MOL   C62412900   5.547   7.390   6.446 -0.2655 -0.3130  0.6437
   19MOL   C62512901   5.439   7.425   6.556 -0.5340 -0.3819  0.2143
   19MOL   O62612902   5.442   7.366   6.668  0.1330  0.3104 -0.7037
   19MOL   H62712903   6.416   0.274   6.598  0.3557  2.2868 -2.4588
   19MOL   H62812904   6.460   0.385   6.869  1.6299  0.6699 -2.4461
   19MOL   H62912905   6.519   0.228   6.802 -0.6026 -0.0177 -2.1622
   19MOL   H63012906   6.235   0.310   6.825 -1.6224 -0.4725 -0.0771
   19MOL   H63112907   6.291   0.205   6.958 -1.7196 -1.6056 -0.5187
   19MOL   H63212908   6.270   0.143   6.667  4.3038 -0.5046 -0.0137
   19MOL   H63312909   6.335   0.027   6.793  1.0764  1.6085  0.9668
   19MOL   H63412910   6.054   0.153   6.762 -1.9506 -1.7349  1.6210
   19MOL   H63512911   6.113   0.061   6.896  2.1190  0.3042  0.1820
   19MOL   H63612912   6.118   7.565   6.734  0.7643  0.6317  0.1544
   19MOL   H63712913   6.104   7.684   6.609 -1.8478  2.4249 -0.5424
   19MOL   H63812914   5.878   7.635   6.798  0.6473  0.9826  0.1220
   19MOL   H63912915   5.878   0.007   6.651 -0.2148  0.6930  3.0181
   19MOL   H64012916   5.913   7.426   6.667 -1.9438 -1.7839 -1.5156
   19MOL   H64112917   5.949   7.519   6.516  0.8524  1.7974  1.0302
   19MOL   H64212918   5.670   7.555   6.638 -0.9953  0.7365 -1.0022
   19MOL   H64312919   5.726   7.601   6.491 -0.3773 -1.7558 -1.9275
   19MOL   H64412920   5.696   7.314   6.592  2.2333 -1.6997 -0.8148
   19MOL   H64512921   5.766   7.368   6.432  0.6702  0.5226  0.9534
   19MOL   H64612922   5.525   7.294   6.398 -1.2095 -0.0464  0.5186
   19MOL   H64712923   5.553   7.459   6.362  2.8495 -1.7915 -0.4454
   19MOL   N64812924   5.342   7.509   6.526  0.1760 -0.4967  0.3982
   19MOL   C64912925   5.226   7.540   6.603  0.0599 -0.3836 -0.2146
   19MOL   C65012926   5.260   7.654   6.701  0.4202 -0.7906  0.5658
   19MOL   C65112927   5.310   0.071   6.640  0.6054 -0.2049  0.5739
   19MOL   C65212928   5.329   0.177   6.745 -0.9395  0.1482  0.1966
   19MOL   C65312929   5.410   0.296   6.700  0.1889  0.0156  0.3225
   19MOL   C65412930   5.551   0.263   6.660 -0.0121  0.1637 -0.2050
   19MOL   C65512931   5.640   0.392   6.646  0.7425  0.6023  0.0147
   19MOL   C65612932   5.778   0.355   6.601 -0.1961 -0.6394  0.1165
   19MOL   C65712933   5.852   0.472   6.537 -0.6282  0.7714  0.1888
   19MOL   C65812934   5.997   0.463   6.495  0.1390  0.3795 -0.8930
   19MOL   C65912935   6.028   0.393   6.359 -0.0475  0.3577 -0.0022
   19MOL   O66012936   6.145   0.351   6.336  0.3007  0.2612 -0.8518
   19MOL   H66112937   5.339   7.540   6.430  0.4335  0.0877  0.5781
   19MOL   H66212938   5.192   7.456   6.664 -0.0972 -0.1012  0.0855
   19MOL   H66312939   5.142   7.571   6.542  0.1519 -0.0992 -0.1990
   19MOL   H66412940   5.338   7.627   6.771  2.7688  2.9972 -0.4400
   19MOL   H66512941   5.176   7.668   6.769  0.3145 -2.3503  0.7665
   19MOL   H66612942   5.399   0.050   6.581 -0.1433 -0.5300 -0.4800
   19MOL   H66712943   5.240   0.109   6.566  0.7420 -0.0699  0.5146
   19MOL   H66812944   5.380   0.136   6.832  0.3106 -0.4479 -0.7973
   19MOL   H66912945   5.228   0.205   6.773 -0.3607 -0.1559  2.6302
   19MOL   H67012946   5.412   0.362   6.787 -0.4674  0.5358 -0.0560
   19MOL   H67112947   5.365   0.357   6.622 -2.0974 -1.0990  0.7377
   19MOL   H67212948   5.593   0.195   6.733  0.1699  0.2473 -0.2323
   19MOL   H67312949   5.559   0.212   6.564 -0.8088 -0.3652  0.0003
   19MOL   H67412950   5.648   0.441   6.743  0.4694 -2.1890  1.4681
   19MOL   H67512951   5.584   0.458   6.579  0.4127  1.0055  0.6815
   19MOL   H67612952   5.841   0.318   6.682  0.8142  2.1329  0.6884
   19MOL   H67712953   5.772   0.288   6.516  0.8858 -1.9829  1.0797
   19MOL   H67812954   5.834   0.562   6.596  1.2782  0.0014  1.9811
   19MOL   H67912955   5.800   0.506   6.447  0.8475  1.0067 -0.5849
   19MOL   H68012956   6.048   0.413   6.577  0.1263 -0.0694 -1.1565
   19MOL   H68112957   6.049   0.559   6.495 -0.4021  0.6769 -1.4243
   19MOL   H68212958   5.941   0.385   6.295 -1.1305  2.5072  1.1698
   20MOL     N112959   0.371   1.848   2.531  0.1248 -0.3301  0.8602
   20MOL     C212960   0.386   1.892   2.663 -0.4240  0.5219  0.0235
   20MOL     C312961   0.259   1.965   2.707 -0.6456  0.0462  0.2391
   20MOL     C412962   0.278   2.021   2.850  0.8866 -0.7801 -0.1431
   20MOL     C512963   0.142   2.061   2.905  0.7207  0.2761 -0.0027
   20MOL     C612964   0.151   2.152   3.033 -0.0096 -0.0679  0.6970
   20MOL     C712965   0.022   2.183   3.100 -0.7370 -1.0764  0.0047
   20MOL     C812966   7.631   2.074   3.128 -1.0961 -0.5087  0.0420
   20MOL     C912967   7.694   1.961   3.197 -0.0895  0.0488 -0.2366
   20MOL    C1012968   0.032   1.983   3.332  0.2805  0.3347  0.5954
   20MOL    C1112969   0.108   1.861   3.396 -0.3047  0.3813  0.8399
   20MOL    C1212970   0.255   1.853   3.358 -0.0908  1.0161 -0.1715
   20MOL    O1312971   0.329   1.941   3.395 -0.2531 -0.1251  0.4955
   20MOL    H1412972   0.453   1.789   2.524  1.8172  1.6589  3.1397
   20MOL    H1512973   0.462   1.970   2.670  0.3786 -0.4174  2.1472
   20MOL    H1612974   0.410   1.811   2.733 -2.4964 -1.7635 -1.8254
   20MOL    H1712975   0.167   1.907   2.695  0.0098 -1.3178  1.7277
   20MOL    H1812976   0.240   2.054   2.646 -1.0514 -0.2145 -0.0179
   20MOL    H1912977   0.332   1.958   2.921  1.0273 -0.9701 -0.4179
   20MOL    H2012978   0.339   2.111   2.861 -0.3716 -0.0932  1.6517
   20MOL    H2112979   0.084   1.969   2.912 -1.0754  1.5786  3.5675
   20MOL    H2212980   0.081   2.104   2.825 -0.3179 -3.4546 -1.3379
   20MOL    H2312981   0.197   2.246   3.002  0.5529 -0.8532 -0.9242
   20MOL    H2412982   0.216   2.098   3.102 -1.0608 -1.8669  0.3169
   20MOL    H2512983   0.028   2.249   3.187 -1.3045  0.4843 -1.1168
   20MOL    H2612984   7.687   2.255   3.036 -1.0849 -0.5561  0.8436
   20MOL    H2712985   7.604   2.034   3.031 -0.7339 -2.3970  0.6825
   20MOL    H2812986   7.542   2.113   3.179 -0.7468  0.1860  0.1260
   20MOL    H2912987   7.622   1.879   3.199 -1.0991  0.8983 -0.9419
   20MOL    H3012988   0.051   1.915   3.130  0.5696  0.6887  0.0443
   20MOL    H3112989   7.671   2.013   3.404  0.1156  0.0670  0.5317
   20MOL    H3212990   0.103   2.066   3.323  0.9926 -0.2843  0.4962
   20MOL    H3312991   0.058   1.769   3.369 -2.9801  1.4753  1.8395
   20MOL    H3412992   0.104   1.870   3.505 -2.4169 -3.1313  1.1306
   20MOL    H3512993   0.391   1.920   2.464 -2.7249 -0.5270 -0.2736
   20MOL    N3612994   0.288   1.753   3.280 -0.0274 -0.0629 -0.1913
   20MOL    C3712995   0.414   1.746   3.205  0.7138 -0.0453 -0.2607
   20MOL    C3812996   0.540   1.726   3.293 -0.4148 -0.0572  0.3345
   20MOL    C3912997   0.672   1.697   3.218 -0.3331 -0.2719  0.2866
   20MOL    C4012998   0.782   1.663   3.316 -0.3955 -0.7918  0.3987
   20MOL    C4112999   0.926   1.655   3.256  0.0307  0.0134  0.0876
   20MOL    C4213000   1.025   1.652   3.373  0.5190  0.2997  0.8052
   20MOL    C4313001   1.173   1.630   3.314  0.4302  0.2790 -0.2267
   20MOL    C4413002   1.274   1.600   3.434  0.5267  0.6437  0.3936
   20MOL    C4513003   1.421   1.639   3.402 -0.1195 -0.1044 -0.8274
   20MOL    C4613004   1.491   1.555   3.292 -0.7155 -0.0984  0.0073
   20MOL    C4713005   1.503   1.408   3.325 -0.0353  0.5144 -0.0979
   20MOL    O4813006   1.408   1.326   3.311 -0.3690 -0.3887 -0.1707
   20MOL    H4913007   0.211   1.691   3.260 -0.3340  0.3053 -0.1726
   20MOL    H5013008   0.408   1.669   3.129 -0.5063  0.4056 -0.6318
   20MOL    H5113009   0.420   1.841   3.151  0.2699  1.1553  1.7120
   20MOL    H5213010   0.534   1.633   3.350  0.0463 -0.6111 -0.5037
   20MOL    H5313011   0.535   1.797   3.375  1.1777 -0.4304  0.7734
   20MOL    H5413012   0.668   1.621   3.140  0.3023  0.4432 -0.4576
   20MOL    H5513013   0.702   1.782   3.157  0.5132 -1.2311 -0.6428
   20MOL    H5613014   0.769   1.561   3.352 -1.4968 -1.0098 -0.5902
   20MOL    H5713015   0.776   1.722   3.407 -0.6101  5.1425 -3.1760
   20MOL    H5813016   0.942   1.729   3.178  1.7275  0.3934  0.7910
   20MOL    H5913017   0.935   1.565   3.195  3.4841  1.0457 -1.0195
   20MOL    H6013018   1.028   1.752   3.417 -0.8951  1.5660 -1.8715
   20MOL    H6113019   0.993   1.578   3.446 -0.0573 -0.7349 -0.4928
   20MOL    H6213020   1.204   1.718   3.258  1.3687  0.0433 -0.0836
   20MOL    H6313021   1.176   1.547   3.244 -1.1757  2.3556 -2.8392
   20MOL    H6413022   1.247   1.671   3.512 -1.8235 -1.8454  1.9288
   20MOL    H6513023   1.252   1.504   3.479 -0.1771  1.7159  2.3720
   20MOL    H6613024   1.486   1.628   3.489 -1.0159 -1.9151 -0.3778
   20MOL    H6713025   1.410   1.742   3.367  2.2015  0.0487 -1.1495
   20MOL    H6813026   1.583   1.604   3.260 -1.0193  0.0006 -0.7186
   20MOL    H6913027   1.436   1.552   3.198 -1.4923  2.1089  0.3696
   20MOL    N7013028   1.625   1.373   3.366  0.2690  0.1716  0.9570
   20MOL    C7113029   1.666   1.243   3.409 -0.7493 -0.5248 -0.0631
   20MOL    C7213030   1.668   1.247   3.564  0.1583  0.3120  0.2116
   20MOL    C7313031   1.685   1.111   3.640  0.3447 -0.2250  0.6608
   20MOL    C7413032   1.726   1.121   3.784  0.4806  0.1358 -0.0307
   20MOL    C7513033   1.650   1.219   3.871  0.0103  0.0851 -0.3076
   20MOL    C7613034   1.645   1.178   4.019 -0.2509 -0.9073 -0.2731
   20MOL    C7713035   1.772   1.221   4.091  0.4392 -0.5576  0.2560
   20MOL    C7813036   1.769   1.188   4.236 -0.1056 -0.1375  0.6526
   20MOL    C7913037   1.901   1.201   4.314 -0.0142 -0.6268  0.3517
   20MOL    C8013038   1.873   1.207   4.467 -0.0990  0.1943  0.0290
   20MOL    C8113039   2.002   1.208   4.541 -0.4646 -0.4222  0.0505
   20MOL    O8213040   2.038   1.103   4.597  0.3979 -0.0945 -0.5398
   20MOL    H8313041   1.699   1.441   3.359  2.1863 -1.9826 -0.7871
   20MOL    H8413042   1.601   1.170   3.360 -0.4528 -0.1810 -0.9771
   20MOL    H8513043   1.766   1.229   3.366  0.3668  0.1780  2.2187
   20MOL    H8613044   1.583   1.304   3.601  0.5137  0.3906  0.9200
   20MOL    H8713045   1.755   1.306   3.594  0.1638  1.1971 -1.5036
   20MOL    H8813046   1.588   1.061   3.638 -0.3950  1.1828  0.0818
   20MOL    H8913047   1.760   1.059   3.580  1.4008  1.7817  0.2013
   20MOL    H9013048   1.831   1.146   3.772  0.2172  0.8886 -0.8645
   20MOL    H9113049   1.714   1.021   3.826  2.2383 -0.2773 -0.5018
   20MOL    H9213050   1.551   1.212   3.826  0.4509 -0.9163 -1.1375
   20MOL    H9313051   1.674   1.323   3.848  2.1257  0.4292  3.0608
   20MOL    H9413052   1.563   1.229   4.070 -0.4372  1.6758 -3.0068
   20MOL    H9513053   1.622   1.074   4.042  0.5005 -1.2022 -0.8469
   20MOL    H9613054   1.783   1.329   4.081  1.8625 -0.6596  0.6732
   20MOL    H9713055   1.856   1.182   4.035 -0.0888 -1.2151 -0.0826
   20MOL    H9813056   1.692   1.254   4.275 -0.9498 -1.5058  1.3436
   20MOL    H9913057   1.726   1.089   4.254  0.3821 -0.5624 -0.5058
   20MOL   H10013058   1.958   1.289   4.288 -1.2358 -0.4733 -1.9676
   20MOL   H10113059   1.960   1.110   4.300 -0.5961 -1.1760  1.3550
   20MOL   H10213060   1.812   1.120   4.491 -0.4865  0.4746  0.0538
   20MOL   H10313061   1.822   1.303   4.480  0.5312  0.9508 -2.7801
   20MOL   N10413062   2.078   1.316   4.526 -0.0732  0.7242 -0.2845
   20MOL   C10513063   2.202   1.342   4.599 -0.0609 -0.0123 -0.0888
   20MOL   C10613064   2.187   1.390   4.740  0.0729 -0.3295 -0.4032
   20MOL   C10713065   2.138   1.536   4.750 -0.4723  0.8294 -0.4704
   20MOL   C10813066   2.118   1.598   4.892  0.1573  0.7769 -0.3467
   20MOL   C10913067   2.029   1.726   4.892 -0.0689 -0.3871  0.1603
   20MOL   C11013068   2.041   1.808   5.026 -1.0949  0.4219 -0.0529
   20MOL   C11113069   2.025   1.726   5.153  1.2264 -0.3822  0.0802
   20MOL   C11213070   2.059   1.814   5.275 -0.1667  0.2156  0.2377
   20MOL   C11313071   2.073   1.728   5.401 -0.1288  0.5268  0.5885
   20MOL   C11413072   2.154   1.798   5.509  0.7647  0.0711  0.6264
   20MOL   C11513073   2.303   1.801   5.486 -0.1057 -0.5297 -0.3501
   20MOL   O11613074   2.374   1.702   5.510  0.2904  0.1705 -0.4172
   20MOL   H11713075   2.056   1.372   4.445 -0.8921  0.9829  0.1091
   20MOL   H11813076   2.267   1.256   4.587  0.5251  0.5161 -0.7424
   20MOL   H11913077   2.256   1.420   4.545 -0.2976 -0.1466 -0.5212
   20MOL   H12013078   2.278   1.375   4.798 -1.0030 -1.0161  1.1420
   20MOL   H12113079   2.108   1.324   4.777  0.0995 -0.2625 -0.2238
   20MOL   H12213080   2.206   1.602   4.696  1.9502  0.3246  1.8563
   20MOL   H12313081   2.041   1.537   4.701  0.0808 -1.3782 -1.6454
   20MOL   H12413082   2.217   1.622   4.929  1.3335 -1.1704 -2.1015
   20MOL   H12513083   2.087   1.517   4.958  1.9831 -1.5411 -2.2193
   20MOL   H12613084   1.928   1.699   4.860  0.0940  1.9788 -2.5590
   20MOL   H12713085   2.063   1.791   4.811  2.3700 -0.8701  0.7527
   20MOL   H12813086   2.144   1.842   5.039 -0.8442  0.0061 -0.9266
   20MOL   H12913087   1.978   1.897   5.034 -0.3913  0.7625  1.7728
   20MOL   H13013088   2.074   1.628   5.151  2.7319  0.3345  1.0729
   20MOL   H13113089   1.918   1.702   5.150  0.6081  2.4100 -1.6902
   20MOL   H13213090   2.150   1.871   5.253 -0.4250  0.0490 -1.3285
   20MOL   H13313091   1.976   1.884   5.286 -0.9594 -0.8605  1.1380
   20MOL   H13413092   2.122   1.631   5.388 -1.4568 -0.0200 -0.4794
   20MOL   H13513093   1.973   1.694   5.427  0.9933 -3.9299 -0.4799
   20MOL   H13613094   2.131   1.733   5.594  2.3686 -1.6480 -0.2124
   20MOL   H13713095   2.118   1.896   5.540 -1.4612 -0.5874  0.2145
   20MOL   N13813096   2.351   1.918   5.439  0.0450 -0.0574 -0.2292
   20MOL   C13913097   2.489   1.943   5.397 -0.3284 -0.4160 -0.4196
   20MOL   C14013098   2.501   1.958   5.243 -0.2067 -0.2045 -0.7520
   20MOL   C14113099   2.633   2.015   5.194 -0.6262  0.9950 -0.4170
   20MOL   C14213100   2.632   2.026   5.038 -0.1471 -0.0357  0.0532
   20MOL   C14313101   2.758   2.081   4.974  0.1976 -0.2966  0.1280
   20MOL   C14413102   2.727   2.089   4.820  0.3973  1.0802 -0.2651
   20MOL   C14513103   2.852   2.110   4.737  0.7219  0.4185  0.6699
   20MOL   C14613104   2.822   2.104   4.589 -0.6275 -0.4335  0.6828
   20MOL   C14713105   2.752   2.232   4.536  0.4188  0.7669  0.0139
   20MOL   C14813106   2.689   2.227   4.396 -0.1376  0.3370  0.0033
   20MOL   C14913107   2.678   2.368   4.342 -0.2560 -0.3078  0.2912
   20MOL   O15013108   2.633   2.458   4.411  0.2390 -0.3291  0.0693
   20MOL   H15113109   2.283   1.988   5.415 -0.8933 -0.7230  0.4253
   20MOL   H15213110   2.520   2.041   5.433  1.0094 -1.3899  1.1251
   20MOL   H15313111   2.569   1.880   5.433 -0.6875 -0.7586 -0.2148
   20MOL   H15413112   2.410   2.010   5.215  0.0967  1.4132  1.1687
   20MOL   H15513113   2.502   1.859   5.197  2.0369 -1.0798  1.0999
   20MOL   H15613114   2.666   2.108   5.240 -0.9403  0.7013  0.4109
   20MOL   H15713115   2.710   1.941   5.215 -0.7799  0.7503 -0.7067
   20MOL   H15813116   2.556   2.102   5.018  2.1519  2.6215  1.0759
   20MOL   H15913117   2.595   1.934   4.992 -0.6793  0.4602 -0.5175
   20MOL   H16013118   2.832   2.003   4.986  0.8941  0.5306  1.3287
   20MOL   H16113119   2.802   2.169   5.021  1.5497  0.6418 -2.7683
   20MOL   H16213120   2.672   1.999   4.791  1.6229  1.0182 -2.4719
   20MOL   H16313121   2.654   2.169   4.804  0.2968  1.6348  2.6546
   20MOL   H16413122   2.932   2.040   4.763 -0.3077 -0.0765  2.6289
   20MOL   H16513123   2.885   2.209   4.767  0.7493  0.4361  0.5796
   20MOL   H16613124   2.916   2.077   4.541  0.1773  1.9744  0.8221
   20MOL   H16713125   2.761   2.014   4.581 -1.0813 -0.2377  1.9344
   20MOL   H16813126   2.820   2.316   4.546 -1.4860  2.1560  1.8955
   20MOL   H16913127   2.667   2.264   4.596 -2.5441 -1.7765 -2.5906
   20MOL   H17013128   2.590   2.182   4.385  0.5974 -1.2121 -0.5763
   20MOL   H17113129   2.745   2.166   4.324 -2.0097 -2.2373  0.6638
   20MOL   N17213130   2.739   2.396   4.228 -1.0766  0.1739  0.7254
   20MOL   C17313131   2.729   2.526   4.173 -0.7795 -0.2915  0.0714
   20MOL   C17413132   2.795   2.534   4.033 -0.1065 -0.4300 -1.2005
   20MOL   C17513133   2.726   2.434   3.939 -0.2076  0.1408 -0.3764
   20MOL   C17613134   2.765   2.461   3.794  0.1043  0.1005  0.1985
   20MOL   C17713135   2.708   2.368   3.682  0.1581 -0.0747 -0.5143
   20MOL   C17813136   2.766   2.230   3.678 -0.3618  0.2652  0.3842
   20MOL   C17913137   2.682   2.142   3.578  0.0116  0.0615 -0.3195
   20MOL   C18013138   2.681   1.993   3.618  0.1757 -0.2592  0.4176
   20MOL   C18113139   2.805   1.917   3.571  0.0654  0.5446 -0.1602
   20MOL   C18213140   2.935   1.939   3.646  0.1032 -0.0312 -0.0931
   20MOL   C18313141   2.937   1.938   3.797  0.1132  0.2891 -0.3974
   20MOL   O18413142   2.854   1.869   3.855  0.3563  0.3888 -0.4955
   20MOL   H18513143   2.768   2.321   4.167  0.7148  1.5568 -0.1568
   20MOL   H18613144   2.625   2.554   4.158 -0.7585  0.0263  0.5225
   20MOL   H18713145   2.779   2.608   4.226  2.0153  0.8074 -3.9825
   20MOL   H18813146   2.903   2.522   4.039  0.1434  2.1323  0.2248
   20MOL   H18913147   2.772   2.634   3.995  0.5288 -0.3225 -1.3105
   20MOL   H19013148   2.748   2.331   3.967 -0.4388 -0.5892 -2.7318
   20MOL   H19113149   2.617   2.438   3.945 -0.3590  1.0734 -2.8500
   20MOL   H19213150   2.873   2.470   3.791  0.2044 -0.8636  0.6920
   20MOL   H19313151   2.715   2.555   3.773 -0.8137 -0.9330 -2.3525
   20MOL   H19413152   2.715   2.402   3.579  2.4707  0.0035 -0.3568
   20MOL   H19513153   2.600   2.365   3.697 -0.1050 -1.9147 -2.5081
   20MOL   H19613154   2.875   2.231   3.671 -0.2699  0.4175  1.8047
   20MOL   H19713155   2.771   2.187   3.778  2.1175  1.1243  0.6389
   20MOL   H19813156   2.707   2.150   3.472 -0.0076 -1.0328 -0.4100
   20MOL   H19913157   2.576   2.167   3.586 -0.5619 -2.0388 -1.2224
   20MOL   H20013158   2.678   1.987   3.726  1.2485  1.4491  0.5551
   20MOL   H20113159   2.592   1.945   3.577  1.1624 -1.0813 -0.8263
   20MOL   H20213160   2.827   1.944   3.467  1.2734 -1.8863 -0.5866
   20MOL   H20313161   2.782   1.811   3.559  2.1210 -0.1574  1.8533
   20MOL   H20413162   2.960   2.042   3.619 -1.1331  0.0571 -0.9546
   20MOL   H20513163   3.019   1.877   3.615 -0.0619 -1.2251  1.7929
   20MOL   N20613164   3.021   2.024   3.863  0.0794 -0.4606  0.9141
   20MOL   C20713165   3.015   2.025   4.008  0.6053 -0.4760  0.3197
   20MOL   C20813166   3.107   2.145   4.043 -0.5824 -0.4101 -0.0593
   20MOL   C20913167   3.106   2.184   4.195 -0.6830 -0.4445  0.7164
   20MOL   C21013168   3.118   2.332   4.218 -0.5345 -0.5868  0.1833
   20MOL   C21113169   3.099   2.367   4.364 -0.1401  0.6953  0.2108
   20MOL   C21213170   3.119   2.518   4.386 -0.2929 -0.0440 -0.1110
   20MOL   C21313171   3.078   2.565   4.524 -0.1177  0.8087  0.6831
   20MOL   C21413172   3.109   2.719   4.547  0.3662 -0.4784  0.5738
   20MOL   C21513173   3.252   2.761   4.528 -0.9051 -0.0184  0.1216
   20MOL   C21613174   3.339   2.697   4.630  0.1175 -0.2349  0.2708
   20MOL   C21713175   3.389   2.805   4.733  0.5395  0.4024  0.2869
   20MOL   O21813176   3.425   2.914   4.699 -0.7822  0.8029  0.4511
   20MOL   H21913177   3.094   2.080   3.821 -0.9799 -0.5613 -1.1163
   20MOL   H22013178   3.053   1.934   4.055 -1.4367 -1.5067  0.0412
   20MOL   H22113179   2.917   2.061   4.041  0.8941  0.5801  0.0177
   20MOL   H22213180   3.067   2.235   3.995 -0.3667  0.3191  1.1098
   20MOL   H22313181   3.207   2.131   4.002 -0.5749  0.3737 -0.3162
   20MOL   H22413182   3.011   2.151   4.235  0.2864 -2.6988  1.2216
   20MOL   H22513183   3.178   2.133   4.259 -1.1327 -0.5593  1.1350
   20MOL   H22613184   3.053   2.392   4.154 -0.5301 -0.9105 -0.1286
   20MOL   H22713185   3.217   2.369   4.191 -1.9607  4.0181  0.8283
   20MOL   H22813186   3.168   2.313   4.428 -0.3846 -0.2178 -0.2742
   20MOL   H22913187   2.997   2.345   4.396  0.7905  0.8446  3.4127
   20MOL   H23013188   3.222   2.550   4.377  0.5569 -2.3065  1.2234
   20MOL   H23113189   3.064   2.579   4.315  0.9421 -0.3350 -1.3256
   20MOL   H23213190   3.134   2.498   4.589 -0.2581 -0.8364 -0.8770
   20MOL   H23313191   2.971   2.547   4.537 -0.2101  1.0379  0.2432
   20MOL   H23413192   3.046   2.778   4.481 -0.6326  0.5842  2.4663
   20MOL   H23513193   3.071   2.752   4.643  2.2296  0.9265  0.8542
   20MOL   H23613194   3.246   2.870   4.523  0.1476  0.0924  1.1125
   20MOL   H23713195   3.291   2.734   4.431 -0.9033  1.3004 -0.2606
   20MOL   H23813196   3.434   2.661   4.591 -0.7517 -1.1981 -1.0012
   20MOL   H23913197   3.299   2.607   4.677  0.2006  0.0738  0.9332
   20MOL   N24013198   3.386   2.775   4.861 -0.2962  0.3395  0.0525
   20MOL   C24113199   3.438   2.845   4.976 -0.4670  0.1487  0.5657
   20MOL   C24213200   3.341   2.949   5.024 -0.6834 -0.3375  0.3081
   20MOL   C24313201   3.375   3.016   5.153  0.2309 -0.3005  0.1257
   20MOL   C24413202   3.374   2.910   5.268  0.1256 -0.2503 -0.2989
   20MOL   C24513203   3.374   2.967   5.408  0.1067  0.0785  0.0253
   20MOL   C24613204   3.488   3.065   5.446 -0.1831  0.0588 -0.3653
   20MOL   C24713205   3.636   3.028   5.404 -0.4462 -0.1472 -0.2613
   20MOL   C24813206   3.739   3.153   5.408 -0.3062  0.7590  0.1321
   20MOL   C24913207   3.711   3.285   5.325  0.2528  0.0581  0.4755
   20MOL   C25013208   3.818   3.381   5.341 -0.0088 -0.2772 -0.6565
   20MOL   C25113209   3.769   3.521   5.313  0.1713  0.5202  0.7584
   20MOL   O25213210   3.772   3.610   5.398  0.1420  0.0803  0.1465
   20MOL   H25313211   3.355   2.682   4.886 -1.4469  0.3283 -1.3397
   20MOL   H25413212   3.535   2.888   4.951 -0.4547  0.3086  0.8854
   20MOL   H25513213   3.463   2.769   5.050  0.4516  0.3740  0.4960
   20MOL   H25613214   3.241   2.907   5.036 -1.2154  0.8682  0.2051
   20MOL   H25713215   3.326   3.027   4.949 -0.5077  0.0897  0.7136
   20MOL   H25813216   3.474   3.062   5.155  0.2546 -0.3034 -0.9665
   20MOL   H25913217   3.307   3.097   5.177  0.0829 -1.0307  2.3250
   20MOL   H26013218   3.463   2.850   5.249  0.0900 -0.1821 -0.7006
   20MOL   H26113219   3.284   2.851   5.254 -0.9057  1.5934 -1.7084
   20MOL   H26213220   3.373   2.883   5.477  1.9845 -0.1294 -0.1644
   20MOL   H26313221   3.277   3.014   5.421  0.2844  0.8534 -1.3483
   20MOL   H26413222   3.459   3.158   5.397  0.6164  1.4202  1.6766
   20MOL   H26513223   3.485   3.086   5.552  2.3108  0.8234 -0.4188
   20MOL   H26613224   3.627   2.988   5.303 -3.1507  0.0495 -0.1290
   20MOL   H26713225   3.671   2.945   5.464  0.0549 -1.6625 -2.5738
   20MOL   H26813226   3.763   3.177   5.512 -1.1181 -0.0365  0.5054
   20MOL   H26913227   3.836   3.125   5.368 -0.4125  2.8793 -1.7339
   20MOL   H27013228   3.613   3.324   5.352 -0.2946  0.6604 -2.2995
   20MOL   H27113229   3.699   3.270   5.218  1.0704  1.7187  0.1450
   20MOL   H27213230   3.913   3.358   5.292  1.6108  3.0016  0.8102
   20MOL   H27313231   3.846   3.389   5.447  0.5430 -1.1094 -0.7289
   20MOL   N27413232   3.747   3.552   5.184 -0.6562  0.2587 -0.1567
   20MOL   C27513233   3.733   3.693   5.139  0.2089  0.0815  0.2116
   20MOL   C27613234   3.585   3.746   5.157  0.7204  0.2135  0.5606
   20MOL   C27713235   3.576   3.882   5.092  0.1996  0.9296 -0.2368
   20MOL   C27813236   3.429   3.934   5.116  0.1700 -0.2516  0.8130
   20MOL   C27913237   3.407   4.074   5.081 -0.2693 -0.1779 -0.0130
   20MOL   C28013238   3.481   4.175   5.168 -0.0803 -0.0671  0.6978
   20MOL   C28113239   3.469   4.327   5.141  0.2639  0.2441  0.0746
   20MOL   C28213240   3.344   4.390   5.198 -0.8618 -0.3378 -0.2457
   20MOL   C28313241   3.334   4.533   5.150  0.3760  0.1220 -0.0493
   20MOL   C28413242   3.327   4.548   4.995 -0.4610 -0.6244  0.0697
   20MOL   C28513243   3.222   4.474   4.911 -0.0033 -0.1453 -0.1934
   20MOL   O28613244   3.100   4.473   4.933  0.1864 -0.1798  0.0592
   20MOL   H28713245   3.748   3.475   5.119  1.7690 -0.8764  1.1607
   20MOL   H28813246   3.770   3.689   5.036 -0.4019 -0.0572 -0.0079
   20MOL   H28913247   3.798   3.751   5.204 -0.2351 -1.4009  2.0412
   20MOL   H29013248   3.560   3.750   5.263  2.1224  3.7480  0.8127
   20MOL   H29113249   3.500   3.696   5.112 -0.8775  1.1292  2.4904
   20MOL   H29213250   3.646   3.947   5.144  0.9505 -0.2161  0.1929
   20MOL   H29313251   3.604   3.875   4.987 -1.3844 -2.3673 -0.5031
   20MOL   H29413252   3.384   3.913   5.213 -1.4068 -0.7771 -0.0049
   20MOL   H29513253   3.358   3.882   5.051 -0.0741  0.6743  0.3390
   20MOL   H29613254   3.302   4.101   5.091 -0.9694 -2.7866 -0.0884
   20MOL   H29713255   3.436   4.091   4.977 -1.3584  0.6492 -0.1952
   20MOL   H29813256   3.451   4.157   5.272  0.8278  0.3087  1.0316
   20MOL   H29913257   3.588   4.154   5.166 -0.1715 -0.4332 -0.6404
   20MOL   H30013258   3.485   4.343   5.034 -2.3313 -1.4932 -0.6232
   20MOL   H30113259   3.557   4.377   5.181  1.2094 -1.5517  0.2768
   20MOL   H30213260   3.262   4.344   5.142 -1.5329 -1.8017  1.8612
   20MOL   H30313261   3.313   4.395   5.303  0.3974  0.9775  0.0766
   20MOL   H30413262   3.423   4.583   5.188  0.7532 -1.1579  0.7785
   20MOL   H30513263   3.250   4.594   5.183 -0.1361 -0.8312  0.4216
   20MOL   H30613264   3.424   4.536   4.946 -0.5149  0.2571 -0.2645
   20MOL   H30713265   3.310   4.655   4.979  1.7199 -0.6877 -3.1353
   20MOL   N30813266   3.269   4.414   4.800  0.2652  0.2471 -0.1777
   20MOL   C30913267   3.176   4.357   4.703  0.8361  0.2254 -0.3839
   20MOL   C31013268   3.170   4.203   4.711  0.0792  0.4869  0.1798
   20MOL   C31113269   3.298   4.121   4.672  0.4656 -0.4204 -0.0771
   20MOL   C31213270   3.285   3.978   4.730 -0.8315  0.1376  0.3816
   20MOL   C31313271   3.406   3.887   4.702 -0.0990  0.1338 -0.3158
   20MOL   C31413272   3.398   3.748   4.770 -0.9744  0.3022 -0.0840
   20MOL   C31513273   3.530   3.671   4.750  1.0415  0.2385 -0.1135
   20MOL   C31613274   3.501   3.524   4.769  0.3390 -0.2935 -0.0421
   20MOL   C31713275   3.451   3.496   4.916  0.1131 -0.8893 -0.3208
   20MOL   C31813276   3.392   3.355   4.932  0.5705  0.0348 -0.0593
   20MOL   C31913277   3.253   3.338   4.869  0.3333 -0.2133 -0.7396
   20MOL   O32013278   3.167   3.418   4.889 -0.1378  0.0605 -0.3194
   20MOL   H32113279   3.365   4.428   4.775  0.2844  0.1232 -0.1742
   20MOL   H32213280   3.235   4.391   4.619  2.3817  2.4896  1.5438
   20MOL   H32313281   3.076   4.399   4.694 -0.5298 -2.4885  1.4273
   20MOL   H32413282   3.083   4.172   4.654 -0.1957  0.9570  0.3406
   20MOL   H32513283   3.145   4.179   4.814 -3.3405 -0.8205 -0.8891
   20MOL   H32613284   3.283   4.104   4.565  1.2175 -2.1383  0.0729
   20MOL   H32713285   3.399   4.160   4.690  0.8813 -0.6396 -1.8129
   20MOL   H32813286   3.202   3.921   4.687 -0.2152 -0.8225  0.4334
   20MOL   H32913287   3.271   3.976   4.838  1.6340  0.7268  0.7235
   20MOL   H33013288   3.497   3.933   4.741 -0.5208  0.5395  0.1993
   20MOL   H33113289   3.423   3.878   4.595 -1.8443  3.0617 -0.8859
   20MOL   H33213290   3.360   3.755   4.872 -0.4146 -3.7070  0.4942
   20MOL   H33313291   3.310   3.698   4.730 -0.2361 -2.2077  1.2788
   20MOL   H33413292   3.603   3.716   4.817  0.5169  2.6787 -1.1120
   20MOL   H33513293   3.575   3.678   4.651 -2.7407  1.8172 -1.8422
   20MOL   H33613294   3.429   3.500   4.691 -2.0095  0.1265  1.9043
   20MOL   H33713295   3.597   3.475   4.753  1.6513  1.5356  1.9562
   20MOL   H33813296   3.378   3.572   4.943 -1.7534 -2.2704 -1.3641
   20MOL   H33913297   3.533   3.506   4.987  0.7395 -1.0112 -1.0232
   20MOL   H34013298   3.386   3.332   5.039  1.0214  0.6823  0.1066
   20MOL   H34113299   3.458   3.278   4.891  2.1899  1.1861  0.3590
   20MOL   N34213300   3.241   3.249   4.777  0.1689  0.8276 -0.2870
   20MOL   C34313301   3.120   3.234   4.696 -0.1530  0.7663  0.3207
   20MOL   C34413302   3.098   3.103   4.621  0.5499  0.0126  0.3345
   20MOL   C34513303   2.984   3.118   4.518  0.3356 -0.1505  0.5503
   20MOL   C34613304   2.848   3.137   4.593 -0.3990 -0.1755 -0.1011
   20MOL   C34713305   2.726   3.116   4.496 -0.3183 -0.4271  0.4685
   20MOL   C34813306   2.679   2.974   4.477 -0.8320 -0.7846  0.1650
   20MOL   C34913307   2.534   2.972   4.436 -0.7547 -0.0092 -0.6317
   20MOL   C35013308   2.501   2.821   4.427 -0.4804 -0.1348 -0.0873
   20MOL   C35113309   2.359   2.787   4.384 -0.6909  0.6187  0.3773
   20MOL   C35213310   2.331   2.641   4.350  0.1789  0.7768  0.3023
   20MOL   C35313311   2.282   2.583   4.480 -0.2898 -0.7095 -0.0412
   20MOL   O35413312   2.166   2.609   4.512  0.0908  0.3929 -0.0939
   20MOL   H35513313   3.319   3.188   4.757 -0.0771 -0.2673  1.9902
   20MOL   H35613314   3.033   3.240   4.761 -1.0252 -0.5770 -0.6854
   20MOL   H35713315   3.108   3.319   4.629  1.0643  2.3414  2.0554
   20MOL   H35813316   3.101   3.017   4.688 -0.6432  0.3128  0.7816
   20MOL   H35913317   3.186   3.092   4.557  1.4602  1.0738  1.3745
   20MOL   H36013318   2.998   3.192   4.439 -1.4999 -0.2305  0.1085
   20MOL   H36113319   2.981   3.029   4.454  2.2388 -0.1554  0.4491
   20MOL   H36213320   2.843   3.240   4.630 -0.6162  0.1839 -1.1242
   20MOL   H36313321   2.838   3.072   4.680  0.0611  0.4746  0.4389
   20MOL   H36413322   2.746   3.161   4.399  0.8336 -0.4354  0.6892
   20MOL   H36513323   2.635   3.158   4.538  1.1625  1.9428  1.3784
   20MOL   H36613324   2.728   2.917   4.397 -0.9505  0.2436 -0.6537
   20MOL   H36713325   2.706   2.925   4.571  0.8796 -1.3320 -0.5887
   20MOL   H36813326   2.528   3.020   4.338  1.3667 -0.6738 -1.1297
   20MOL   H36913327   2.471   3.018   4.512  2.2305 -0.3919  2.2104
   20MOL   H37013328   2.568   2.773   4.356  1.9513 -0.2404  2.1851
   20MOL   H37113329   2.524   2.765   4.517  1.2163 -0.8054 -0.9227
   20MOL   H37213330   2.346   2.839   4.289 -2.3421  0.1542  0.3423
   20MOL   H37313331   2.277   2.829   4.441 -0.7458  3.2638 -1.5594
   20MOL   H37413332   2.408   2.577   4.308  0.2779  1.8145 -1.1469
   20MOL   H37513333   2.253   2.643   4.273 -0.0797  1.7402  0.5799
   20MOL   N37613334   2.370   2.516   4.553  0.3022 -0.4271  0.2685
   20MOL   C37713335   2.362   2.513   4.700 -0.1767  0.2292  0.1192
   20MOL   C37813336   2.505   2.517   4.756 -0.0755  0.4860 -0.4841
   20MOL   C37913337   2.492   2.501   4.908 -0.1413 -0.2151 -0.0826
   20MOL   C38013338   2.623   2.519   4.989  0.5490 -0.4159  0.2326
   20MOL   C38113339   2.600   2.486   5.145 -0.4638 -0.1345  0.1629
   20MOL   C38213340   2.728   2.506   5.227  0.1183  0.3919 -0.2547
   20MOL   C38313341   2.699   2.470   5.369  0.0065  0.4569  0.1264
   20MOL   C38413342   2.822   2.465   5.459  0.3660 -0.8305 -0.0406
   20MOL   C38513343   2.790   2.417   5.599  0.2116 -0.2308  1.0353
   20MOL   C38613344   2.696   2.511   5.686  0.0722  0.2652  0.1475
   20MOL   C38713345   2.760   2.640   5.729 -0.4017  0.1150 -0.3066
   20MOL   O38813346   2.862   2.649   5.790 -0.2068 -0.4931 -0.3856
   20MOL   H38913347   2.461   2.504   4.510 -0.7778 -0.5811 -2.0246
   20MOL   H39013348   2.293   2.588   4.739  1.2322  1.0880  1.0121
   20MOL   H39113349   2.305   2.425   4.731  0.2110 -0.0399  0.0746
   20MOL   H39213350   2.543   2.617   4.735 -0.3436  0.4986 -0.9060
   20MOL   H39313351   2.574   2.440   4.721 -0.4083 -0.0846  0.1033
   20MOL   H39413352   2.425   2.580   4.942 -0.6825 -0.1693 -1.2144
   20MOL   H39513353   2.440   2.409   4.936  2.4376 -1.8343 -0.5222
   20MOL   H39613354   2.664   2.619   4.980 -1.0272  0.1850 -0.3743
   20MOL   H39713355   2.698   2.457   4.941  0.2091 -0.1682 -0.6179
   20MOL   H39813356   2.564   2.384   5.150 -0.7529 -0.1467 -1.9317
   20MOL   H39913357   2.508   2.534   5.178 -1.2441 -0.4226 -1.5317
   20MOL   H40013358   2.797   2.425   5.206  0.3512  0.1794  1.3164
   20MOL   H40113359   2.774   2.605   5.218  0.6005  0.3621  1.6949
   20MOL   H40213360   2.655   2.373   5.389 -2.2095  1.6622  1.3989
   20MOL   H40313361   2.622   2.540   5.404  0.5395  1.1146 -0.0044
   20MOL   H40413362   2.891   2.390   5.418 -0.3553 -1.8038  0.4985
   20MOL   H40513363   2.871   2.562   5.455 -1.7466  0.2628  0.1430
   20MOL   H40613364   2.884   2.397   5.650  1.4663 -1.3278 -1.6538
   20MOL   H40713365   2.739   2.321   5.593  1.1003 -0.6828  0.7820
   20MOL   H40813366   2.673   2.459   5.779  1.2832 -0.0376  0.2851
   20MOL   H40913367   2.599   2.513   5.635 -0.5426 -2.1783  1.1694
   20MOL   N41013368   2.693   2.751   5.696 -0.3581 -0.4452  0.4145
   20MOL   C41113369   2.759   2.888   5.705  0.3619 -0.2533 -1.1300
   20MOL   C41213370   2.847   2.910   5.583 -0.2751 -0.1615  0.2232
   20MOL   C41313371   2.893   3.057   5.581 -0.0646  0.7365  0.3150
   20MOL   C41413372   2.988   3.097   5.467 -0.2862  0.1856  0.1329
   20MOL   C41513373   3.053   3.225   5.506 -0.1682  0.0844 -0.4185
   20MOL   C41613374   3.130   3.296   5.391 -0.6191 -0.5270  0.1500
   20MOL   C41713375   3.027   3.363   5.299 -0.6751  0.0001 -0.2513
   20MOL   C41813376   3.052   3.480   5.209 -0.6015  0.8992  0.6879
   20MOL   C41913377   3.085   3.613   5.284 -0.0648  0.3610 -0.3042
   20MOL   C42013378   3.148   3.714   5.188  0.7849 -0.2513  0.5231
   20MOL   C42113379   3.053   3.762   5.080  0.1879  0.3970 -0.1979
   20MOL   O42213380   2.986   3.863   5.095 -0.0982 -0.4722  0.4420
   20MOL   H42313381   2.621   2.742   5.626  0.7451 -1.9833 -0.5541
   20MOL   H42413382   2.681   2.964   5.713  0.9950  0.2171  0.7087
   20MOL   H42513383   2.818   2.899   5.795  1.1123  0.1682 -1.6628
   20MOL   H42613384   2.793   2.889   5.491 -0.1728  2.3394 -0.4313
   20MOL   H42713385   2.931   2.841   5.595  0.3056  0.3719 -0.7080
   20MOL   H42813386   2.808   3.126   5.579 -1.1136 -0.5771 -2.3789
   20MOL   H42913387   2.932   3.080   5.680  0.0012 -1.2747  0.7781
   20MOL   H43013388   2.941   3.105   5.369 -0.6301  1.1877  0.3754
   20MOL   H43113389   3.074   3.030   5.464  0.0544  0.5065  2.1029
   20MOL   H43213390   3.125   3.211   5.587 -2.2999  1.0993  1.7024
   20MOL   H43313391   2.982   3.295   5.549  0.9801  1.5695 -0.8594
   20MOL   H43413392   3.200   3.363   5.440 -0.9129 -0.2284  0.1630
   20MOL   H43513393   3.184   3.223   5.331 -0.4051 -1.9756  2.0552
   20MOL   H43613394   2.944   3.396   5.360 -0.1880  2.2699 -0.7738
   20MOL   H43713395   2.967   3.294   5.239 -0.5658 -0.6857  0.4270
   20MOL   H43813396   3.139   3.453   5.149 -1.5068  2.3884 -1.3481
   20MOL   H43913397   2.972   3.498   5.138 -0.6703 -3.1978 -0.3559
   20MOL   H44013398   3.151   3.598   5.369  0.5851  1.5210 -0.5985
   20MOL   H44113399   2.994   3.654   5.328  0.1405  1.5501 -0.9640
   20MOL   H44213400   3.243   3.682   5.145  1.6213  0.7886  1.5395
   20MOL   H44313401   3.162   3.799   5.256  0.6943 -0.7496  1.1744
   20MOL   N44413402   3.053   3.688   4.965 -0.4142  0.4643  0.1001
   20MOL   C44513403   2.951   3.710   4.857 -0.5051 -0.2094 -0.3135
   20MOL   C44613404   2.974   3.633   4.720 -0.5897 -0.6078 -0.5603
   20MOL   C44713405   2.873   3.640   4.606 -0.0345  0.1464 -0.3162
   20MOL   C44813406   2.927   3.565   4.480 -0.0292  0.1388 -0.3375
   20MOL   C44913407   2.822   3.532   4.372 -0.3614 -0.0480  0.1686
   20MOL   C45013408   2.689   3.470   4.420 -0.0785 -0.3391 -0.1803
   20MOL   C45113409   2.611   3.413   4.300  0.5066  0.6794 -0.7756
   20MOL   C45213410   2.464   3.377   4.325  0.1750 -0.9030 -0.4151
   20MOL   C45313411   2.389   3.340   4.192 -0.2722  0.2443  0.1891
   20MOL   C45413412   2.324   3.457   4.120 -0.8687  0.7415 -0.1134
   20MOL   C45513413   2.238   3.412   4.002  0.2744 -0.0782  0.2129
   20MOL   O45613414   2.118   3.395   4.011 -0.0712  0.3562  0.0191
   20MOL   H45713415   3.114   3.608   4.961  1.6938  2.0373 -0.2677
   20MOL   H45813416   2.854   3.676   4.893 -0.0346 -0.6813  0.5191
   20MOL   H45913417   2.941   3.817   4.842  1.1823 -0.1053 -0.8057
   20MOL   H46013418   2.996   3.529   4.744  0.2546  0.0824  1.7482
   20MOL   H46113419   3.068   3.673   4.684  0.2739 -0.0803  2.1615
   20MOL   H46213420   2.779   3.597   4.641  0.2523  0.9170  1.4631
   20MOL   H46313421   2.843   3.742   4.580 -3.9298 -1.2845 -1.8037
   20MOL   H46413422   2.953   3.465   4.516 -0.7193 -0.2666 -0.9752
   20MOL   H46513423   3.020   3.603   4.437  0.2369 -1.5564 -1.3248
   20MOL   H46613424   2.859   3.464   4.295 -0.9873  0.3000 -0.4516
   20MOL   H46713425   2.801   3.624   4.317 -0.3377  0.3323  0.7909
   20MOL   H46813426   2.699   3.389   4.491  0.5291 -0.0818  0.0291
   20MOL   H46913427   2.644   3.554   4.473  3.0552  0.6787  0.9739
   20MOL   H47013428   2.667   3.329   4.258 -0.6276 -0.4868  0.0263
   20MOL   H47113429   2.613   3.486   4.219  0.9316 -0.0785 -1.4508
   20MOL   H47213430   2.455   3.284   4.381  0.9401 -1.0653 -0.5590
   20MOL   H47313431   2.419   3.459   4.381  1.4701  1.5536 -2.8541
   20MOL   H47413432   2.313   3.267   4.220 -0.1219  0.2886  0.7268
   20MOL   H47513433   2.462   3.291   4.127  0.5265 -0.7286  1.7640
   20MOL   H47613434   2.402   3.515   4.071 -0.3235 -1.3403 -1.7766
   20MOL   H47713435   2.263   3.515   4.189  1.0968 -0.0538  2.3997
   20MOL   N47813436   2.300   3.391   3.885  0.5328 -1.0797 -0.2637
   20MOL   C47913437   2.227   3.366   3.763  0.1380  0.1291 -0.0853
   20MOL   C48013438   2.192   3.488   3.672  0.3879  0.3764 -0.0253
   20MOL   C48113439   2.311   3.564   3.613  0.1325  0.7090 -0.0051
   20MOL   C48213440   2.375   3.663   3.712 -0.3115  0.0130 -0.4107
   20MOL   C48313441   2.280   3.761   3.765  0.0182 -0.2291 -0.5404
   20MOL   C48413442   2.341   3.855   3.871  0.5271  0.0272  0.6051
   20MOL   C48513443   2.262   3.978   3.911  0.4113 -0.4377 -0.2125
   20MOL   C48613444   2.167   3.946   4.027 -0.2542  0.0547 -0.5056
   20MOL   C48713445   2.076   4.065   4.068  0.5525 -0.5617  0.5157
   20MOL   C48813446   1.994   4.052   4.197 -0.1255 -0.2462  0.1316
   20MOL   C48913447   1.903   3.930   4.193 -0.1033 -0.2804 -0.2759
   20MOL   O49013448   1.824   3.922   4.097  0.2103 -0.6050  0.1257
   20MOL   H49113449   2.394   3.426   3.878  0.0710  0.5035  1.0848
   20MOL   H49213450   2.264   3.288   3.697 -0.4680 -2.3227  2.3837
   20MOL   H49313451   2.127   3.332   3.790  0.9314 -2.1830  0.0491
   20MOL   H49413452   2.119   3.552   3.720 -0.2241 -0.3707  0.0519
   20MOL   H49513453   2.133   3.446   3.591 -2.1684 -0.9546  2.4257
   20MOL   H49613454   2.386   3.492   3.579 -1.3651 -0.3288 -1.2410
   20MOL   H49713455   2.273   3.615   3.524 -0.4241 -0.8566 -0.7005
   20MOL   H49813456   2.464   3.719   3.686  0.4506 -0.3401  1.3271
   20MOL   H49913457   2.407   3.590   3.787  1.3104  0.1269 -0.9705
   20MOL   H50013458   2.189   3.720   3.809 -0.2543  1.2497  0.3139
   20MOL   H50113459   2.238   3.805   3.674  0.3650 -0.1673 -0.6698
   20MOL   H50213460   2.367   3.794   3.957  2.3094 -1.1086 -0.6869
   20MOL   H50313461   2.438   3.889   3.834  1.6026 -2.6348  0.8497
   20MOL   H50413462   2.221   4.012   3.816 -1.7156 -1.2624  0.3833
   20MOL   H50513463   2.331   4.052   3.952  0.2593 -1.9681  2.9537
   20MOL   H50613464   2.106   3.866   3.987 -0.0623 -0.1593 -0.3747
   20MOL   H50713465   2.227   3.914   4.112 -1.0887  0.9327  0.4211
   20MOL   H50813466   2.011   4.091   3.984 -0.5901 -0.1506  1.5060
   20MOL   H50913467   2.138   4.153   4.079  0.1904 -0.3852  1.1630
   20MOL   H51013468   1.925   4.136   4.203 -0.8515 -0.7968 -0.5389
   20MOL   H51113469   2.065   4.046   4.280 -0.2150 -0.0181  0.2243
   20MOL   N51213470   1.917   3.841   4.294 -0.1874 -0.3482  0.2153
   20MOL   C51313471   1.838   3.719   4.309  0.1341 -0.2178  0.1874
   20MOL   C51413472   1.896   3.627   4.423  0.8196  0.6845 -0.1571
   20MOL   C51513473   2.039   3.574   4.400  0.1650  0.3208 -0.4886
   20MOL   C51613474   2.078   3.461   4.495 -0.1522  0.1836 -0.5680
   20MOL   C51713475   2.022   3.321   4.461 -0.5639 -0.2477 -0.7927
   20MOL   C51813476   2.099   3.206   4.538  0.1176  0.0605  0.0598
   20MOL   C51913477   2.141   3.091   4.438  0.3286 -0.3431 -0.5778
   20MOL   C52013478   2.013   3.018   4.391  0.6256 -0.1537 -0.0999
   20MOL   C52113479   2.021   2.962   4.247 -0.1125 -0.7903 -0.6128
   20MOL   C52213480   2.014   3.062   4.125 -0.7345  0.5975 -0.2742
   20MOL   C52313481   1.875   3.106   4.089  0.1038 -0.3503 -0.1162
   20MOL   O52413482   1.794   3.028   4.034  0.3387 -0.4414  0.3856
   20MOL   H52513483   1.980   3.860   4.371 -0.4562 -0.7055  0.5202
   20MOL   H52613484   1.731   3.729   4.332 -0.2526 -1.5755 -0.9330
   20MOL   H52713485   1.837   3.676   4.209 -0.3178  1.8198 -0.7176
   20MOL   H52813486   1.824   3.545   4.428  0.5583  0.8940 -0.4656
   20MOL   H52913487   1.882   3.680   4.518 -0.4004 -2.2466  1.3798
   20MOL   H53013488   2.055   3.550   4.295 -1.3331 -0.9953 -0.4418
   20MOL   H53113489   2.104   3.661   4.405 -1.2277  1.3080  0.6868
   20MOL   H53213490   2.056   3.493   4.597 -0.9434  1.7105 -1.2090
   20MOL   H53313491   2.187   3.452   4.496 -0.1737 -0.1105  0.2282
   20MOL   H53413492   2.037   3.316   4.354 -1.2349  1.5447 -0.9993
   20MOL   H53513493   1.914   3.311   4.472 -0.7427  0.2222 -2.0000
   20MOL   H53613494   2.183   3.251   4.590  0.0179 -0.2982  0.5338
   20MOL   H53713495   2.030   3.159   4.609  0.0341 -0.8413 -0.6118
   20MOL   H53813496   2.201   3.020   4.495 -0.8581 -0.0813  1.0501
   20MOL   H53913497   2.196   3.139   4.357  0.9615  0.0330  0.0678
   20MOL   H54013498   1.998   2.937   4.461  0.6303 -0.6576 -0.6743
   20MOL   H54113499   1.922   3.076   4.400 -0.2403 -1.7450  1.5778
   20MOL   H54213500   1.945   2.886   4.228 -1.7104  0.1194  1.9807
   20MOL   H54313501   2.108   2.897   4.236  0.1864 -0.8820  2.0900
   20MOL   H54413502   2.053   3.020   4.033 -1.6652 -1.3201  0.1817
   20MOL   H54513503   2.068   3.155   4.139 -0.9854  0.2905  3.3467
   20MOL   N54613504   1.841   3.230   4.118  0.3993  0.0952 -0.4243
   20MOL   C54713505   1.714   3.291   4.088 -0.3081  0.3453  0.5252
   20MOL   C54813506   1.630   3.309   4.216 -0.3816 -0.6306  0.0034
   20MOL   C54913507   1.496   3.397   4.201  0.2673 -0.1536  0.0419
   20MOL   C55013508   1.425   3.421   4.330  0.2329 -0.9734 -0.7469
   20MOL   C55113509   1.511   3.502   4.432 -0.2500 -0.2905  0.4011
   20MOL   C55213510   1.414   3.561   4.533  0.1718  0.8079  0.1005
   20MOL   C55313511   1.469   3.640   4.648 -0.2272  0.5536 -0.2275
   20MOL   C55413512   1.525   3.780   4.597  0.0009 -0.5847  0.0426
   20MOL   C55513513   1.544   3.890   4.705 -0.9320 -0.3853  0.8179
   20MOL   C55613514   1.608   4.020   4.640 -0.2211 -0.9662 -0.0820
   20MOL   C55713515   1.765   4.022   4.617  0.0284  0.2686 -0.4402
   20MOL   O55813516   1.836   3.928   4.652  0.1144  0.1483  0.1608
   20MOL   H55913517   1.919   3.293   4.132 -0.1105  1.1184 -1.9805
   20MOL   H56013518   1.735   3.395   4.063 -0.7276  0.5817  1.1353
   20MOL   H56113519   1.668   3.247   3.999 -0.6351 -0.7122  1.2085
   20MOL   H56213520   1.698   3.341   4.295  1.4256 -1.0257 -1.3433
   20MOL   H56313521   1.599   3.216   4.263  1.0037 -0.6990  0.7938
   20MOL   H56413522   1.516   3.496   4.160  1.9501 -0.0958  0.9503
   20MOL   H56513523   1.422   3.341   4.144  0.8754 -2.4411  1.4145
   20MOL   H56613524   1.393   3.329   4.380  2.4538 -0.4890  1.7204
   20MOL   H56713525   1.337   3.477   4.300 -1.4003 -3.6241 -1.0864
   20MOL   H56813526   1.553   3.593   4.389  1.0124 -1.1018 -0.1220
   20MOL   H56913527   1.599   3.443   4.456 -0.6294 -0.4181  1.4931
   20MOL   H57013528   1.327   3.601   4.481 -0.6755 -0.6684  0.3393
   20MOL   H57113529   1.375   3.475   4.587 -1.6136  1.2156 -0.5042
   20MOL   H57213530   1.552   3.595   4.703  1.4846  1.7838 -1.7488
   20MOL   H57313531   1.393   3.645   4.726  0.1551  0.8790  0.1286
   20MOL   H57413532   1.623   3.761   4.553  0.6501  0.3954  1.0240
   20MOL   H57513533   1.462   3.821   4.519 -2.3902 -1.1499  1.6116
   20MOL   H57613534   1.607   3.846   4.783  1.9270 -0.4623 -1.4719
   20MOL   H57713535   1.444   3.907   4.746 -0.4493  0.6093  1.6003
   20MOL   H57813536   1.577   4.107   4.698  2.7958 -0.9306  1.5492
   20MOL   H57913537   1.569   4.041   4.540 -0.6529  1.9578  0.6457
   20MOL   N58013538   1.821   4.136   4.579 -0.1246  0.6471  0.1719
   20MOL   C58113539   1.963   4.153   4.582  0.4819  0.2758 -0.2430
   20MOL   C58213540   1.992   4.306   4.590  0.1205  0.8604 -0.1986
   20MOL   C58313541   2.136   4.345   4.577 -1.1114  0.6399  0.1517
   20MOL   C58413542   2.198   4.307   4.442  0.4688  0.0874  0.4004
   20MOL   C58513543   2.346   4.337   4.434  0.1329 -0.3315 -0.7931
   20MOL   C58613544   2.395   4.312   4.293 -0.6282  0.2812 -0.1292
   20MOL   C58713545   2.357   4.400   4.173  0.4346 -0.3899 -0.4600
   20MOL   C58813546   2.465   4.411   4.061  0.2491  0.0929 -0.0996
   20MOL   C58913547   2.462   4.537   3.980 -0.6503  0.4766  0.3697
   20MOL   C59013548   2.535   4.530   3.847 -0.0737  0.0149  0.1855
   20MOL   C59113549   2.540   4.658   3.769 -0.6419  0.5175 -0.1105
   20MOL   O59213550   2.448   4.702   3.702  0.2988  0.1893  0.0475
   20MOL   H59313551   1.762   4.216   4.561 -0.6520  0.0090 -1.0275
   20MOL   H59413552   2.002   4.103   4.672  1.3264  1.3250 -0.0236
   20MOL   H59513553   2.006   4.104   4.495  0.8074 -0.6221  0.4092
   20MOL   H59613554   1.967   4.326   4.694 -2.8968  0.6624 -0.8257
   20MOL   H59713555   1.920   4.370   4.539 -0.8019  1.4802  1.8484
   20MOL   H59813556   2.136   4.453   4.584  0.2234  0.6575  0.0669
   20MOL   H59913557   2.192   4.297   4.658  0.0326  0.4420 -0.7339
   20MOL   H60013558   2.143   4.360   4.364  0.6696 -0.1365  0.1069
   20MOL   H60113559   2.186   4.204   4.410  1.3067 -0.0444  0.4881
   20MOL   H60213560   2.407   4.270   4.494  1.1520 -0.5526 -2.0732
   20MOL   H60313561   2.371   4.430   4.485  0.2643  0.1390 -1.7096
   20MOL   H60413562   2.504   4.311   4.296 -0.5664 -0.2098 -2.4269
   20MOL   H60513563   2.364   4.209   4.273 -0.9917  0.0893  1.3382
   20MOL   H60613564   2.344   4.499   4.216 -2.6888 -0.1750 -1.6889
   20MOL   H60713565   2.256   4.380   4.135 -0.0067 -0.0793  0.5359
   20MOL   H60813566   2.563   4.408   4.107 -0.8046  0.7704  2.3145
   20MOL   H60913567   2.468   4.320   4.001 -3.6639 -0.2566  0.1011
   20MOL   H61013568   2.507   4.620   4.035  0.6492 -0.0514  0.1384
   20MOL   H61113569   2.361   4.562   3.948  0.4416  0.5714 -3.2695
   20MOL   H61213570   2.499   4.449   3.783  1.6194 -0.3769 -0.2807
   20MOL   H61313571   2.640   4.502   3.853  0.2202  0.8716 -0.8085
   20MOL   N61413572   2.658   4.721   3.767 -0.4345  0.4384  0.0390
   20MOL   C61513573   2.687   4.851   3.699 -0.3750 -0.0702 -0.5353
   20MOL   C61613574   2.833   4.899   3.729  0.2389  0.0756  0.0097
   20MOL   C61713575   2.845   5.050   3.680  0.3866 -0.1377 -0.2509
   20MOL   C61813576   2.970   5.116   3.730 -0.1918  0.1879  0.2867
   20MOL   C61913577   2.949   5.267   3.711  0.4743 -0.4489  0.8021
   20MOL   C62013578   3.066   5.350   3.753  0.8302  0.0719 -0.4606
   20MOL   C62113579   3.081   5.374   3.902  0.0534  0.8182  0.4450
   20MOL   C62213580   3.213   5.446   3.954  0.0799 -0.1980 -0.0896
   20MOL   C62313581   3.226   5.464   4.100 -0.3285 -0.3316 -0.0511
   20MOL   C62413582   3.335   5.567   4.134 -0.4008 -1.2437 -0.3117
   20MOL   C62513583   3.273   5.706   4.158 -0.6439  0.2893 -0.7966
   20MOL   O62613584   3.183   5.756   4.102 -0.0621  0.7234  0.8440
   20MOL   H62713585   2.731   4.681   3.824 -0.6306 -0.7512 -0.5356
   20MOL   H62813586   2.600   4.907   3.733 -0.6865  1.6985 -4.0485
   20MOL   H62913587   2.663   4.844   3.593 -1.5242 -0.9693 -0.2257
   20MOL   H63013588   2.912   4.837   3.688  0.6903  0.7900 -0.2148
   20MOL   H63113589   2.853   4.895   3.836 -0.2034  1.9523  0.1849
   20MOL   H63213590   2.846   5.049   3.571 -1.6439  1.1238 -0.2957
   20MOL   H63313591   2.754   5.099   3.716  0.6640  1.2547 -1.3997
   20MOL   H63413592   3.055   5.076   3.675 -0.1214  0.9058 -0.1371
   20MOL   H63513593   2.989   5.101   3.836  1.0681  1.0595  0.1982
   20MOL   H63613594   2.858   5.309   3.751 -0.8575 -1.1426 -1.3877
   20MOL   H63713595   2.945   5.285   3.604 -4.5451 -1.8618  0.6420
   20MOL   H63813596   3.155   5.307   3.708  1.6964  0.3038  0.9848
   20MOL   H63913597   3.063   5.450   3.709 -1.9679  0.7807  1.2282
   20MOL   H64013598   3.071   5.275   3.946  1.5035  0.7790  0.6932
   20MOL   H64113599   2.996   5.437   3.929 -1.1351 -0.5384 -0.0986
   20MOL   H64213600   3.298   5.394   3.911  1.1219  2.1312 -0.8908
   20MOL   H64313601   3.218   5.544   3.908  2.0413  0.0715  0.6674
   20MOL   H64413602   3.258   5.379   4.160  0.7899  0.5299  0.6154
   20MOL   H64513603   3.136   5.499   4.151 -1.2553 -2.0914 -0.4453
   20MOL   H64613604   3.412   5.579   4.058  1.3973  2.1620  1.9169
   20MOL   H64713605   3.378   5.526   4.225 -0.8195 -1.9602 -0.4336
   20MOL   N64813606   3.336   5.779   4.250  0.2385 -0.2543 -0.7948
   20MOL   C64913607   3.299   5.911   4.278 -0.2109  0.2156  0.7419
   20MOL   C65013608   3.249   5.927   4.426 -0.2550  0.4500  0.1911
   20MOL   C65113609   3.107   5.858   4.441  0.2364  0.6026  0.3110
   20MOL   C65213610   2.992   5.946   4.390 -0.0568 -0.4099  0.0151
   20MOL   C65313611   2.971   6.066   4.483  0.6051  0.3498  0.8224
   20MOL   C65413612   2.825   6.121   4.484  0.7476 -0.4498 -0.0339
   20MOL   C65513613   2.799   6.246   4.566 -0.2461  0.2267  0.3488
   20MOL   C65613614   2.658   6.268   4.609 -0.3129  0.6493  0.5742
   20MOL   C65713615   2.652   6.400   4.691 -0.6624  0.2790 -0.0952
   20MOL   C65813616   2.520   6.431   4.752  0.4621 -0.0565 -0.1630
   20MOL   C65913617   2.417   6.468   4.657 -1.2932  0.1851 -0.0469
   20MOL   O66013618   2.451   6.553   4.578  0.8894 -0.4098 -0.0985
   20MOL   H66113619   3.424   5.752   4.291 -0.2234  0.8283  0.9881
   20MOL   H66213620   3.235   5.957   4.202  0.6134  2.9004  1.6335
   20MOL   H66313621   3.391   5.969   4.271  0.4663 -0.8736  0.4559
   20MOL   H66413622   3.221   6.030   4.448 -2.4556  0.4229 -2.1811
   20MOL   H66513623   3.319   5.881   4.495 -0.3076 -0.3999 -0.3102
   20MOL   H66613624   3.093   5.767   4.384  1.9302  0.4533  0.1199
   20MOL   H66713625   3.096   5.825   4.545 -0.5347  4.1377  1.4303
   20MOL   H66813626   2.898   5.891   4.384 -0.2457 -0.3817  2.4592
   20MOL   H66913627   3.001   5.979   4.286  1.4681  1.2849  0.6558
   20MOL   H67013628   3.030   6.153   4.455  1.7388 -1.1506 -1.6195
   20MOL   H67113629   2.999   6.038   4.585  1.0848 -0.5825  0.4503
   20MOL   H67213630   2.778   6.132   4.386  0.6202 -1.5109 -0.1031
   20MOL   H67313631   2.766   6.040   4.527 -0.9244 -0.2772 -1.8831
   20MOL   H67413632   2.828   6.328   4.500  1.0771 -0.8793 -0.4627
   20MOL   H67513633   2.872   6.260   4.645  1.3412 -2.0082 -0.6657
   20MOL   H67613634   2.606   6.289   4.515  1.9801  4.1120 -0.0129
   20MOL   H67713635   2.614   6.186   4.667 -1.8655 -0.0342 -1.5020
   20MOL   H67813636   2.690   6.476   4.624  2.7087 -0.1000  1.3061
   20MOL   H67913637   2.724   6.394   4.772  0.3402 -0.7588 -1.0396
   20MOL   H68013638   2.519   6.517   4.820 -1.5679 -0.2774  0.1270
   20MOL   H68113639   2.502   6.350   4.823 -0.8865  1.7200  1.5991
   20MOL   H68213640   2.320   6.420   4.669 -1.3721  0.6801  1.3706
   21MOL     N113641   7.114   0.663   3.398 -0.0891 -0.3551 -0.0913
   21MOL     C213642   7.165   0.667   3.263  0.1049  1.0559 -0.8595
   21MOL     C313643   7.072   0.722   3.158  0.0795  0.0689  0.5642
   21MOL     C413644   7.133   0.708   3.008  0.1299  0.5151  0.1419
   21MOL     C513645   7.057   0.808   2.916 -0.2332  0.7352 -0.5068
   21MOL     C613646   7.146   0.839   2.796  0.0651 -0.1954  0.5312
   21MOL     C713647   7.155   0.729   2.689 -0.4451  0.2176 -0.6619
   21MOL     C813648   7.210   0.790   2.558  0.2180  0.6408 -0.9053
   21MOL     C913649   7.098   0.865   2.490  0.3380  0.2947 -0.1803
   21MOL    C1013650   7.008   0.781   2.389  0.2810 -0.4629 -0.0862
   21MOL    C1113651   6.905   0.867   2.319  0.5798  0.3446 -0.3941
   21MOL    C1213652   6.836   0.794   2.208  0.3050  0.1077  0.3909
   21MOL    O1313653   6.775   0.691   2.235  0.1006 -0.2474 -0.0579
   21MOL    H1413654   7.016   0.646   3.384 -0.6237  0.9184  1.9652
   21MOL    H1513655   7.186   0.564   3.233  3.1249  1.7671 -1.4273
   21MOL    H1613656   7.260   0.720   3.269  0.3025  0.6999 -0.7564
   21MOL    H1713657   7.056   0.829   3.172  0.8283  0.1609  0.7531
   21MOL    H1813658   6.975   0.673   3.162  0.4802 -0.8196 -0.3546
   21MOL    H1913659   7.237   0.734   3.024  0.0722 -0.0888  1.5587
   21MOL    H2013660   7.127   0.604   2.978  1.1203  0.4842  0.0412
   21MOL    H2113661   7.028   0.904   2.960 -1.1418  0.6854 -0.9876
   21MOL    H2213662   6.961   0.759   2.898  0.4226 -0.8816  0.2373
   21MOL    H2313663   7.251   0.858   2.815  0.8709 -0.6757 -3.0306
   21MOL    H2413664   7.099   0.922   2.744 -2.5185 -2.0599 -0.2444
   21MOL    H2513665   7.229   0.657   2.723 -0.4331  0.0682 -1.0100
   21MOL    H2613666   7.063   0.675   2.671 -0.6951  0.5266 -0.3216
   21MOL    H2713667   7.230   0.702   2.498 -3.7094 -2.2841  1.8559
   21MOL    H2813668   7.304   0.842   2.574  0.4020  0.0074  0.1227
   21MOL    H2913669   7.024   0.898   2.563 -1.5649 -2.5032 -0.7622
   21MOL    H3013670   7.139   0.954   2.442  0.8239  1.7583  2.7998
   21MOL    H3113671   6.968   0.696   2.443 -1.6542  0.1661 -0.4836
   21MOL    H3213672   7.071   0.741   2.309 -0.1431  2.4697 -1.9529
   21MOL    H3313673   6.960   0.951   2.277  0.2107 -0.1132 -1.8133
   21MOL    H3413674   6.835   0.914   2.388  0.8729  0.4748 -0.1855
   21MOL    H3513675   7.103   0.759   3.427  0.3379  0.6513 -3.1705
   21MOL    N3613676   6.851   0.849   2.085  0.0558  0.2966  0.1079
   21MOL    C3713677   6.794   0.790   1.966  0.7654  0.2500 -0.2719
   21MOL    C3813678   6.731   0.901   1.884 -0.2020 -0.6719 -0.6427
   21MOL    C3913679   6.683   0.858   1.745  0.4929 -0.1390  0.1638
   21MOL    C4013680   6.614   0.961   1.662  0.3476 -0.2691 -0.0581
   21MOL    C4113681   6.479   1.005   1.729  0.0145  0.6275 -0.3122
   21MOL    C4213682   6.412   1.119   1.646 -0.6603 -0.3416  0.4826
   21MOL    C4313683   6.493   1.250   1.650 -0.0437  1.0104  0.8016
   21MOL    C4413684   6.415   1.356   1.573 -0.1084  0.1792  0.0988
   21MOL    C4513685   6.476   1.495   1.581  0.0009 -0.3891 -0.8217
   21MOL    C4613686   6.443   1.569   1.708 -0.7320  0.3325  0.6212
   21MOL    C4713687   6.500   1.717   1.706 -0.2164  0.7114 -0.5121
   21MOL    O4813688   6.582   1.755   1.619  0.5757  0.1202 -0.1211
   21MOL    H4913689   6.911   0.930   2.082 -1.1409  1.2299  0.6617
   21MOL    H5013690   6.872   0.743   1.907  1.8510  1.4295  0.1941
   21MOL    H5113691   6.720   0.714   1.991  3.1828 -1.2813  2.7261
   21MOL    H5213692   6.797   0.987   1.871  1.0590 -1.4715  0.2867
   21MOL    H5313693   6.638   0.929   1.934  1.2077 -0.8993  2.2393
   21MOL    H5413694   6.768   0.819   1.689  0.4980 -2.4591  1.7228
   21MOL    H5513695   6.611   0.778   1.766 -0.7845  1.5067  2.2675
   21MOL    H5613696   6.592   0.926   1.562 -4.0569  0.5817  0.4940
   21MOL    H5713697   6.683   1.046   1.657  0.1329 -0.1434 -0.8620
   21MOL    H5813698   6.484   1.042   1.832  0.7031 -0.4032  0.0283
   21MOL    H5913699   6.411   0.921   1.737 -0.8184  1.3468  0.2893
   21MOL    H6013700   6.423   1.093   1.540  2.4646 -2.3550  1.2217
   21MOL    H6113701   6.307   1.132   1.671 -0.6702  0.7790 -0.1131
   21MOL    H6213702   6.589   1.244   1.600  0.5096  0.2746  1.9281
   21MOL    H6313703   6.506   1.276   1.756 -2.1690  1.6324  0.9336
   21MOL    H6413704   6.411   1.330   1.468  0.1706 -0.4062  0.2268
   21MOL    H6513705   6.309   1.358   1.597 -0.0582  1.7268  0.2409
   21MOL    H6613706   6.412   1.557   1.518  0.2036  1.0404  0.3342
   21MOL    H6713707   6.582   1.497   1.557  0.3739 -0.4844  0.7616
   21MOL    H6813708   6.500   1.527   1.791  1.0350  0.3227 -0.5646
   21MOL    H6913709   6.341   1.577   1.744 -0.3505  2.5551  1.2774
   21MOL    N7013710   6.445   1.797   1.799  0.5183 -0.1105  0.9777
   21MOL    C7113711   6.475   1.939   1.817  0.5220 -0.3865  0.1175
   21MOL    C7213712   6.380   2.034   1.739  0.3628  0.2257  0.8462
   21MOL    C7313713   6.416   2.184   1.755 -0.4189  0.0043 -0.0336
   21MOL    C7413714   6.564   2.211   1.714 -0.3492  0.4138  0.5054
   21MOL    C7513715   6.605   2.363   1.723  0.3053 -0.0649  0.3662
   21MOL    C7613716   6.757   2.387   1.703 -0.2914 -0.5237  0.7180
   21MOL    C7713717   6.791   2.534   1.681  0.6321  0.3727 -0.0495
   21MOL    C7813718   6.943   2.568   1.670  0.1537 -0.3195 -0.7466
   21MOL    C7913719   7.023   2.563   1.541  0.6547 -0.2842  1.0825
   21MOL    C8013720   7.104   2.430   1.532  0.4740  0.3319 -0.6070
   21MOL    C8113721   7.166   2.411   1.398  0.1049  0.1309 -0.5133
   21MOL    O8213722   7.216   2.508   1.339  0.1047  0.2184 -0.1502
   21MOL    H8313723   6.369   1.754   1.850  0.3047 -0.3569  0.4489
   21MOL    H8413724   6.487   1.949   1.925  0.4367  1.8893 -0.0775
   21MOL    H8513725   6.578   1.949   1.783  0.0857  0.6773 -0.9211
   21MOL    H8613726   6.272   2.027   1.755 -0.0593 -0.9758 -2.2888
   21MOL    H8713727   6.374   2.000   1.636  1.4924 -0.4219  0.9878
   21MOL    H8813728   6.351   2.250   1.698 -0.1245 -0.6752 -1.1759
   21MOL    H8913729   6.402   2.212   1.859  1.5523 -0.9633  0.5246
   21MOL    H9013730   6.587   2.178   1.613 -1.2840 -4.8214  1.8618
   21MOL    H9113731   6.634   2.158   1.780  0.8540 -0.3394 -1.3384
   21MOL    H9213732   6.584   2.407   1.820 -0.8205 -1.9965  1.0422
   21MOL    H9313733   6.547   2.419   1.650  0.8351 -1.2495 -0.9880
   21MOL    H9413734   6.804   2.352   1.795 -1.1402 -0.5447  1.1508
   21MOL    H9513735   6.798   2.329   1.621 -0.1683 -0.2040  0.5529
   21MOL    H9613736   6.775   2.584   1.777  0.2542  1.1092 -0.4943
   21MOL    H9713737   6.724   2.585   1.612 -0.7514  0.4970  1.3589
   21MOL    H9813738   6.944   2.671   1.705  0.7670 -0.1273 -1.3382
   21MOL    H9913739   6.996   2.509   1.745  0.8741  1.1461 -0.0845
   21MOL   H10013740   7.086   2.651   1.528 -0.1737  0.1611 -0.0585
   21MOL   H10113741   6.948   2.562   1.462  2.0800  0.7281 -0.3408
   21MOL   H10213742   7.048   2.340   1.556 -0.5401  0.6180 -1.8451
   21MOL   H10313743   7.187   2.436   1.603  0.7222 -0.1407 -0.8505
   21MOL   N10413744   7.146   2.291   1.346 -0.5640  0.5785  0.3414
   21MOL   C10513745   7.170   2.231   1.217  0.7930  0.2121 -0.2374
   21MOL   C10613746   7.296   2.150   1.210  0.1491 -0.3396 -0.3062
   21MOL   C10713747   7.428   2.239   1.239 -0.3586  0.0155 -0.0246
   21MOL   C10813748   7.557   2.164   1.250  0.0917 -0.2916 -0.0467
   21MOL   C10913749   7.681   2.246   1.247 -0.2772 -0.1641 -0.3627
   21MOL   C11013750   0.101   2.175   1.232 -0.0131  0.3918 -0.8086
   21MOL   C11113751   0.199   2.275   1.184 -1.1257  0.4397  0.7548
   21MOL   C11213752   0.344   2.236   1.210  0.1072 -0.2795  0.1983
   21MOL   C11313753   0.400   2.237   1.350 -0.4937  0.3567 -0.3299
   21MOL   C11413754   0.409   2.374   1.423  0.7979 -0.4047  0.4062
   21MOL   C11513755   0.492   2.484   1.359 -0.4159  0.4492 -0.2955
   21MOL   O11613756   0.602   2.456   1.311 -0.2308 -0.0551  0.1009
   21MOL   H11713757   7.092   2.241   1.415  0.4473 -1.3342 -0.2084
   21MOL   H11813758   7.086   2.167   1.190  0.4393 -0.2649  1.8751
   21MOL   H11913759   7.174   2.318   1.152  0.1121  0.8374  0.5404
   21MOL   H12013760   7.300   2.119   1.105  0.2042  0.3677 -0.5169
   21MOL   H12113761   7.294   2.067   1.280  1.2851  0.4556  0.6882
   21MOL   H12213762   7.430   2.322   1.167 -2.3033 -0.4505 -0.6634
   21MOL   H12313763   7.418   2.303   1.326 -1.5730  0.3870 -0.4220
   21MOL   H12413764   7.565   2.096   1.165  1.0375 -0.1118 -0.1118
   21MOL   H12513765   7.567   2.091   1.331 -0.6279 -2.0929 -1.5467
   21MOL   H12613766   7.693   2.305   1.338  2.5036 -2.7773  1.0642
   21MOL   H12713767   7.669   2.321   1.168  1.0593  2.1369  1.5621
   21MOL   H12813768   0.130   2.134   1.328 -0.9265 -1.5320 -1.3274
   21MOL   H12913769   0.086   2.091   1.164 -0.0107 -1.4817  1.4513
   21MOL   H13013770   0.178   2.369   1.235  1.2255  1.7412 -0.5649
   21MOL   H13113771   0.173   2.290   1.079 -2.3352  1.0445  1.1417
   21MOL   H13213772   0.365   2.141   1.162  0.5708  0.4216 -1.0262
   21MOL   H13313773   0.407   2.307   1.156  1.7527 -0.3739  1.9474
   21MOL   H13413774   0.503   2.201   1.345 -0.1384  1.3736 -0.4593
   21MOL   H13513775   0.360   2.159   1.414  1.1363 -0.2283  0.0062
   21MOL   H13613776   0.444   2.356   1.525  1.1151 -0.2458  0.3261
   21MOL   H13713777   0.311   2.421   1.431  0.7498 -0.2066 -1.1816
   21MOL   N13813778   0.450   2.609   1.361  0.0159  0.1235  0.8521
   21MOL   C13913779   0.518   2.732   1.324 -0.0134  0.6574 -0.2653
   21MOL   C14013780   0.598   2.787   1.440 -0.0223 -0.1206 -0.0999
   21MOL   C14113781   0.647   2.932   1.407 -0.3119 -0.0852 -0.2405
   21MOL   C14213782   0.784   2.968   1.472 -0.6307 -0.5604 -0.7420
   21MOL   C14313783   0.774   3.006   1.625 -0.7997  0.0863  0.3488
   21MOL   C14413784   0.903   3.042   1.705  0.1800 -0.0272 -0.2949
   21MOL   C14513785   0.876   3.056   1.857  0.8697  0.0212  0.4605
   21MOL   C14613786   1.009   3.089   1.933 -0.5874 -0.1617  0.1214
   21MOL   C14713787   1.063   3.230   1.897  0.1891  0.1115  0.4735
   21MOL   C14813788   1.170   3.288   1.994  0.8036  0.1993  0.0557
   21MOL   C14913789   1.297   3.215   2.021  0.1779  0.0617  0.4813
   21MOL   O15013790   1.345   3.123   1.951 -0.0489  0.0948  0.3972
   21MOL   H15113791   0.355   2.627   1.388 -0.7492  0.3556 -1.8570
   21MOL   H15213792   0.580   2.710   1.237  2.5301  0.1070  1.6278
   21MOL   H15313793   0.438   2.800   1.296 -1.1601 -0.8512 -0.7527
   21MOL   H15413794   0.680   2.722   1.469  0.8085  0.3830 -1.2702
   21MOL   H15513795   0.532   2.803   1.525  1.4781 -1.1958  1.2928
   21MOL   H15613796   0.675   2.928   1.301  1.2303 -1.0150  0.1873
   21MOL   H15713797   0.566   3.003   1.424 -0.9276 -0.6616 -0.7100
   21MOL   H15813798   0.829   3.041   1.405 -0.8331  0.4986  0.2737
   21MOL   H15913799   0.850   2.881   1.472  1.9612  1.3377  1.5619
   21MOL   H16013800   0.728   2.915   1.662  0.3593 -1.1187 -1.0822
   21MOL   H16113801   0.706   3.091   1.628 -0.7711  0.1947 -1.5748
   21MOL   H16213802   0.971   2.959   1.688 -1.0104 -1.3722  1.2728
   21MOL   H16313803   0.946   3.133   1.662  0.4427  0.2025  0.4372
   21MOL   H16413804   0.816   2.976   1.901 -0.1512  0.7068  0.3341
   21MOL   H16513805   0.806   3.137   1.873  0.1165 -0.3394 -0.9719
   21MOL   H16613806   0.985   3.092   2.040 -0.0001 -0.8931  0.2780
   21MOL   H16713807   1.091   3.019   1.919  0.0838  0.4020  1.1933
   21MOL   H16813808   0.975   3.291   1.917 -0.5830 -0.1115 -2.0868
   21MOL   H16913809   1.075   3.249   1.790  0.6091 -1.1076  0.2907
   21MOL   H17013810   1.126   3.308   2.092 -0.3324  2.1114 -0.8128
   21MOL   H17113811   1.194   3.388   1.958 -2.0012  1.2247  0.8925
   21MOL   N17213812   1.353   3.251   2.138 -0.3865  0.3641 -0.4134
   21MOL   C17313813   1.474   3.189   2.198  0.0157  0.0003  0.5037
   21MOL   C17413814   1.438   3.138   2.334  0.8578 -0.0460  0.0986
   21MOL   C17513815   1.549   3.046   2.398 -0.7103 -0.1640 -0.2706
   21MOL   C17613816   1.504   2.969   2.522 -0.1337  0.0898 -0.4596
   21MOL   C17713817   1.476   3.070   2.638 -0.3956 -0.0704 -0.4639
   21MOL   C17813818   1.478   3.010   2.780 -0.3720  0.0572  0.4721
   21MOL   C17913819   1.484   3.104   2.902 -0.2134 -0.6892  0.7761
   21MOL   C18013820   1.362   3.202   2.909 -0.2157 -0.1333 -0.4200
   21MOL   C18113821   1.378   3.296   3.031  0.2021 -0.0598  1.0085
   21MOL   C18213822   1.264   3.388   3.071 -0.0502 -0.3607  0.9152
   21MOL   C18313823   1.252   3.504   2.971 -0.2500  0.4106  0.1161
   21MOL   O18413824   1.345   3.592   2.973 -0.1194  0.2646  0.3951
   21MOL   H18513825   1.311   3.329   2.185  2.1352  1.5616 -0.0407
   21MOL   H18613826   1.513   3.104   2.142  0.2132  0.3969  0.0465
   21MOL   H18713827   1.555   3.260   2.187  0.6447 -0.9757 -1.2246
   21MOL   H18813828   1.341   3.088   2.333  1.5860 -1.4910 -0.3403
   21MOL   H18913829   1.432   3.231   2.390 -1.1621  0.7700 -1.4272
   21MOL   H19013830   1.576   2.974   2.321  0.1358  0.4675 -0.5679
   21MOL   H19113831   1.638   3.108   2.408 -1.3796  0.5542  1.4512
   21MOL   H19213832   1.587   2.914   2.565 -1.8300 -1.4571  0.9324
   21MOL   H19313833   1.420   2.903   2.500 -0.5893 -0.3305  2.2808
   21MOL   H19413834   1.385   3.127   2.618  0.2921  0.5779 -1.7420
   21MOL   H19513835   1.554   3.145   2.647 -1.7261  1.3750 -0.8105
   21MOL   H19613836   1.400   2.935   2.795  0.1280 -0.3628  1.0004
   21MOL   H19713837   1.574   2.959   2.790  0.0454  0.4250 -1.5823
   21MOL   H19813838   1.576   3.163   2.897 -0.9694  0.3344 -1.3804
   21MOL   H19913839   1.498   3.051   2.996 -0.2284 -0.9103  0.6535
   21MOL   H20013840   1.351   3.254   2.813  0.8528  0.7494 -0.0773
   21MOL   H20113841   1.274   3.140   2.926 -1.4813  1.5862 -0.4735
   21MOL   H20213842   1.469   3.352   3.010 -0.1166 -1.0132 -3.4064
   21MOL   H20313843   1.400   3.230   3.116  0.9657  0.8328  1.5080
   21MOL   H20413844   1.283   3.423   3.172 -0.7900 -1.0257  1.2889
   21MOL   H20513845   1.173   3.328   3.064  0.0843 -0.3953 -0.8967
   21MOL   N20613846   1.143   3.501   2.890  0.5693  0.2715  0.2072
   21MOL   C20713847   1.116   3.575   2.771  0.0464 -0.2453  0.5052
   21MOL   C20813848   0.973   3.552   2.718  0.3181 -0.5815 -0.6356
   21MOL   C20913849   0.949   3.604   2.572 -0.0803  0.4501  0.1264
   21MOL   C21013850   0.832   3.537   2.510 -0.0265  0.2051  0.4265
   21MOL   C21113851   0.810   3.563   2.355  0.1367  0.0301  0.2134
   21MOL   C21213852   0.672   3.521   2.295  0.2589  0.3762  0.4136
   21MOL   C21313853   0.652   3.374   2.282  0.8402  0.0443  0.2798
   21MOL   C21413854   0.522   3.334   2.219  0.4700  0.6674  0.0683
   21MOL   C21513855   0.497   3.189   2.191  0.1381  0.0624 -0.3053
   21MOL   C21613856   0.385   3.156   2.098 -0.3228 -0.7081 -0.0121
   21MOL   C21713857   0.394   3.003   2.065 -0.0052  0.0919 -0.7090
   21MOL   O21813858   0.471   2.931   2.126  0.6228 -0.0844  0.3100
   21MOL   H21913859   1.058   3.448   2.905 -0.5135  2.2347  1.1174
   21MOL   H22013860   1.187   3.555   2.691  0.6062  0.3275  0.8497
   21MOL   H22113861   1.138   3.678   2.798 -1.8149 -0.1396  1.7149
   21MOL   H22213862   0.900   3.600   2.783  1.1468 -2.9463  2.0897
   21MOL   H22313863   0.951   3.446   2.723 -1.5080 -0.2095 -0.6278
   21MOL   H22413864   0.927   3.711   2.575 -3.1226 -0.0834 -0.8195
   21MOL   H22513865   1.036   3.583   2.511 -0.0676  1.8716 -0.3605
   21MOL   H22613866   0.743   3.579   2.558  0.3301  2.9360 -1.1548
   21MOL   H22713867   0.849   3.430   2.524 -0.1839 -0.0994 -1.5918
   21MOL   H22813868   0.896   3.520   2.303  0.9488  0.8203  0.8882
   21MOL   H22913869   0.815   3.671   2.340  0.3458 -0.0885 -0.5998
   21MOL   H23013870   0.593   3.558   2.362 -1.9267  1.6395 -2.7558
   21MOL   H23113871   0.659   3.575   2.202  1.5899  1.5613  0.9064
   21MOL   H23213872   0.655   3.326   2.380 -1.0128 -1.4463 -0.3671
   21MOL   H23313873   0.736   3.319   2.239  1.3324 -0.1581  1.4594
   21MOL   H23413874   0.446   3.371   2.288 -0.6104 -0.8499 -0.2814
   21MOL   H23513875   0.517   3.377   2.119 -1.4025  1.4247  0.4710
   21MOL   H23613876   0.480   3.130   2.281  0.4986  1.1360  0.4671
   21MOL   H23713877   0.586   3.137   2.153  1.3554  0.5510  1.8047
   21MOL   H23813878   0.392   3.213   2.005  1.2939 -0.6492  0.1308
   21MOL   H23913879   0.290   3.186   2.143 -1.7169 -1.9320 -2.0430
   21MOL   N24013880   0.300   2.956   1.982 -0.2951  0.3217 -0.2119
   21MOL   C24113881   0.255   2.815   1.965  0.1545 -0.6259 -0.4385
   21MOL   C24213882   0.132   2.806   1.870  0.9811  0.0096 -0.5124
   21MOL   C24313883   0.164   2.849   1.723 -0.2124  0.4530  0.1335
   21MOL   C24413884   0.044   2.929   1.650 -0.4462  0.1581  0.0965
   21MOL   C24513885   0.083   2.938   1.500  0.3691 -0.6541 -0.2530
   21MOL   C24613886   0.190   3.039   1.470  0.7342 -0.3964 -0.6593
   21MOL   C24713887   0.212   3.028   1.321 -0.1724  0.5228  0.2548
   21MOL   C24813888   0.308   3.128   1.270  0.3223 -0.5763  0.3531
   21MOL   C24913889   0.286   3.156   1.122 -0.3852 -0.1081 -0.2699
   21MOL   C25013890   0.287   3.034   1.039  0.4918  0.4461  0.4051
   21MOL   C25113891   0.418   2.959   1.032  0.1668  0.4405  0.3026
   21MOL   O25213892   0.518   3.010   1.079 -0.0195  0.1495 -0.9766
   21MOL   H25313893   0.240   3.028   1.947 -0.6702 -0.6981 -1.6936
   21MOL   H25413894   0.223   2.772   2.061 -0.8717  0.5962 -0.2243
   21MOL   H25513895   0.344   2.766   1.927  0.4323 -0.7772  0.3922
   21MOL   H25613896   0.054   2.873   1.906  0.4223 -0.2264 -1.2598
   21MOL   H25713897   0.078   2.713   1.885  0.2548  0.6092  0.6161
   21MOL   H25813898   0.236   2.930   1.729 -3.0029  3.0053  0.7715
   21MOL   H25913899   0.205   2.767   1.664  1.9826  1.5753  0.0395
   21MOL   H26013900   0.024   3.027   1.693  2.2934  1.4277 -1.3745
   21MOL   H26113901   7.682   2.857   1.677  1.8098 -2.1795  0.5984
   21MOL   H26213902   7.702   2.954   1.452  0.6138  0.9425 -0.2486
   21MOL   H26313903   0.111   2.837   1.472  0.8060 -0.8584  0.9053
   21MOL   H26413904   0.156   3.141   1.484 -3.0881 -1.4104 -2.0427
   21MOL   H26513905   0.285   3.025   1.523  0.1034  2.4418  1.3319
   21MOL   H26613906   0.122   3.043   1.261 -0.2814 -2.8196 -0.4923
   21MOL   H26713907   0.243   2.926   1.296  0.9663  0.7113  0.8747
   21MOL   H26813908   0.308   3.219   1.329 -1.1185  0.7474 -1.6325
   21MOL   H26913909   0.409   3.091   1.292  0.9255 -0.6642 -2.4315
   21MOL   H27013910   0.364   3.228   1.098 -0.1983 -0.0040  0.6214
   21MOL   H27113911   0.196   3.216   1.108 -1.0483 -1.3415 -1.4685
   21MOL   H27213912   0.272   3.069   0.936 -1.3845 -0.4635  0.3453
   21MOL   H27313913   0.195   2.977   1.053  0.2320 -0.0176 -2.7500
   21MOL   N27413914   0.410   2.844   0.969  0.2757 -0.1146  0.0232
   21MOL   C27513915   0.514   2.750   0.944  0.3876  0.1091  0.1687
   21MOL   C27613916   0.443   2.607   0.933 -0.7605 -0.6602  0.0380
   21MOL   C27713917   0.537   2.485   0.913  0.3069  0.0612  0.4247
   21MOL   C27813918   0.469   2.353   0.862 -0.3093  0.3793 -0.1434
   21MOL   C27913919   0.430   2.340   0.716 -0.2389 -0.4986  0.4716
   21MOL   C28013920   0.536   2.355   0.611  0.5315 -0.2688  0.4779
   21MOL   C28113921   0.482   2.305   0.478  0.7037 -0.6049  0.6340
   21MOL   C28213922   0.520   2.394   0.357  0.2361  0.3877  0.1734
   21MOL   C28313923   0.462   2.344   0.224 -0.1085  0.6512  0.1824
   21MOL   C28413924   0.512   2.433   0.104  0.6994 -0.2228  0.0205
   21MOL   C28513925   0.480   2.365   7.682 -0.1711 -0.1347  0.4350
   21MOL   O28613926   0.569   2.302   7.625 -0.1293  0.6246 -0.4326
   21MOL   H28713927   0.314   2.815   0.963  0.5330 -0.6308 -1.8191
   21MOL   H28813928   0.592   2.764   1.019 -0.4585  3.6906  0.5045
   21MOL   H28913929   0.552   2.783   0.848  0.7787  0.1428  0.3332
   21MOL   H29013930   0.362   2.605   0.860 -0.4921 -1.8168 -0.2432
   21MOL   H29113931   0.391   2.585   1.026  0.3334 -0.0948  0.7931
   21MOL   H29213932   0.619   2.502   0.844  0.4054 -0.0626  0.5114
   21MOL   H29313933   0.588   2.465   1.007  0.6348 -0.4948  0.1316
   21MOL   H29413934   0.382   2.335   0.925 -1.4051  0.2233 -1.6949
   21MOL   H29513935   0.527   2.262   0.879 -2.0164 -0.4211  1.5038
   21MOL   H29613936   0.349   2.408   0.687 -1.0307 -1.4110  0.5109
   21MOL   H29713937   0.381   2.243   0.717 -1.3654  0.0496  2.0198
   21MOL   H29813938   0.571   2.458   0.604 -2.0140  0.6074 -0.0459
   21MOL   H29913939   0.621   2.292   0.637  1.2097 -0.1310 -1.3360
   21MOL   H30013940   0.374   2.319   0.473  0.7943  0.2047  0.8186
   21MOL   H30113941   0.510   2.204   0.448 -0.3412 -0.8256  0.3638
   21MOL   H30213942   0.484   2.495   0.370 -1.7097 -0.1784 -0.6713
   21MOL   H30313943   0.627   2.386   0.336 -0.3754 -3.2155 -2.2179
   21MOL   H30413944   0.353   2.342   0.222 -0.1464 -1.3162  2.2969
   21MOL   H30513945   0.493   2.240   0.216 -2.1398 -0.1793  2.6720
   21MOL   H30613946   0.620   2.437   0.114  0.6771 -0.4309  0.3572
   21MOL   H30713947   0.483   2.538   0.109 -0.2149 -0.4043 -1.3426
   21MOL   N30813948   0.353   2.376   7.636 -0.1792  0.0047  0.3673
   21MOL   C30913949   0.306   2.320   7.509  0.0211 -0.0562  0.2589
   21MOL   C31013950   0.290   2.426   7.404 -0.2490  0.0862 -0.3016
   21MOL   C31113951   0.245   2.368   7.265  0.3125 -0.3379  0.1805
   21MOL   C31213952   0.194   2.480   7.166  0.0268  0.1336 -0.3801
   21MOL   C31313953   0.143   2.408   7.041 -0.1334 -0.0659 -0.7495
   21MOL   C31413954   0.107   2.507   6.929  0.1583 -0.0406  0.0263
   21MOL   C31513955   0.069   2.422   6.812  0.2977  0.6909 -0.7439
   21MOL   C31613956   7.711   2.504   6.706  0.4819  0.6788  0.1607
   21MOL   C31713957   0.080   2.597   6.618  0.3495  0.3904 -0.0374
   21MOL   C31813958   0.189   2.529   6.539  0.2534  0.0936 -0.1077
   21MOL   C31913959   0.318   2.498   6.617  0.6417 -0.0392 -0.0419
   21MOL   O32013960   0.363   2.589   6.685  0.5863 -0.7910 -0.1809
   21MOL   H32113961   0.289   2.432   7.690  0.4174  0.0069  1.0729
   21MOL   H32213962   0.209   2.275   7.530  0.3030 -1.3154 -1.0340
   21MOL   H32313963   0.359   2.231   7.472  2.7420  1.2749  0.7942
   21MOL   H32413964   0.386   2.472   7.379  0.2556 -1.4814 -1.3643
   21MOL   H32513965   0.211   2.498   7.423 -2.3543 -2.2886  0.2101
   21MOL   H32613966   0.318   2.302   7.218 -0.9190 -0.0281 -2.1935
   21MOL   H32713967   0.161   2.300   7.269  0.2054 -0.2423 -0.5140
   21MOL   H32813968   0.277   2.547   7.142  0.2289 -0.1968 -0.6222
   21MOL   H32913969   0.115   2.544   7.204 -0.0468  0.8990 -1.7934
   21MOL   H33013970   0.056   2.354   7.080  0.0067 -0.0596 -0.4323
   21MOL   H33113971   0.221   2.343   7.002  1.5311  0.3940  1.7407
   21MOL   H33213972   0.029   2.579   6.953  0.7172  0.6815 -0.3015
   21MOL   H33313973   0.195   2.562   6.896 -0.4833 -0.7603 -3.0183
   21MOL   H33413974   7.709   2.355   6.851  1.0116 -0.8741 -1.9736
   21MOL   H33513975   0.148   2.363   6.764  0.0081 -0.6184  0.3635
   21MOL   H33613976   7.664   2.442   6.630 -2.9157  3.0493  0.2245
   21MOL   H33713977   7.636   2.563   6.759  1.5743  1.0464  1.3253
   21MOL   H33813978   0.121   2.657   6.700  0.9073  2.0364 -1.4932
   21MOL   H33913979   0.024   2.672   6.562  0.1216  0.7044  0.5963
   21MOL   H34013980   0.221   2.601   6.464  1.1465  0.5311  0.6818
   21MOL   H34113981   0.158   2.437   6.490  1.6355 -1.0285  1.0911
   21MOL   N34213982   0.371   2.380   6.607  0.0855  0.4314  0.2094
   21MOL   C34313983   0.485   2.335   6.679 -0.5642  0.1106 -0.1525
   21MOL   C34413984   0.453   2.303   6.826 -0.2737 -0.2707 -0.3948
   21MOL   C34513985   0.572   2.265   6.911 -0.2932  0.6040  0.6576
   21MOL   C34613986   0.531   2.228   7.056  0.2757  0.7867  1.0800
   21MOL   C34713987   0.649   2.184   7.139 -0.0567 -0.7240 -0.1390
   21MOL   C34813988   0.599   2.144   7.275  0.5355  0.5460  0.0033
   21MOL   C34913989   0.712   2.090   7.355 -0.4443 -0.4130 -0.5292
   21MOL   C35013990   0.652   2.018   7.474  0.0028 -0.2175 -0.1158
   21MOL   C35113991   0.751   1.989   7.593 -0.6891  0.5820  0.1882
   21MOL   C35213992   0.700   1.883   7.690 -1.0240  0.1962  0.1883
   21MOL   C35313993   0.685   1.742   7.631 -0.5701  0.1263  0.5059
   21MOL   O35413994   0.745   1.713   7.525 -0.0830  0.3262 -0.3085
   21MOL   H35513995   0.333   2.307   6.548  2.5443 -0.6917 -0.0486
   21MOL   H35613996   0.523   2.252   6.619 -1.9465 -1.2022  0.7485
   21MOL   H35713997   0.558   2.416   6.674  0.8712 -1.1836 -0.7847
   21MOL   H35813998   0.377   2.227   6.838 -1.3724  0.4452 -2.4849
   21MOL   H35913999   0.411   2.389   6.878  0.8131 -0.6002  1.0531
   21MOL   H36014000   0.624   2.177   6.873 -1.0089 -0.2087  1.5471
   21MOL   H36114001   0.643   2.348   6.911  0.3627  0.0478  0.6142
   21MOL   H36214002   0.452   2.153   7.050  0.8012  0.2700  0.6150
   21MOL   H36314003   0.496   2.317   7.108 -1.8349 -0.8519  2.5895
   21MOL   H36414004   0.732   2.254   7.145  0.1862 -1.0901  0.8064
   21MOL   H36514005   0.696   2.090   7.110  1.3849  0.0583 -0.4107
   21MOL   H36614006   0.537   2.221   7.323  0.2073 -0.4757  1.2498
   21MOL   H36714007   0.535   2.060   7.249 -0.0577  0.7476  0.7791
   21MOL   H36814008   0.765   2.172   7.402  0.9360 -3.5428  3.6777
   21MOL   H36914009   0.773   2.015   7.304  1.8080  0.2439  1.1541
   21MOL   H37014010   0.568   2.064   7.526  0.6419  1.5822 -0.6102
   21MOL   H37114011   0.611   1.923   7.442  1.0428 -0.6234 -0.2634
   21MOL   H37214012   0.763   2.087   7.637  0.3442  0.3758  0.3811
   21MOL   H37314013   0.842   1.951   7.546 -0.9611  3.3667 -2.7676
   21MOL   H37414014   0.604   1.916   0.015 -0.9439 -1.8131  2.1287
   21MOL   H37514015   0.765   1.869   0.061 -2.3217  0.2973  1.1948
   21MOL   N37614016   0.615   1.647   7.704 -0.3552 -0.4174  0.0105
   21MOL   C37714017   0.580   1.505   7.665  0.0638 -0.4077  0.0053
   21MOL   C37814018   0.447   1.498   7.594 -0.1338  0.3641 -0.6359
   21MOL   C37914019   0.416   1.345   7.570 -0.2074  0.5397  0.7076
   21MOL   C38014020   0.275   1.331   7.512 -0.2698 -0.2228 -0.1840
   21MOL   C38114021   0.209   1.195   7.524  0.3096 -0.9789  0.2754
   21MOL   C38214022   0.219   1.135   7.665  0.3451 -0.4935  0.1751
   21MOL   C38314023   0.109   1.025   7.677 -0.8886 -0.0458  0.0440
   21MOL   C38414024   0.152   0.894   0.031  0.2854  0.6337  0.1312
   21MOL   C38514025   0.054   0.776   0.024 -0.9800 -0.1421 -0.6038
   21MOL   C38614026   0.109   0.642   0.071 -0.0154 -0.0007  0.3188
   21MOL   C38714027   0.249   0.605   0.019  0.6667  0.4230 -0.4694
   21MOL   O38814028   0.284   0.606   7.619  0.0373 -0.0555 -0.2348
   21MOL   H38914029   0.571   1.678   0.073  0.3105 -0.2435  0.2933
   21MOL   H39014030   0.652   1.463   7.595  1.5699 -2.2946  2.5904
   21MOL   H39114031   0.585   1.439   0.036  1.3169 -1.4658 -0.8472
   21MOL   H39214032   0.439   1.562   7.506 -2.3805  0.9233 -0.0511
   21MOL   H39314033   0.361   1.535   7.650 -0.3640 -0.3856 -0.4819
   21MOL   H39414034   0.494   1.294   7.513  0.9281  0.2081  2.5177
   21MOL   H39514035   0.428   1.300   7.669  3.6031  0.8832  0.5095
   21MOL   H39614036   0.282   1.354   7.406  0.5394  0.8298  0.0892
   21MOL   H39714037   0.221   1.407   7.568 -2.0417 -1.7595  0.2666
   21MOL   H39814038   0.261   1.127   7.456 -1.6867 -1.8679 -0.3882
   21MOL   H39914039   0.107   1.202   7.487  1.1275  1.6226 -1.7250
   21MOL   H40014040   0.320   1.097   7.686  0.6380  0.2666  0.1380
   21MOL   H40114041   0.200   1.213   0.023 -0.5124  1.3153 -1.9158
   21MOL   H40214042   0.092   0.991   7.575  1.0307 -0.5780 -0.1113
   21MOL   H40314043   0.014   1.059   0.005 -0.7048  3.1408 -1.8660
   21MOL   H40414044   0.238   0.862   7.688  1.1487 -0.6692  2.0511
   21MOL   H40514045   0.189   0.915   0.131  0.1309  2.4981 -0.1849
   21MOL   H40614046   0.024   0.776   7.635 -0.8130  0.1339 -0.6515
   21MOL   H40714047   7.680   0.801   0.081  0.1697  3.3561 -0.2021
   21MOL   H40814048   0.042   0.560   0.044  0.0337 -0.0321  0.2942
   21MOL   H40914049   0.105   0.643   0.180 -0.8112 -0.1986  0.2962
   21MOL   N41014050   0.343   0.575   0.112 -0.2292 -0.8836 -0.5972
   21MOL   C41114051   0.485   0.567   0.088 -0.8149  0.1056  0.0844
   21MOL   C41214052   0.537   0.704   0.054 -0.6521 -0.1096  0.6768
   21MOL   C41314053   0.529   0.816   0.160  0.3109 -0.0761 -0.4145
   21MOL   C41414054   0.632   0.928   0.140 -1.0255  0.3943  0.2447
   21MOL   C41514055   0.613   1.060   0.227 -0.6355  0.0092 -0.0676
   21MOL   C41614056   0.722   1.163   0.199  0.1620  0.1293  0.0681
   21MOL   C41714057   0.707   1.284   0.291 -0.4763 -0.1757 -0.3539
   21MOL   C41814058   0.824   1.313   0.384 -0.6797  0.4305 -0.2180
   21MOL   C41914059   0.847   1.207   0.497  0.3502  0.5298 -0.5849
   21MOL   C42014060   0.961   1.252   0.580 -0.6488  0.3245 -0.3269
   21MOL   C42114061   0.999   1.147   0.680  0.2042 -1.1002 -0.0608
   21MOL   O42214062   0.919   1.056   0.703 -0.4295 -0.4216  0.0525
   21MOL   H42314063   0.314   0.564   0.208  0.5005 -0.2768 -0.2962
   21MOL   H42414064   0.522   0.535   0.186 -0.3242 -0.1499 -0.1849
   21MOL   H42514065   0.518   0.494   0.015 -3.7833 -1.1018 -0.0946
   21MOL   H42614066   0.524   0.736   7.667  1.0257 -1.4858  0.0039
   21MOL   H42714067   0.643   0.679   0.047 -0.6842  0.1149 -0.7004
   21MOL   H42814068   0.425   0.849   0.155  0.4033 -0.0829 -2.9883
   21MOL   H42914069   0.540   0.777   0.262 -0.4786 -0.5458 -0.5030
   21MOL   H43014070   0.634   0.948   0.033  0.0523 -2.5887 -0.3346
   21MOL   H43114071   0.729   0.885   0.161 -0.4914  0.9963 -0.9212
   21MOL   H43214072   0.615   1.026   0.331 -0.5042 -2.0517 -0.7190
   21MOL   H43314073   0.514   1.096   0.200 -0.1209  0.3925 -1.5076
   21MOL   H43414074   0.819   1.117   0.216  0.3232 -0.2269 -1.6890
   21MOL   H43514075   0.732   1.193   0.095  2.3484 -0.1122  0.1823
   21MOL   H43614076   0.609   1.280   0.338 -0.8525  0.6445 -1.0557
   21MOL   H43714077   0.702   1.361   0.214 -2.7941 -1.0465 -1.1323
   21MOL   H43814078   0.906   1.320   0.313  0.3065  2.1402  1.0744
   21MOL   H43914079   0.810   1.401   0.446 -3.0269 -1.7592  2.5216
   21MOL   H44014080   0.855   1.108   0.451  0.7443  0.6145 -0.6949
   21MOL   H44114081   0.760   1.197   0.562  0.8779 -1.3753 -0.1419
   21MOL   H44214082   0.950   1.351   0.624  1.1617  0.5608 -0.3487
   21MOL   H44314083   1.050   1.264   0.518  0.5083 -0.4043  1.1646
   21MOL   N44414084   1.119   1.140   0.729 -0.2207 -0.3499 -0.2207
   21MOL   C44514085   1.183   1.042   0.820  0.3828  0.0738  0.7117
   21MOL   C44614086   1.163   1.086   0.965 -0.4066 -0.6129  0.8629
   21MOL   C44714087   1.246   1.206   0.997 -0.2270 -0.4916  0.2140
   21MOL   C44814088   1.368   1.176   1.097  0.2038  0.1328 -0.1399
   21MOL   C44914089   1.443   1.299   1.150 -0.0318 -0.8411 -0.2607
   21MOL   C45014090   1.564   1.261   1.237 -0.4861 -0.6536  0.6285
   21MOL   C45114091   1.653   1.377   1.288 -0.7553  0.2533 -0.3058
   21MOL   C45214092   1.769   1.314   1.376  0.7805  0.4734 -1.0141
   21MOL   C45314093   1.855   1.420   1.440 -0.3227 -0.2340 -0.3531
   21MOL   C45414094   1.958   1.378   1.552 -0.1248  0.1221 -0.0429
   21MOL   C45514095   1.985   1.499   1.637 -0.5738  0.5481 -0.0295
   21MOL   O45614096   2.061   1.590   1.607 -0.0023 -0.1648 -0.8628
   21MOL   H45714097   1.175   1.219   0.700  0.0330 -0.5809 -0.3707
   21MOL   H45814098   1.157   0.938   0.801  1.7314  0.0105 -0.9080
   21MOL   H45914099   1.291   1.044   0.806  0.5769  0.8286  2.2894
   21MOL   H46014100   1.208   1.007   1.026  0.0116 -1.4277 -0.4677
   21MOL   H46114101   1.058   1.099   0.993 -1.0178  1.2806 -2.0674
   21MOL   H46214102   1.281   1.256   0.907  1.5432  2.4055  2.4288
   21MOL   H46314103   1.180   1.280   1.042  0.2722 -1.6752  2.9942
   21MOL   H46414104   1.449   1.118   1.051  0.1831 -0.1716  0.2020
   21MOL   H46514105   1.324   1.124   1.183 -0.1196 -1.0372 -0.9962
   21MOL   H46614106   1.381   1.365   1.211  2.0536 -0.1633  1.1938
   21MOL   H46714107   1.478   1.364   1.070  1.5175 -0.6194  0.5913
   21MOL   H46814108   1.528   1.218   1.330 -4.0325 -1.5960 -1.1241
   21MOL   H46914109   1.617   1.176   1.194  1.1257 -0.3610  1.9516
   21MOL   H47014110   1.592   1.449   1.343 -1.0728  1.0338 -1.6735
   21MOL   H47114111   1.697   1.444   1.214 -0.2370 -0.9747 -1.1247
   21MOL   H47214112   1.730   1.238   1.444 -3.0863  2.8684 -0.4162
   21MOL   H47314113   1.817   1.252   1.300  0.6146 -1.6273  0.5474
   21MOL   H47414114   1.780   1.488   1.481  1.4633  0.9460  1.0156
   21MOL   H47514115   1.900   1.484   1.364 -1.4349  2.9991  1.5786
   21MOL   H47614116   2.046   1.321   1.521  0.1727  0.7890 -0.4498
   21MOL   H47714117   1.904   1.308   1.615 -0.6036  0.4947 -0.0344
   21MOL   N47814118   1.908   1.503   1.745  0.7211 -0.0106 -0.3395
   21MOL   C47914119   1.897   1.613   1.837  0.3870  0.9798  1.0699
   21MOL   C48014120   1.750   1.669   1.830 -0.2955  0.2142  0.6058
   21MOL   C48114121   1.688   1.667   1.687  0.0776 -0.2439 -0.0595
   21MOL   C48214122   1.555   1.744   1.691 -0.7665  0.2227 -0.0304
   21MOL   C48314123   1.463   1.742   1.573 -0.5128 -0.1146  0.1437
   21MOL   C48414124   1.524   1.815   1.460  0.7436 -0.9419  0.2044
   21MOL   C48514125   1.429   1.819   1.340 -0.3079 -0.0179 -0.1081
   21MOL   C48614126   1.445   1.944   1.243  0.2837  0.3706 -0.0087
   21MOL   C48714127   1.320   1.970   1.157 -0.2707  0.4102  0.2345
   21MOL   C48814128   1.338   2.097   1.071 -0.1696  0.0108 -0.3200
   21MOL   C48914129   1.238   2.110   0.967 -0.2412  0.2773 -0.2292
   21MOL   O49014130   1.248   2.066   0.852 -0.1003 -0.5710  0.2179
   21MOL   H49114131   1.846   1.423   1.744  2.4727 -1.3945  0.6227
   21MOL   H49214132   1.923   1.580   1.937  3.1062  2.0238  0.7546
   21MOL   H49314133   1.963   1.695   1.810  1.8747  0.6162  3.4745
   21MOL   H49414134   1.742   1.764   1.883 -0.5489 -0.4362  1.7457
   21MOL   H49514135   1.684   1.601   1.885  0.1633  0.2047  1.1542
   21MOL   H49614136   1.747   1.704   1.603 -2.3837 -0.2210 -1.8321
   21MOL   H49714137   1.659   1.563   1.671 -0.5936 -0.2411  1.0458
   21MOL   H49814138   1.583   1.844   1.725  3.0386 -0.7577 -0.0341
   21MOL   H49914139   1.505   1.683   1.766  1.2898 -0.2757  0.9824
   21MOL   H50014140   1.364   1.779   1.600 -1.7578 -1.7067 -2.0645
   21MOL   H50114141   1.457   1.635   1.554 -1.0793  0.1754 -1.3893
   21MOL   H50214142   1.559   1.915   1.483  0.6358 -0.6034 -1.0773
   21MOL   H50314143   1.617   1.767   1.430 -0.1777 -2.3187 -0.5090
   21MOL   H50414144   1.325   1.826   1.373  0.0511  1.3117  0.8258
   21MOL   H50514145   1.430   1.718   1.300 -0.2154  0.1002 -0.4055
   21MOL   H50614146   1.455   2.034   1.304 -0.7188 -0.5440  1.5457
   21MOL   H50714147   1.532   1.938   1.178  1.5326  0.5071  1.6181
   21MOL   H50814148   1.238   1.987   1.227 -0.1195  3.2243 -0.1972
   21MOL   H50914149   1.287   1.889   1.092  1.5886  0.5833 -0.9791
   21MOL   H51014150   1.435   2.108   1.023  0.4883 -1.2536  0.6807
   21MOL   H51114151   1.336   2.171   1.151  1.0400 -0.1759 -0.1130
   21MOL   N51214152   1.135   2.180   1.008  0.0104  0.8031 -0.6035
   21MOL   C51314153   1.023   2.221   0.926 -0.5725 -0.1916 -0.1404
   21MOL   C51414154   1.063   2.314   0.809  0.4531 -0.1813  0.8541
   21MOL   C51514155   0.939   2.386   0.739  0.9290 -0.7564 -0.1374
   21MOL   C51614156   0.977   2.481   0.619  0.2943 -0.8263 -0.2347
   21MOL   C51714157   0.880   2.597   0.584  1.1042  0.8286 -0.0237
   21MOL   C51814158   0.856   2.619   0.432 -0.0346 -0.6594 -0.1088
   21MOL   C51914159   0.748   2.728   0.405 -0.3183  0.2917  0.2565
   21MOL   C52014160   0.712   2.733   0.261  0.5700 -0.6749  0.0623
   21MOL   C52114161   0.592   2.818   0.233  0.0350 -0.0359 -0.1660
   21MOL   C52214162   0.570   2.842   0.078 -0.0539  0.1001  0.3622
   21MOL   C52314163   0.455   2.937   0.034  0.1841 -0.8803 -0.3830
   21MOL   O52414164   0.369   2.975   0.115 -0.1706  0.1626 -0.1586
   21MOL   H52514165   1.145   2.211   1.104  1.6650  0.7434 -0.7383
   21MOL   H52614166   0.972   2.132   0.890  1.1065 -1.4216  0.4148
   21MOL   H52714167   0.947   2.260   0.994 -0.5132 -0.9936  0.3980
   21MOL   H52814168   1.120   2.257   0.736 -1.5958  1.1974 -1.9190
   21MOL   H52914169   1.123   2.399   0.840  0.9582 -0.3568  0.3676
   21MOL   H53014170   0.869   2.307   0.710  0.0244 -0.4655  1.2174
   21MOL   H53114171   0.888   2.456   0.806  0.0559 -0.5661 -0.9862
   21MOL   H53214172   0.997   2.425   0.527  0.4930  0.1036 -0.7563
   21MOL   H53314173   1.072   2.532   0.631 -0.4688  0.6597 -0.4645
   21MOL   H53414174   0.904   2.677   0.653  1.4309 -0.1629  1.0398
   21MOL   H53514175   0.780   2.574   0.620  1.1167 -0.1916 -0.6034
   21MOL   H53614176   0.947   2.649   0.380  0.6358 -0.9336  0.8837
   21MOL   H53714177   0.831   2.517   0.400 -2.5568 -0.0146 -0.3083
   21MOL   H53814178   0.797   2.822   0.435 -0.9526  0.0600  2.1035
   21MOL   H53914179   0.665   2.702   0.471  0.0794  0.7132  0.9384
   21MOL   H54014180   0.797   2.781   0.212 -0.2617 -0.2068 -0.9476
   21MOL   H54114181   0.712   2.635   0.213  0.9674 -0.6568  0.0202
   21MOL   H54214182   0.604   2.910   0.292 -0.6767  0.9112 -1.4697
   21MOL   H54314183   0.510   2.765   0.281  0.1395 -0.3903 -0.3805
   21MOL   H54414184   0.556   2.741   0.039  0.3181 -0.3313  1.3082
   21MOL   H54514185   0.660   2.887   0.036 -1.7389  1.8104 -1.5197
   21MOL   N54614186   0.461   2.988   7.629  0.2581 -0.6527 -0.5872
   21MOL   C54714187   0.381   3.095   7.569  0.4385  0.2041 -0.5736
   21MOL   C54814188   0.236   3.053   7.543 -0.0870 -0.1726 -0.6681
   21MOL   C54914189   0.162   3.164   7.462  0.2659  0.1652  0.3959
   21MOL   C55014190   0.018   3.120   7.444  0.0031  0.6203 -0.0320
   21MOL   C55114191   7.701   3.002   7.355  0.1629 -0.3152 -0.1933
   21MOL   C55214192   0.037   3.021   7.218  0.2810  0.1644 -0.2575
   21MOL   C55314193   7.645   2.977   7.111  0.1793  0.4273 -0.3058
   21MOL   C55414194   7.689   2.970   6.961  0.1461 -0.6278 -0.8200
   21MOL   C55514195   7.568   2.909   6.876  0.1778 -0.1871 -0.1569
   21MOL   C55614196   7.580   2.942   6.727 -0.0061  0.0581  0.0243
   21MOL   C55714197   7.480   2.876   6.640 -0.2984  1.1085  0.1585
   21MOL   O55814198   7.377   2.840   6.690  0.2837  0.0121  0.1264
   21MOL   H55914199   0.537   2.954   7.573  1.2266 -0.8356  0.8018
   21MOL   H56014200   0.386   3.189   7.624 -2.4564  0.6573 -0.9920
   21MOL   H56114201   0.432   3.125   7.477  0.1537  1.6635 -0.2726
   21MOL   H56214202   0.187   3.049   7.640 -2.3697  1.1439 -1.7218
   21MOL   H56314203   0.216   2.956   7.497 -0.9606 -0.1224 -0.4118
   21MOL   H56414204   0.160   3.258   7.516 -0.1985  0.0385  0.6043
   21MOL   H56514205   0.204   3.177   7.362 -0.0538 -0.7351  0.1367
   21MOL   H56614206   7.680   3.201   7.393 -0.6629  0.1755 -0.0395
   21MOL   H56714207   7.687   3.104   7.541 -2.0594 -1.9430 -1.3717
   21MOL   H56814208   7.592   3.002   7.354  0.0253  3.4160  3.0248
   21MOL   H56914209   0.014   2.908   7.402 -0.0900 -0.8781 -1.1541
   21MOL   H57014210   0.068   3.122   7.192 -0.5621  0.3085 -0.7494
   21MOL   H57114211   0.129   2.963   7.210 -1.0984 -2.6188  2.7160
   21MOL   H57214212   7.555   3.037   7.126 -0.8756 -1.3436  0.6671
   21MOL   H57314213   7.619   2.874   7.137  2.9194 -0.0143  0.9176
   21MOL   H57414214   7.712   3.069   6.921  1.3013 -0.5684 -0.0330
   21MOL   H57514215   0.065   2.913   6.955 -0.4633 -1.9686  1.7334
   21MOL   H57614216   7.473   2.954   6.905  1.4560  2.5061 -0.0772
   21MOL   H57714217   7.565   2.801   6.895  0.2665  0.0521  1.2571
   21MOL   H57814218   7.678   2.903   6.699 -0.5536 -1.0926 -0.3002
   21MOL   H57914219   7.566   3.050   6.718 -0.9177 -0.1101 -0.6967
   21MOL   N58014220   7.512   2.875   6.512  0.4184 -0.2011  0.2293
   21MOL   C58114221   7.425   2.837   6.403 -0.1326  0.8213 -0.1185
   21MOL   C58214222   7.488   2.716   6.327 -0.4354 -0.1497  0.3671
   21MOL   C58314223   7.437   2.577   6.378  0.5611 -0.2162 -0.6870
   21MOL   C58414224   7.487   2.463   6.292  0.0864 -0.0178  0.0640
   21MOL   C58514225   7.436   2.323   6.344  0.2626  0.1401 -0.1174
   21MOL   C58614226   7.490   2.202   6.260  0.6157 -0.0790  0.8834
   21MOL   C58714227   7.424   2.067   6.294 -0.7085 -0.0089 -0.1575
   21MOL   C58814228   7.432   2.027   6.447 -0.3206  0.2244  0.0821
   21MOL   C58914229   7.568   2.039   6.514 -0.0903 -0.2683 -0.6478
   21MOL   C59014230   7.563   1.972   6.646 -0.1719  0.6343 -0.7620
   21MOL   C59114231   7.693   2.004   6.717  0.2819 -0.7662 -0.9403
   21MOL   O59214232   0.071   2.036   6.652  0.3315  0.6753 -0.3932
   21MOL   H59314233   7.608   2.900   6.494  0.4692  0.0230  0.7711
   21MOL   H59414234   7.324   2.806   6.427 -0.0424 -0.9027 -1.7974
   21MOL   H59514235   7.420   2.933   6.352 -0.6463  1.3843  0.9725
   21MOL   H59614236   7.596   2.717   6.341 -0.6030 -1.5724  2.0399
   21MOL   H59714237   7.478   2.731   6.220  0.4234 -1.9760  0.0023
   21MOL   H59814238   7.479   2.579   6.478 -0.3059  0.9967 -0.3385
   21MOL   H59914239   7.329   2.570   6.393  0.6205 -0.1274 -0.2280
   21MOL   H60014240   7.596   2.455   6.296  0.1277  0.7020  0.2999
   21MOL   H60114241   7.460   2.481   6.188  0.2451 -3.2373 -0.6011
   21MOL   H60214242   7.328   2.335   6.337  0.3636  0.3319 -1.3913
   21MOL   H60314243   7.470   2.298   6.445  0.5056 -2.3483 -0.7985
   21MOL   H60414244   7.475   2.229   6.156 -0.7760 -1.3435  0.7499
   21MOL   H60514245   7.598   2.186   6.271  0.4415 -0.0400  2.9672
   21MOL   H60614246   7.458   1.993   6.222  0.3552 -0.6395  0.9886
   21MOL   H60714247   7.319   2.074   6.264 -1.2265 -1.0844  1.3363
   21MOL   H60814248   7.361   2.096   6.495  0.1429  2.2764 -2.1009
   21MOL   H60914249   7.387   1.931   6.471  1.7330 -0.2489  2.2595
   21MOL   H61014250   7.599   2.143   6.522  0.2309 -0.3630 -0.6716
   21MOL   H61114251   7.639   1.991   6.447  1.1532  0.1117  0.3945
   21MOL   H61214252   7.574   1.866   6.623  1.8272  0.7354 -0.3592
   21MOL   H61314253   7.469   1.987   6.699 -0.6539  0.5828 -1.6020
   21MOL   N61414254   7.694   2.012   6.851 -0.0770 -0.2545  0.3855
   21MOL   C61514255   0.099   2.051   6.934  0.1335 -0.0233  0.0795
   21MOL   C61614256   0.098   1.965   7.061 -0.2933  0.3724  0.5349
   21MOL   C61714257   0.191   1.998   7.178  0.2378 -0.4261  0.2475
   21MOL   C61814258   0.196   1.880   7.281 -0.2336  0.4758  0.2123
   21MOL   C61914259   0.265   1.927   7.411  0.4288  0.5285 -0.4248
   21MOL   C62014260   0.267   1.819   7.518 -0.2560 -0.3082 -0.2999
   21MOL   C62114261   0.143   1.823   7.605 -0.3422  0.0533 -0.2841
   21MOL   C62214262   0.119   1.960   7.672 -0.2265 -0.0572  0.3570
   21MOL   C62314263   0.240   1.993   0.041 -0.0332  0.6493 -0.3368
   21MOL   C62414264   0.206   2.088   0.159 -0.4387  0.0077  0.0723
   21MOL   C62514265   0.111   2.034   0.259  0.2236  0.8139  0.1022
   21MOL   O62614266   0.132   1.927   0.311 -0.4425 -0.3798  0.3367
   21MOL   H62714267   7.607   1.986   6.896 -0.6489 -1.1586 -1.2036
   21MOL   H62814268   0.091   2.157   6.960 -2.0071 -0.2311  0.3447
   21MOL   H62914269   0.198   2.041   6.888 -0.5742 -2.3279 -1.0037
   21MOL   H63014270   0.121   1.864   7.027  0.3228  2.3814 -5.5146
   21MOL   H63114271   7.712   1.962   7.099  0.0382  1.0899  1.5017
   21MOL   H63214272   0.288   2.009   7.131 -0.5276  1.4599 -0.9439
   21MOL   H63314273   0.156   2.093   7.219  3.2232  0.5622  0.5944
   21MOL   H63414274   0.252   1.807   7.223 -0.0591  1.2163 -0.5620
   21MOL   H63514275   0.094   1.843   7.293 -0.8210  1.5360 -1.3438
   21MOL   H63614276   0.222   2.024   7.435  0.5172  0.0058  1.9444
   21MOL   H63714277   0.368   1.947   7.381  1.4525 -0.9485  1.9597
   21MOL   H63814278   0.277   1.722   7.469  1.5881  0.2351 -1.0613
   21MOL   H63914279   0.363   1.837   7.567  0.7641 -0.9748 -1.9977
   21MOL   H64014280   0.151   1.742   7.677 -1.8780 -1.8080 -2.1331
   21MOL   H64114281   0.060   1.787   7.543 -0.2219  0.5066 -0.7151
   21MOL   H64214282   0.100   2.052   7.615  0.4564  0.1128  0.4037
   21MOL   H64314283   0.038   1.942   0.026  0.0290  0.5662  0.8176
   21MOL   H64414284   0.311   2.058   7.706  0.2942  1.5010  1.2106
   21MOL   H64514285   0.305   1.912   0.073  0.3008  2.5095  3.9029
   21MOL   H64614286   0.173   2.188   0.128 -0.6282 -0.0886 -0.0402
   21MOL   H64714287   0.298   2.116   0.210 -1.7201  1.0688  1.8556
   21MOL   N64814288   7.709   2.098   0.270  0.5409 -0.2764  0.3782
   21MOL   C64914289   7.585   2.043   0.326  0.3980 -1.3653 -0.3373
   21MOL   C65014290   7.537   1.929   0.241  0.5088  0.5424  0.6079
   21MOL   C65114291   7.423   1.847   0.306 -0.0436  0.1772 -1.0435
   21MOL   C65214292   7.372   1.734   0.217 -0.6718 -0.0948 -0.1302
   21MOL   C65314293   7.287   1.626   0.284  0.6640  0.0500 -0.4002
   21MOL   C65414294   7.230   1.536   0.176  0.1705  0.1311 -0.0150
   21MOL   C65514295   7.123   1.433   0.225  0.2202 -0.4494 -0.0401
   21MOL   C65614296   7.109   1.311   0.132 -0.2658  0.0631  0.3516
   21MOL   C65714297   7.056   1.353   7.706  0.4117 -0.4013 -0.0366
   21MOL   C65814298   7.051   1.230   7.609 -0.2117 -0.6139  0.0183
   21MOL   C65914299   7.019   1.284   7.470 -0.3690  0.2278  0.3615
   21MOL   O66014300   7.042   1.401   7.435  0.7939  0.3393 -0.3647
   21MOL   H66114301   7.699   2.192   0.235 -2.0158 -0.1481  1.3746
   21MOL   H66214302   7.510   2.121   0.340  0.9523 -0.7061 -0.9977
   21MOL   H66314303   7.623   2.010   0.423 -0.5903 -0.7617  0.2663
   21MOL   H66414304   7.606   1.852   0.203 -0.2508 -0.1579  0.6307
   21MOL   H66514305   7.506   1.974   0.146  1.7937  0.3971  0.1080
   21MOL   H66614306   7.474   1.815   0.397  2.8017  2.6612 -1.6916
   21MOL   H66714307   7.340   1.900   0.353  0.7491  0.7719 -0.3022
   21MOL   H66814308   7.465   1.678   0.209  0.3389  1.6869 -1.1553
   21MOL   H66914309   7.331   1.764   0.121 -1.0623  2.4011  0.7768
   21MOL   H67014310   7.202   1.675   0.332  1.1476  1.7596 -1.2697
   21MOL   H67114311   7.326   1.563   0.364 -0.7933  0.0031  0.2882
   21MOL   H67214312   7.192   1.591   0.090 -0.7863 -1.3264 -0.5382
   21MOL   H67314313   7.311   1.479   0.130  1.0305  0.7930  0.6856
   21MOL   H67414314   7.028   1.486   0.230 -0.0840 -0.7898 -1.9056
   21MOL   H67514315   7.139   1.413   0.331  1.1824  0.9673  0.0908
   21MOL   H67614316   7.210   1.273   0.118  0.5676  1.3307  2.6684
   21MOL   H67714317   7.054   1.237   0.191  1.8019 -0.3819  1.7972
   21MOL   H67814318   7.128   1.425   7.666  0.6974 -0.3244  0.6092
   21MOL   H67914319   6.957   1.395   0.005  0.5743 -0.5800  1.6585
   21MOL   H68014320   6.983   1.150   7.639 -1.9740  0.0829 -2.0181
   21MOL   H68114321   7.146   1.177   7.605  0.3909  0.5016 -0.5131
   21MOL   H68214322   6.970   1.215   7.401 -0.4654  0.6881 -0.0358
   22MOL     N114323   3.236   2.023   6.678 -1.0678 -0.8008  0.2948
   22MOL     C214324   3.114   1.989   6.611  0.7048  0.1796 -0.0369
   22MOL     C314325   3.019   1.915   6.711 -0.2225 -0.3245  0.7316
   22MOL     C414326   2.891   1.858   6.638  0.9129 -0.2260 -0.2279
   22MOL     C514327   2.811   1.759   6.728 -0.2335  0.2476 -0.4874
   22MOL     C614328   2.673   1.706   6.670  0.0885  0.2600  0.0357
   22MOL     C714329   2.622   1.583   6.749  0.1459  0.1176  0.8686
   22MOL     C814330   2.479   1.531   6.713 -0.1329 -0.7752 -0.0201
   22MOL     C914331   2.467   1.380   6.725 -0.3445 -0.0069  0.6601
   22MOL    C1014332   2.412   1.337   6.863 -0.7237  0.1702 -0.0175
   22MOL    C1114333   2.523   1.327   6.979  0.0770  0.0517  0.4635
   22MOL    C1214334   2.640   1.233   6.949  0.4905  0.4340  0.9658
   22MOL    O1314335   2.628   1.113   6.927  0.1567 -0.1750 -0.3257
   22MOL    H1414336   3.267   2.113   6.646  0.7502 -1.5299 -0.0771
   22MOL    H1514337   3.138   1.931   6.521  3.4363  1.6085 -0.3056
   22MOL    H1614338   3.066   2.082   6.582  1.6393  0.8635  0.5835
   22MOL    H1714339   2.991   1.978   6.795  0.0641  1.6780 -0.6240
   22MOL    H1814340   3.078   1.826   6.732 -1.1852 -0.9501  0.7990
   22MOL    H1914341   2.821   1.938   6.615 -1.3909 -1.2567  2.7794
   22MOL    H2014342   2.914   1.811   6.542 -0.0653  0.4544 -0.7984
   22MOL    H2114343   2.804   1.801   6.828 -3.1613 -1.5424  0.1173
   22MOL    H2214344   2.882   1.681   6.757  1.4912  1.4224 -1.4382
   22MOL    H2314345   2.681   1.664   6.570 -1.9059 -1.9892  0.7737
   22MOL    H2414346   2.603   1.789   6.667  1.6305  1.6057  0.3565
   22MOL    H2514347   2.693   1.504   6.724  2.3278  1.7082  1.8741
   22MOL    H2614348   2.619   1.580   6.858 -0.0711  0.1052  0.8621
   22MOL    H2714349   2.461   1.578   6.616  0.7643  1.1770  0.7213
   22MOL    H2814350   2.409   1.587   6.775 -1.9642 -0.4517 -2.3031
   22MOL    H2914351   2.398   1.348   6.647  2.7483  0.9980 -2.6346
   22MOL    H3014352   2.564   1.337   6.702 -1.2600 -0.6347 -2.2891
   22MOL    H3114353   2.360   1.242   6.855  0.3062 -0.4988  1.0650
   22MOL    H3214354   2.334   1.408   6.893  1.2325  2.0219  0.8095
   22MOL    H3314355   2.469   1.291   7.067  1.5885  0.7421  1.6822
   22MOL    H3414356   2.563   1.422   7.014 -1.4533  0.0548  2.2898
   22MOL    H3514357   3.207   2.053   6.770  0.9793  2.5706 -0.0774
   22MOL    N3614358   2.759   1.286   6.965 -0.5090  0.1718 -0.6181
   22MOL    C3714359   2.888   1.217   6.946 -0.3215 -0.0607  0.2795
   22MOL    C3814360   3.002   1.292   7.025 -0.1219 -0.4968 -0.3723
   22MOL    C3914361   3.020   1.439   6.988 -0.3821  0.2620  0.1910
   22MOL    C4014362   3.111   1.499   7.102 -0.5082 -0.4971 -0.1364
   22MOL    C4114363   3.170   1.644   7.078 -0.7281 -0.3029  0.5831
   22MOL    C4214364   3.274   1.681   7.183  0.3289  0.4223 -0.2600
   22MOL    C4314365   3.359   1.803   7.154 -0.7665 -0.3494  0.1170
   22MOL    C4414366   3.282   1.928   7.176  0.0727 -0.4762  0.0201
   22MOL    C4514367   3.377   2.043   7.134 -0.0168  0.0135 -0.5725
   22MOL    C4614368   3.309   2.184   7.142 -0.5412  0.7136  0.1373
   22MOL    C4714369   3.189   2.197   7.041  0.6548  0.0613  0.0589
   22MOL    O4814370   3.209   2.162   6.926  0.5500  0.0322 -0.1456
   22MOL    H4914371   2.778   1.384   6.978  0.8346 -0.2996  1.0923
   22MOL    H5014372   2.884   1.112   6.974  2.5737 -0.1700  0.3950
   22MOL    H5114373   2.920   1.218   6.842  0.8501  2.5270  0.6195
   22MOL    H5214374   3.094   1.241   6.999  1.0904  1.9725 -1.0969
   22MOL    H5314375   2.967   1.281   7.128 -0.1310 -1.8089 -0.5032
   22MOL    H5414376   3.072   1.444   6.892  0.0807  0.1278  0.4324
   22MOL    H5514377   2.924   1.489   6.992 -0.0409  0.9667 -0.2880
   22MOL    H5614378   3.205   1.447   7.120 -0.5120 -0.3827  0.2145
   22MOL    H5714379   3.067   1.497   7.202  0.2330 -2.3044  0.1839
   22MOL    H5814380   3.103   1.729   7.062 -0.0074  0.2818  0.6652
   22MOL    H5914381   3.219   1.637   6.981 -0.7353 -1.5495  0.6668
   22MOL    H6014382   3.220   1.709   7.273 -0.7488  0.1972 -0.8327
   22MOL    H6114383   3.341   1.598   7.205  0.4967  0.5527 -0.2771
   22MOL    H6214384   3.399   1.784   7.054  1.1169  1.4876  0.4990
   22MOL    H6314385   3.446   1.796   7.219  0.2906 -1.9413 -1.4070
   22MOL    H6414386   3.198   1.945   7.109  1.6463  2.7686 -1.2521
   22MOL    H6514387   3.257   1.936   7.282 -0.9752  1.3658 -0.3475
   22MOL    H6614388   3.415   2.033   7.032  1.6955 -0.5674  0.1060
   22MOL    H6714389   3.461   2.055   7.202  1.0874  1.5334 -2.1553
   22MOL    H6814390   3.388   2.253   7.112  0.6200 -0.6468  0.0665
   22MOL    H6914391   3.281   2.211   7.244 -0.3185 -0.4870  0.5231
   22MOL    N7014392   3.071   2.249   7.085 -0.1160  0.3620 -0.4089
   22MOL    C7114393   2.941   2.244   7.008 -1.0305 -0.1259 -0.0175
   22MOL    C7214394   2.876   2.380   6.996  0.0231 -0.2347 -0.3089
   22MOL    C7314395   2.737   2.365   6.945 -0.2999  0.7682 -0.5830
   22MOL    C7414396   2.678   2.508   6.926 -0.0837 -0.2181  0.4029
   22MOL    C7514397   2.537   2.492   6.863 -0.4514 -0.2614 -0.0053
   22MOL    C7614398   2.490   2.614   6.785 -0.1282  0.6400 -0.1218
   22MOL    C7714399   2.374   2.571   6.691  0.4240  0.0026 -0.3839
   22MOL    C7814400   2.304   2.694   6.621  0.2204  0.0693 -1.1025
   22MOL    C7914401   2.400   2.782   6.546  0.1220  0.4586 -0.5171
   22MOL    C8014402   2.323   2.902   6.478 -0.0879  0.3810 -0.3904
   22MOL    C8114403   2.407   2.980   6.374 -0.0776 -0.1252 -0.6660
   22MOL    O8214404   2.534   2.975   6.372  0.0887  0.1558 -0.2808
   22MOL    H8314405   3.074   2.285   7.179 -2.4559  0.8216 -0.4775
   22MOL    H8414406   2.947   2.212   6.904 -0.1322  0.3963 -0.1355
   22MOL    H8514407   2.883   2.162   7.051  0.5086 -0.2218  1.9503
   22MOL    H8614408   2.928   2.448   6.929  0.1934 -0.4889 -0.4336
   22MOL    H8714409   2.856   2.428   7.092 -1.7070 -0.8456 -0.3538
   22MOL    H8814410   2.730   2.303   6.856 -2.0280 -0.9609  0.6949
   22MOL    H8914411   2.684   2.307   7.021  3.5475 -2.5909 -0.2805
   22MOL    H9014412   2.741   2.563   6.856 -1.8999  0.1638 -0.9799
   22MOL    H9114413   2.671   2.564   7.019 -0.8956 -1.7047  1.2493
   22MOL    H9214414   2.471   2.467   6.946 -1.6761 -0.8862 -1.1776
   22MOL    H9314415   2.524   2.412   6.791  1.8514  0.0952 -0.8833
   22MOL    H9414416   2.450   2.683   6.860  0.4754  1.0576 -0.1806
   22MOL    H9514417   2.574   2.656   6.730  1.2617  0.1999  1.6249
   22MOL    H9614418   2.300   2.511   6.744  0.5910  0.3005  0.2000
   22MOL    H9714419   2.418   2.511   6.612 -0.9452 -1.0475 -0.3706
   22MOL    H9814420   2.221   2.664   6.557  0.9369 -1.5582 -1.2742
   22MOL    H9914421   2.261   2.762   6.695 -0.5207 -0.8326 -0.6910
   22MOL   H10014422   2.456   2.727   6.471  0.9085  3.5342 -2.2821
   22MOL   H10114423   2.464   2.824   6.625 -2.6316  0.6311  1.7059
   22MOL   H10214424   2.275   2.969   6.549 -0.8040  2.0495 -2.3830
   22MOL   H10314425   2.244   2.853   6.420 -1.9498  3.1467 -0.2633
   22MOL   N10414426   2.341   3.049   6.275 -0.1584  0.1669 -0.3761
   22MOL   C10514427   2.406   3.107   6.163 -0.9122  0.2640 -0.2826
   22MOL   C10614428   2.300   3.132   6.058 -0.4090  0.4156  0.6226
   22MOL   C10714429   2.372   3.184   5.934  0.4378  0.6229 -0.1836
   22MOL   C10814430   2.288   3.225   5.818  0.0401 -0.1248  0.2466
   22MOL   C10914431   2.211   3.111   5.747  0.1817  0.8879  0.6390
   22MOL   C11014432   2.113   3.169   5.645  0.1119  0.6527  0.1636
   22MOL   C11114433   2.004   3.071   5.587  0.6842  0.1252 -0.1000
   22MOL   C11214434   1.887   3.045   5.686 -0.2884  0.0888 -0.0486
   22MOL   C11314435   1.759   2.975   5.626 -0.4272  0.1138  0.2274
   22MOL   C11414436   1.660   3.065   5.547 -0.3628  0.2951 -0.3756
   22MOL   C11514437   1.523   3.003   5.540  0.2132  0.1475 -0.0002
   22MOL   O11614438   1.510   2.883   5.560  0.1065  0.0696  0.1019
   22MOL   H11714439   2.240   3.044   6.273 -0.2571  1.4100  0.7023
   22MOL   H11814440   2.450   3.203   6.191  1.5965 -2.1213  4.6590
   22MOL   H11914441   2.479   3.036   6.124 -2.3276 -2.1899  1.4528
   22MOL   H12014442   2.223   3.207   6.077  0.0392  1.3660 -1.2062
   22MOL   H12114443   2.250   3.036   6.040 -0.3865  0.1655  1.8700
   22MOL   H12214444   2.437   3.270   5.950  2.4385 -1.0743  1.0545
   22MOL   H12314445   2.439   3.105   5.900 -0.6843 -0.8716  0.9975
   22MOL   H12414446   2.348   3.277   5.744  2.2838 -0.0348  2.0976
   22MOL   H12514447   2.218   3.297   5.861 -0.2892  0.0290 -0.5354
   22MOL   H12614448   2.158   3.047   5.818 -0.5123  0.4404 -0.2642
   22MOL   H12714449   2.292   3.058   5.698 -2.6835 -2.0898 -1.1336
   22MOL   H12814450   2.053   3.251   5.685 -0.6919  0.3730 -0.4582
   22MOL   H12914451   2.157   3.212   5.555  1.5174 -1.5666 -0.2609
   22MOL   H13014452   2.037   2.978   5.541  1.3978  0.1346  0.3731
   22MOL   H13114453   1.962   3.120   5.500 -2.8364 -0.9260  0.9100
   22MOL   H13214454   1.919   2.975   5.763  1.3186  0.6848 -0.1401
   22MOL   H13314455   1.862   3.136   5.741 -1.5211  2.2867 -4.0560
   22MOL   H13414456   1.710   2.934   5.714 -1.1431  2.5092  0.9773
   22MOL   H13514457   1.792   2.884   5.575  0.9085  0.5349  0.3208
   22MOL   H13614458   1.699   3.088   5.448 -0.6568  1.6463 -0.1905
   22MOL   H13714459   1.641   3.152   5.611  1.8099  0.7040 -0.2706
   22MOL   N13814460   1.427   3.090   5.508 -0.4313  0.1736  0.1157
   22MOL   C13914461   1.287   3.052   5.483 -0.4192  0.0315  0.2018
   22MOL   C14014462   1.221   3.138   5.369 -0.3581 -0.6191 -0.0074
   22MOL   C14114463   1.106   3.065   5.299 -0.0770 -0.0685 -0.5795
   22MOL   C14214464   1.063   3.152   5.181 -0.7030  0.3797 -1.0090
   22MOL   C14314465   0.945   3.100   5.106  0.3633  0.5634  0.1211
   22MOL   C14414466   0.851   3.201   5.031 -0.3651 -0.3877  1.0661
   22MOL   C14514467   0.752   3.286   5.115  0.2548  0.2264 -1.0090
   22MOL   C14614468   0.657   3.378   5.025  0.2306 -0.8179 -0.2589
   22MOL   C14714469   0.585   3.486   5.105 -0.3039  0.7491  0.2705
   22MOL   C14814470   0.487   3.411   5.201  0.3405  0.0121  0.6011
   22MOL   C14914471   0.390   3.510   5.271  0.0422 -0.3446 -0.3464
   22MOL   O15014472   0.396   3.627   5.232 -0.9263  0.8524 -0.8089
   22MOL   H15114473   1.447   3.189   5.513  2.9550 -0.4569  0.1886
   22MOL   H15214474   1.298   2.949   5.449  3.6129  0.5351 -0.3228
   22MOL   H15314475   1.239   3.053   5.580 -0.0917  0.3632  0.3634
   22MOL   H15414476   1.300   3.168   5.300 -0.8107 -1.9144 -1.1021
   22MOL   H15514477   1.176   3.226   5.414  0.3029 -0.6135  0.6593
   22MOL   H15614478   1.138   2.966   5.268  0.9577  0.0739  0.0406
   22MOL   H15714479   1.025   3.049   5.370 -2.0988  0.1729 -2.7692
   22MOL   H15814480   1.148   3.176   5.117  0.9897 -1.1197  0.5791
   22MOL   H15914481   1.030   3.251   5.212  0.2824  1.3133 -2.8732
   22MOL   H16014482   0.880   3.071   5.188  2.0237  2.3225  2.1094
   22MOL   H16114483   0.983   3.014   5.051  0.7105 -0.1884  1.5341
   22MOL   H16214484   0.906   3.276   4.973  2.2130 -1.3991  2.1177
   22MOL   H16314485   0.792   3.146   4.958  0.1071  1.8044 -1.0468
   22MOL   H16414486   0.791   3.327   5.208  1.4286 -1.4904 -0.7215
   22MOL   H16514487   0.674   3.219   5.152  1.6402 -0.3630  0.9046
   22MOL   H16614488   0.710   3.423   4.942  0.0722  2.5803  1.4134
   22MOL   H16714489   0.584   3.312   4.977  0.8831 -1.9075  0.2115
   22MOL   H16814490   0.538   3.563   5.044 -0.1269 -0.2047 -1.0745
   22MOL   H16914491   0.658   3.526   5.175 -1.4059 -0.3667  2.1091
   22MOL   H17014492   0.532   3.351   5.281  1.4771 -1.0445 -0.8147
   22MOL   H17114493   0.428   3.344   5.138 -1.0792 -0.5752  2.4744
   22MOL   N17214494   0.314   3.469   5.371  0.5091  0.5731 -0.3848
   22MOL   C17314495   0.238   3.557   5.455 -0.1004  0.1908  0.4105
   22MOL   C17414496   0.134   3.477   5.534  0.4617 -0.6125 -0.8037
   22MOL   C17514497   0.044   3.563   5.640 -0.1771  0.4782  0.2789
   22MOL   C17614498   7.658   3.463   5.702  0.0385 -0.3581 -0.5106
   22MOL   C17714499   7.540   3.520   5.767  0.5733 -0.1744 -0.2092
   22MOL   C17814500   7.420   3.419   5.789 -0.0850 -0.3134 -0.5540
   22MOL   C17914501   7.313   3.481   5.881 -0.4380  1.1139  0.1458
   22MOL   C18014502   7.214   3.380   5.933 -0.1917  0.7875  0.8674
   22MOL   C18114503   7.110   3.434   6.028 -0.2824  0.4167  0.3830
   22MOL   C18214504   7.012   3.338   6.095 -0.5033  0.5432  0.0808
   22MOL   C18314505   6.922   3.255   6.002  0.2300  1.5189  0.1551
   22MOL   O18414506   6.981   3.192   5.911  0.2878 -0.0312 -0.1937
   22MOL   H18514507   0.320   3.373   5.402 -1.9287  1.0676  1.7909
   22MOL   H18614508   0.305   3.616   5.516 -2.1495  1.4455  1.4970
   22MOL   H18714509   0.175   3.621   5.394  0.9543  1.2249  0.3993
   22MOL   H18814510   0.172   3.382   5.573  2.0732  0.3022 -0.0788
   22MOL   H18914511   0.056   3.440   5.467 -0.0578 -2.4290  0.7451
   22MOL   H19014512   0.098   3.631   5.707 -0.2368  0.3836  0.4225
   22MOL   H19114513   7.704   3.640   5.586  0.5451  0.9266  0.1596
   22MOL   H19214514   7.714   3.396   5.766 -0.4954 -0.6937 -0.3951
   22MOL   H19314515   7.623   3.402   5.619 -0.6691 -1.3722  0.5276
   22MOL   H19414516   7.498   3.600   5.706 -0.2398 -1.4489 -1.3481
   22MOL   H19514517   7.570   3.562   5.863 -2.7476  0.5004  0.6168
   22MOL   H19614518   7.379   3.379   5.696  0.4525  0.7483 -1.2530
   22MOL   H19714519   7.471   3.337   5.840  2.0973  1.7044  0.6408
   22MOL   H19814520   7.254   3.559   5.833 -3.1814 -0.2980  1.1260
   22MOL   H19914521   7.355   3.525   5.971  0.3330 -0.5766  0.6528
   22MOL   H20014522   7.165   3.342   5.843  1.9502 -0.6688  0.2752
   22MOL   H20114523   7.257   3.287   5.969 -3.0929  0.1029  2.7670
   22MOL   H20214524   7.052   3.504   5.968 -0.5420 -0.1961 -0.0799
   22MOL   H20314525   7.162   3.487   6.108  2.5632 -0.9550 -0.5010
   22MOL   H20414526   6.948   3.396   6.162  0.0072  0.2515  0.8321
   22MOL   H20514527   7.074   3.280   6.164 -0.3845 -4.4833 -3.9492
   22MOL   N20614528   6.788   3.259   6.026 -0.2506  0.0456  0.1368
   22MOL   C20714529   6.683   3.205   5.942 -0.0334  0.0175 -0.1547
   22MOL   C20814530   6.578   3.144   6.039  0.3112  0.4996  0.3103
   22MOL   C20914531   6.451   3.120   5.964 -0.4023  0.4351  0.0838
   22MOL   C21014532   6.347   3.043   6.050  0.1545  0.0375 -0.0044
   22MOL   C21114533   6.311   3.116   6.178  0.0555  0.2611 -0.2675
   22MOL   C21214534   6.202   3.059   6.261  0.0182 -0.0101  0.1975
   22MOL   C21314535   6.200   3.092   6.410  0.0108  0.6268  0.3902
   22MOL   C21414536   6.155   2.969   6.502  0.2844 -0.6599  0.2133
   22MOL   C21514537   6.125   3.005   6.648  0.6829 -0.4775 -0.5328
   22MOL   C21614538   5.987   3.080   6.661  0.3286 -0.8321  0.3439
   22MOL   C21714539   5.940   3.122   6.792 -0.1292  0.0022 -0.3655
   22MOL   O21814540   6.019   3.160   6.881 -0.0838  0.1414  0.1963
   22MOL   H21914541   6.756   3.300   6.112  2.0870  0.1434  0.9960
   22MOL   H22014542   6.730   3.139   5.869  2.4202  0.8486  0.6213
   22MOL   H22114543   6.642   3.288   5.886  0.9848  0.9731  0.4967
   22MOL   H22214544   6.562   3.200   6.131  2.8769  0.5456  0.7688
   22MOL   H22314545   6.612   3.048   6.079  0.3213  0.4525  0.1889
   22MOL   H22414546   6.414   3.220   5.941  0.9936  1.0628  0.4935
   22MOL   H22514547   6.455   3.072   5.867 -2.1476 -2.5055  1.3962
   22MOL   H22614548   6.378   2.940   6.062 -2.8099 -0.8392  0.5953
   22MOL   H22714549   6.252   3.032   5.997 -1.0934  1.1002  1.9213
   22MOL   H22814550   6.307   3.223   6.154  0.9207  0.7547  1.6732
   22MOL   H22914551   6.404   3.117   6.234  0.0691 -0.1198 -0.2818
   22MOL   H23014552   6.106   3.091   6.220 -0.0427 -2.4418 -1.6339
   22MOL   H23114553   6.199   2.950   6.257  1.8888 -0.0463 -0.7891
   22MOL   H23214554   6.132   3.174   6.431 -0.3953  0.1416  0.9918
   22MOL   H23314555   6.294   3.141   6.436  0.9238  0.0077 -1.6557
   22MOL   H23414556   6.076   2.910   6.455  0.2133 -1.0311  0.7839
   22MOL   H23514557   6.237   2.898   6.493  0.0789 -0.6700 -1.6886
   22MOL   H23614558   6.202   3.074   6.683 -0.3126  1.4501 -2.0093
   22MOL   H23714559   6.123   2.915   6.709 -3.9064 -0.9017 -1.1136
   22MOL   H23814560   5.903   3.022   6.621  0.1598  0.2957 -0.9751
   22MOL   H23914561   5.980   3.170   6.599  1.7533  0.7564  2.4208
   22MOL   N24014562   5.808   3.106   6.824  0.5575 -0.3491  0.0404
   22MOL   C24114563   5.743   3.127   6.950 -0.1728 -0.2220 -0.1741
   22MOL   C24214564   5.763   2.998   7.035 -0.7661 -0.0369 -0.0991
   22MOL   C24314565   5.699   3.007   7.180  0.6321  0.5397  0.1505
   22MOL   C24414566   5.750   2.895   7.277 -0.6538 -0.8033 -0.3155
   22MOL   C24514567   5.729   2.754   7.232 -0.6386 -0.2674 -0.2626
   22MOL   C24614568   5.776   2.652   7.334 -0.2093 -0.2963  0.3678
   22MOL   C24714569   5.752   2.507   7.301  0.1373 -0.0705 -0.1558
   22MOL   C24814570   5.807   2.451   7.175  0.4482 -0.1914  0.7727
   22MOL   C24914571   5.778   2.301   7.153 -0.4859 -0.0064 -0.7743
   22MOL   C25014572   5.819   2.250   7.015  0.2241 -0.2677  0.3518
   22MOL   C25114573   5.947   2.172   7.003  0.4180  0.1678 -0.3156
   22MOL   O25214574   6.001   2.144   7.109 -0.3008 -0.1687  0.1199
   22MOL   H25314575   5.757   3.066   6.746  0.2347  1.8538 -0.9237
   22MOL   H25414576   5.636   3.129   6.928  0.2492  1.5062 -2.1673
   22MOL   H25514577   5.768   3.217   7.007  0.7132 -0.0418 -0.8380
   22MOL   H25614578   5.870   2.977   7.043 -1.0789 -0.6549  3.3389
   22MOL   H25714579   5.742   2.906   6.980  0.7074  1.0166 -2.5157
   22MOL   H25814580   5.721   3.105   7.221 -0.5297  0.0776  1.9461
   22MOL   H25914581   5.591   2.998   7.183  0.6597  0.2399  0.3464
   22MOL   H26014582   5.698   2.917   7.370  0.5583  1.8037 -0.2103
   22MOL   H26114583   5.856   2.905   7.300 -0.3592 -2.6332 -0.7872
   22MOL   H26214584   5.780   2.733   7.138 -0.7541  1.0916 -0.6364
   22MOL   H26314585   5.624   2.736   7.208 -1.0147  2.0713 -0.5383
   22MOL   H26414586   5.880   2.665   7.364 -0.5837 -0.8344  1.9638
   22MOL   H26514587   5.720   2.665   7.427  0.4969 -0.6915  0.8580
   22MOL   H26614588   5.645   2.488   7.311 -0.1128  1.7190  0.7836
   22MOL   H26714589   5.785   2.453   7.390  3.4223 -0.2802 -1.4193
   22MOL   H26814590   5.760   2.505   7.093  1.5241 -0.1421  0.1868
   22MOL   H26914591   5.915   2.468   7.180  0.4696 -0.6307  2.3973
   22MOL   H27014592   5.672   2.285   7.175 -0.9063  1.4629 -1.6966
   22MOL   H27114593   5.834   2.248   7.230 -0.3038  2.3204  0.7474
   22MOL   H27214594   5.822   2.329   6.940 -0.1318  0.3400  0.9721
   22MOL   H27314595   5.732   2.192   6.984 -0.3957  0.1610  1.2477
   22MOL   N27414596   5.990   2.134   6.890  0.8347  0.1294  0.1167
   22MOL   C27514597   6.121   2.078   6.860  0.0562 -0.2166 -0.5876
   22MOL   C27614598   6.226   2.182   6.819 -0.2462 -0.6405  0.1838
   22MOL   C27714599   6.370   2.143   6.776 -0.6652  0.8577 -0.4663
   22MOL   C27814600   6.445   2.259   6.720  0.0309  0.1096 -0.0624
   22MOL   C27914601   6.584   2.226   6.670  0.3012  0.2598  0.4627
   22MOL   C28014602   6.594   2.173   6.521 -0.7896 -0.8893  0.1993
   22MOL   C28114603   6.733   2.175   6.463 -0.5424 -0.0358 -0.3041
   22MOL   C28214604   6.747   2.152   6.310  0.2844 -0.3161 -0.4632
   22MOL   C28314605   6.886   2.104   6.246 -0.0286 -0.4596 -0.4800
   22MOL   C28414606   6.991   2.207   6.279  0.2716 -0.0226  0.2257
   22MOL   C28514607   7.003   2.326   6.187  0.4293 -1.0237  0.6205
   22MOL   O28614608   6.961   2.324   6.073 -0.0477  0.6220  0.1707
   22MOL   H28714609   5.925   2.134   6.813  0.2188 -1.2494  0.6221
   22MOL   H28814610   6.085   2.007   6.785 -0.3203 -0.5600 -0.0824
   22MOL   H28914611   6.154   2.019   6.945  0.0904 -0.6377 -0.8902
   22MOL   H29014612   6.240   2.257   6.897 -0.1730 -0.3545 -0.1045
   22MOL   H29114613   6.179   2.235   6.736 -2.7886  1.2426  2.7070
   22MOL   H29214614   6.414   2.103   6.867 -1.3110  0.8595 -0.1452
   22MOL   H29314615   6.356   2.066   6.700  1.1105 -1.7286  1.7459
   22MOL   H29414616   6.455   2.331   6.801 -1.5845  0.5815 -0.2524
   22MOL   H29514617   6.389   2.313   6.643  1.3935  2.6490  0.6927
   22MOL   H29614618   6.642   2.167   6.742 -3.1214 -2.4910  1.0776
   22MOL   H29714619   6.644   2.315   6.687  0.9179 -0.2601  1.0603
   22MOL   H29814620   6.561   2.069   6.520  1.4182 -1.6226  0.6231
   22MOL   H29914621   6.524   2.239   6.470 -1.3831  0.1426  2.2987
   22MOL   H30014622   6.786   2.092   6.510  0.7632  0.7258 -0.4265
   22MOL   H30114623   6.788   2.265   6.488  1.1523 -0.7646 -1.3302
   22MOL   H30214624   6.668   2.083   6.282  2.3246 -2.5050 -1.0130
   22MOL   H30314625   6.726   2.243   6.255 -1.1785 -0.9843 -1.0151
   22MOL   H30414626   6.878   2.086   6.138  1.8179 -2.6236 -0.3013
   22MOL   H30514627   6.921   2.008   6.284 -0.0840 -0.3248 -0.0858
   22MOL   H30614628   7.084   2.152   6.272  1.0695  1.4494 -1.0994
   22MOL   H30714629   6.967   2.241   6.380 -3.0715 -1.1951 -0.1018
   22MOL   N30814630   7.076   2.424   6.234  0.0048 -0.0563  0.1977
   22MOL   C30914631   7.109   2.547   6.158  0.4249  0.6256  0.5154
   22MOL   C31014632   7.097   2.672   6.241  0.1008  0.1871  0.5006
   22MOL   C31114633   7.098   2.804   6.153 -0.4961  0.1176 -0.1889
   22MOL   C31214634   7.075   2.939   6.226  0.7085  0.3726 -0.2933
   22MOL   C31314635   6.928   2.957   6.274 -0.1784 -0.4829 -0.4058
   22MOL   C31414636   6.901   3.070   6.370  0.4319  0.0813  0.1790
   22MOL   C31514637   6.760   3.063   6.431 -0.3057 -0.3625 -0.3576
   22MOL   C31614638   6.736   3.167   6.536  0.3196  0.1141 -0.3088
   22MOL   C31714639   6.593   3.163   6.589 -0.3762  1.0511 -0.2870
   22MOL   C31814640   6.574   3.225   6.731 -0.4301  0.8512  0.5140
   22MOL   C31914641   6.600   3.375   6.745  0.2038  0.0174  0.0495
   22MOL   O32014642   6.526   3.453   6.696 -0.2702 -0.1149  0.2343
   22MOL   H32114643   7.116   2.417   6.327  3.0587 -0.0840 -1.0642
   22MOL   H32214644   7.022   2.555   6.092 -0.4783 -0.3793  1.5579
   22MOL   H32314645   7.196   2.544   6.092 -1.5156  1.9551 -2.2334
   22MOL   H32414646   7.178   2.680   6.314 -1.1064 -3.2286  2.2890
   22MOL   H32514647   7.000   2.656   6.288 -0.0481 -0.5887 -0.0654
   22MOL   H32614648   7.192   2.796   6.098 -0.3570  0.1682  0.0440
   22MOL   H32714649   7.016   2.793   6.082 -0.1822 -0.8311 -0.4154
   22MOL   H32814650   7.104   3.029   6.170 -3.3817  2.3573  0.6024
   22MOL   H32914651   7.145   2.942   6.310 -1.9146 -0.4951  1.9690
   22MOL   H33014652   6.901   2.867   6.330 -0.8328 -0.1534 -0.1885
   22MOL   H33114653   6.854   2.946   6.195 -1.0430  2.4648 -0.0417
   22MOL   H33214654   6.979   3.062   6.446 -0.3199 -1.5624  0.7979
   22MOL   H33314655   6.922   3.163   6.318  0.4762 -1.2356 -2.2074
   22MOL   H33414656   6.741   2.968   6.481 -0.4313 -0.1486 -0.0027
   22MOL   H33514657   6.693   3.069   6.345  0.2943 -0.7339 -0.8618
   22MOL   H33614658   6.802   3.165   6.623 -2.9605  1.6683  2.3590
   22MOL   H33714659   6.751   3.266   6.494 -0.1218  0.7578  0.9987
   22MOL   H33814660   6.556   3.061   6.600  1.2692  0.7035  2.3127
   22MOL   H33914661   6.532   3.219   6.518 -0.2511  0.3060 -1.0088
   22MOL   H34014662   6.648   3.175   6.794  0.3953 -0.8771 -1.7639
   22MOL   H34114663   6.473   3.206   6.766 -0.2574  0.6723  0.9215
   22MOL   N34214664   6.706   3.413   6.805 -0.2809 -0.5409  0.1771
   22MOL   C34314665   6.744   3.545   6.810  0.1396 -0.6300 -0.3558
   22MOL   C34414666   6.874   3.573   6.883 -0.3063 -0.2921 -0.5306
   22MOL   C34514667   6.897   3.721   6.916 -0.9729  0.4744  0.0175
   22MOL   C34614668   7.046   3.753   6.950  0.2265  0.3357 -1.1794
   22MOL   C34714669   7.050   3.901   7.012  0.2984 -0.5537 -0.2163
   22MOL   C34814670   7.195   3.931   7.051 -0.0871  0.1714  0.8058
   22MOL   C34914671   7.199   4.024   7.177 -0.0306 -0.3878 -0.3021
   22MOL   C35014672   7.342   4.069   7.216  0.1422  0.5400  0.0975
   22MOL   C35114673   7.338   4.162   7.331 -0.5166 -0.1141  0.4385
   22MOL   C35214674   7.470   4.221   7.353  0.6550 -0.2526  0.9176
   22MOL   C35314675   7.501   4.341   7.262  0.5584 -0.1053  0.4171
   22MOL   O35414676   7.594   4.332   7.188 -0.1504 -0.3062  0.2985
   22MOL   H35514677   6.767   3.342   6.844  1.6280  0.7652 -0.3444
   22MOL   H35614678   6.748   3.593   6.712 -0.8429 -0.2010 -0.1922
   22MOL   H35714679   6.666   3.602   6.860  0.7969 -1.3766  1.5559
   22MOL   H35814680   6.953   3.532   6.821 -1.6530 -3.8068 -0.0248
   22MOL   H35914681   6.868   3.519   6.978  0.1643  0.0177 -0.3228
   22MOL   H36014682   6.874   3.777   6.825 -0.3991 -0.9851 -1.0579
   22MOL   H36114683   6.823   3.746   6.991 -2.1253 -1.8717 -0.2787
   22MOL   H36214684   7.117   3.745   6.868 -1.8138  0.8376 -3.0189
   22MOL   H36314685   7.086   3.678   7.019 -1.3603  0.4007 -0.1792
   22MOL   H36414686   6.985   3.913   7.099 -0.7725 -0.6959 -0.9849
   22MOL   H36514687   7.015   3.976   6.941  0.1493  1.2081  1.6782
   22MOL   H36614688   7.248   3.840   7.080  1.1835  1.3200  2.1770
   22MOL   H36714689   7.245   3.970   6.962 -0.9464 -1.2790 -0.3277
   22MOL   H36814690   7.155   3.976   7.264  0.1086 -0.4520 -0.2666
   22MOL   H36914691   7.138   4.112   7.159 -0.2190 -0.4767 -0.0821
   22MOL   H37014692   7.386   3.976   7.251 -0.1454  2.0995  4.9304
   22MOL   H37114693   7.394   4.095   7.124 -0.0645  0.4548 -0.0440
   22MOL   H37214694   7.297   4.120   7.423 -0.5328  0.2963  0.6209
   22MOL   H37314695   7.270   4.241   7.299 -0.9567 -1.3735 -1.8852
   22MOL   H37414696   7.544   4.141   7.346 -0.5297 -1.2942  0.0050
   22MOL   H37514697   7.472   4.259   7.455 -0.6699  2.2204  0.0673
   22MOL   N37614698   7.428   4.448   7.276  0.2927  0.7964 -0.3391
   22MOL   C37714699   7.429   4.568   7.194 -0.2224 -0.4673 -0.8098
   22MOL   C37814700   7.308   4.552   7.100 -0.4841  0.6461 -0.5237
   22MOL   C37914701   7.303   4.647   6.982  1.2640  0.1513 -0.0905
   22MOL   C38014702   7.179   4.651   6.895 -0.0020 -0.3976  0.5080
   22MOL   C38114703   7.212   4.721   6.757 -0.6789 -0.3931  0.4297
   22MOL   C38214704   7.096   4.709   6.669 -0.9145 -0.4465  0.4374
   22MOL   C38314705   7.088   4.574   6.601  0.2100 -0.2241  0.2905
   22MOL   C38414706   6.971   4.569   6.495  0.4783  0.3269  0.0565
   22MOL   C38514707   7.012   4.626   6.358  0.1053  0.4763 -0.2861
   22MOL   C38614708   6.902   4.629   6.253 -0.7399 -0.3117 -0.4637
   22MOL   C38714709   6.872   4.489   6.194 -0.3067  0.4531  0.7666
   22MOL   O38814710   6.904   4.386   6.253  0.1712 -0.2127  0.6216
   22MOL   H38914711   7.358   4.441   7.348 -0.3871  1.1095 -0.9732
   22MOL   H39014712   7.416   4.662   7.248  0.9179 -1.5688  1.4165
   22MOL   H39114713   7.517   4.560   7.131 -0.2871 -0.9159 -0.8449
   22MOL   H39214714   7.216   4.577   7.154 -0.4680 -0.5946  0.0939
   22MOL   H39314715   7.296   4.449   7.068 -2.2652  0.5864  0.2709
   22MOL   H39414716   7.335   4.748   7.007 -0.9111  0.6922  0.5797
   22MOL   H39514717   7.383   4.612   6.918  1.5837  0.1751  0.2925
   22MOL   H39614718   7.099   4.709   6.941 -0.3042 -0.9403  0.6669
   22MOL   H39714719   7.146   4.547   6.899 -1.1978 -0.0042  1.0319
   22MOL   H39814720   7.300   4.681   6.706  1.1371  1.9634  1.6450
   22MOL   H39914721   7.245   4.824   6.771  0.2950 -0.5725 -0.3870
   22MOL   H40014722   7.000   4.728   6.717 -0.5791  1.3496  0.4331
   22MOL   H40114723   7.114   4.785   6.592 -0.4041  0.5501  1.5240
   22MOL   H40214724   7.067   4.502   6.680  0.3250 -0.0416  0.4873
   22MOL   H40314725   7.179   4.548   6.547  2.0744  1.7162  2.3702
   22MOL   H40414726   6.932   4.468   6.484 -0.3593  0.8718 -2.2401
   22MOL   H40514727   6.892   4.631   6.539  1.8244  1.7318  0.5697
   22MOL   H40614728   7.095   4.571   6.313  1.5672  3.3272 -1.2723
   22MOL   H40714729   7.050   4.727   6.371 -0.2013  0.4026  1.2551
   22MOL   H40814730   6.938   4.679   6.163  2.0544 -0.6882  0.3899
   22MOL   H40914731   6.809   4.670   6.292 -1.2226 -2.1222  0.3467
   22MOL   N41014732   6.802   4.489   6.081 -0.4309 -0.3088 -0.0016
   22MOL   C41114733   6.771   4.374   6.000 -0.1125  1.1746 -0.2487
   22MOL   C41214734   6.640   4.312   6.061 -0.1366  0.4768 -0.2178
   22MOL   C41314735   6.620   4.172   6.004 -0.6602 -0.0080 -0.7422
   22MOL   C41414736   6.482   4.123   6.034  0.4002  0.0424  0.7157
   22MOL   C41514737   6.456   3.972   5.989  1.7668 -0.3726  0.2201
   22MOL   C41614738   6.501   3.872   6.090 -0.5231 -0.1332  0.3302
   22MOL   C41714739   6.481   3.728   6.031  0.6787  0.4757  0.0242
   22MOL   C41814740   6.544   3.631   6.122 -0.6878 -0.0072 -0.7211
   22MOL   C41914741   6.457   3.605   6.245 -0.3228 -0.3445  0.5552
   22MOL   C42014742   6.498   3.491   6.330 -0.3342 -0.3582  0.1049
   22MOL   C42114743   6.642   3.460   6.345 -0.0427 -0.9597 -0.9195
   22MOL   O42214744   6.685   3.369   6.280  0.4942 -0.0632  0.0287
   22MOL   H42314745   6.781   4.582   6.045  1.1248 -0.3237 -0.9918
   22MOL   H42414746   6.762   4.416   5.900  1.2736  2.0953  0.0161
   22MOL   H42514747   6.850   4.300   6.009 -0.5534  0.8287  0.8996
   22MOL   H42614748   6.559   4.378   6.030  1.3133  1.8122 -1.2657
   22MOL   H42714749   6.643   4.309   6.170  2.9553 -1.6585 -0.2735
   22MOL   H42814750   6.640   4.172   5.897  0.4812  1.4341 -0.5477
   22MOL   H42914751   6.696   4.101   6.037 -0.7573 -0.1517 -0.8266
   22MOL   H43014752   6.407   4.188   5.990 -1.8141 -0.1526  4.0004
   22MOL   H43114753   6.467   4.129   6.142  1.4573  1.9678  0.7882
   22MOL   H43214754   6.503   3.949   5.893  0.4931  0.2733 -0.5709
   22MOL   H43314755   6.348   3.961   5.982  1.4413  1.8215  1.4162
   22MOL   H43414756   6.608   3.893   6.090 -0.3256 -1.1218  0.4561
   22MOL   H43514757   6.459   3.895   6.188 -0.8659  1.3187 -0.1391
   22MOL   H43614758   6.522   3.714   5.931  0.0092  1.7093 -0.4361
   22MOL   H43714759   6.375   3.711   6.010  0.6651  0.7314 -0.1110
   22MOL   H43814760   6.558   3.541   6.063  1.7401 -1.3108  1.6961
   22MOL   H43914761   6.639   3.669   6.162 -1.7891 -0.1267  2.1651
   22MOL   H44014762   6.352   3.619   6.220  0.2148  1.3617 -0.8655
   22MOL   H44114763   6.459   3.694   6.309  1.5950  1.4714 -1.9100
   22MOL   H44214764   6.456   3.398   6.291  1.4929  0.0538 -3.0387
   22MOL   H44314765   6.457   3.502   6.430  1.1823  1.2406  0.5831
   22MOL   N44414766   6.720   3.534   6.426  0.1196  0.3899 -0.1652
   22MOL   C44514767   6.859   3.507   6.437  0.6162 -0.4226  0.2719
   22MOL   C44614768   6.932   3.635   6.471 -0.0645  0.7767 -0.0648
   22MOL   C44714769   7.076   3.612   6.516  0.3834  0.0436  0.7672
   22MOL   C44814770   7.156   3.734   6.556  0.6679  0.1186 -0.3578
   22MOL   C44914771   7.300   3.684   6.553  0.2870  0.9098  0.4136
   22MOL   C45014772   7.378   3.807   6.612 -0.3375  0.5948  0.3485
   22MOL   C45114773   7.535   3.791   6.600  0.8622 -0.1377 -0.3180
   22MOL   C45214774   7.611   3.897   6.679 -0.2292 -0.0543 -0.7487
   22MOL   C45314775   0.043   3.882   6.680 -0.3878  0.0691  0.2573
   22MOL   C45414776   0.109   4.000   6.757 -0.0298 -0.6161 -0.5461
   22MOL   C45514777   0.261   4.010   6.747 -0.2787  0.3275 -0.3115
   22MOL   O45614778   0.329   3.912   6.727  0.5304 -0.0319  0.0680
   22MOL   H45714779   6.684   3.608   6.485 -1.9287  1.1572 -2.2462
   22MOL   H45814780   6.884   3.432   6.512  1.3849  0.6971  1.1507
   22MOL   H45914781   6.903   3.465   6.347 -0.2933 -1.7143  0.4173
   22MOL   H46014782   6.876   3.681   6.552  1.1752  0.8158  0.7928
   22MOL   H46114783   6.941   3.709   6.391 -0.3915  0.4228 -0.4262
   22MOL   H46214784   7.075   3.538   6.597  0.0718 -1.0475 -0.2278
   22MOL   H46314785   7.113   3.568   6.423 -0.4558  1.7126 -0.3681
   22MOL   H46414786   7.117   3.785   6.644  0.5178 -0.2001 -0.2395
   22MOL   H46514787   7.153   3.807   6.475 -1.3124  1.2402  0.6910
   22MOL   H46614788   7.346   3.664   6.456 -1.0311  2.7315 -0.6169
   22MOL   H46714789   7.322   3.598   6.617 -0.8723 -0.1170 -0.5250
   22MOL   H46814790   7.352   3.903   6.567 -0.9561  0.3640  0.2229
   22MOL   H46914791   7.353   3.825   6.717 -0.6544 -0.7882  0.5140
   22MOL   H47014792   7.567   3.803   6.497 -0.2948 -0.0375 -0.6758
   22MOL   H47114793   7.572   3.691   6.619  2.5102  0.4856 -0.1588
   22MOL   H47214794   7.577   3.992   6.639  0.5312  0.3928 -0.3435
   22MOL   H47314795   7.571   3.902   6.780 -0.3962 -0.9054 -0.7660
   22MOL   H47414796   0.084   3.883   6.579 -0.1186 -0.7502  0.3491
   22MOL   H47514797   0.061   3.783   6.721  0.6564 -0.4194 -1.3168
   22MOL   H47614798   0.076   3.996   6.861  0.5044  0.5147 -0.3263
   22MOL   H47714799   0.056   4.090   6.724 -1.9588 -1.5747 -0.1287
   22MOL   N47814800   0.312   4.133   6.755  0.1161  0.1804 -0.2727
   22MOL   C47914801   0.457   4.178   6.754  0.9845 -0.2170  0.0200
   22MOL   C48014802   0.500   4.203   6.613 -0.3540 -0.4068 -0.5002
   22MOL   C48114803   0.654   4.182   6.589  0.2053  0.4671  0.0492
   22MOL   C48214804   0.692   4.239   6.457  0.4608  0.0007  0.6811
   22MOL   C48314805   0.836   4.224   6.431 -0.2086  0.1839 -0.0165
   22MOL   C48414806   0.870   4.097   6.361 -1.0165 -0.9053 -0.2300
   22MOL   C48514807   1.021   4.074   6.354 -0.6781 -0.0886  0.0669
   22MOL   C48614808   1.085   4.027   6.489  0.0408  0.2415 -0.1515
   22MOL   C48714809   1.235   4.024   6.494 -1.0321 -0.4687  0.4731
   22MOL   C48814810   1.306   4.155   6.507  0.4268 -0.0733 -0.6527
   22MOL   C48914811   1.445   4.143   6.560 -0.9537  0.4144  0.0834
   22MOL   O49014812   1.517   4.055   6.522  0.2030  0.0937  0.0968
   22MOL   H49114813   0.248   4.211   6.756 -0.1344 -0.0284  0.9302
   22MOL   H49214814   0.491   4.254   6.824  1.1526  0.8558 -1.2003
   22MOL   H49314815   0.512   4.088   6.780  0.7453 -1.2392 -2.8323
   22MOL   H49414816   0.474   4.308   6.597  0.5717 -0.3343 -1.6900
   22MOL   H49514817   0.452   4.140   6.539 -0.0929 -0.9001 -0.2488
   22MOL   H49614818   0.701   4.246   6.664  0.7123  0.9295 -0.6415
   22MOL   H49714819   0.686   4.078   6.591 -1.3570 -0.0323 -0.4024
   22MOL   H49814820   0.665   4.345   6.453  0.6128  0.0935  2.0257
   22MOL   H49914821   0.631   4.204   6.374  0.6933 -0.1353  0.5682
   22MOL   H50014822   0.899   4.237   6.519 -1.4690  3.3671  0.4600
   22MOL   H50114823   0.860   4.309   6.367  0.0099  0.4503  0.4194
   22MOL   H50214824   0.818   4.022   6.421 -0.9967 -1.1098 -0.4657
   22MOL   H50314825   0.835   4.094   6.258 -2.9493 -0.5317  0.4097
   22MOL   H50414826   1.077   4.155   6.308  1.3766 -2.1743 -1.2064
   22MOL   H50514827   1.044   3.993   6.285  0.3560 -1.0630  1.5312
   22MOL   H50614828   1.038   4.083   6.570  0.2016  1.1997 -0.7212
   22MOL   H50714829   1.056   3.924   6.513  2.2546 -1.0613 -2.8974
   22MOL   H50814830   1.282   3.976   6.408 -0.2929  1.0691 -0.0004
   22MOL   H50914831   1.267   3.959   6.574  0.6533 -0.4828 -0.2024
   22MOL   H51014832   1.244   4.222   6.567  1.1621 -0.0014  0.0285
   22MOL   H51114833   1.307   4.214   6.415 -1.0119  1.0308  0.0298
   22MOL   N51214834   1.490   4.238   6.645 -0.1488 -0.5591 -0.4107
   22MOL   C51314835   1.631   4.286   6.659 -0.2512  0.5202 -0.5822
   22MOL   C51414836   1.700   4.261   6.796  0.1017 -0.1691  0.4698
   22MOL   C51514837   1.850   4.291   6.802  0.2231  0.0609  0.8158
   22MOL   C51614838   1.906   4.285   6.947  0.4197 -0.3287  0.0557
   22MOL   C51714839   1.912   4.144   7.005  0.9763 -0.1476 -0.2816
   22MOL   C51814840   2.013   4.059   6.930 -0.2086  0.2687  0.3128
   22MOL   C51914841   2.158   4.088   6.975  0.1742  0.4289  0.1150
   22MOL   C52014842   2.244   3.970   6.936 -0.3178  0.5039  0.2113
   22MOL   C52114843   2.280   3.980   6.786  0.1111 -0.0952  0.6590
   22MOL   C52214844   2.386   3.884   6.737 -0.7670  0.2365 -0.0524
   22MOL   C52314845   2.433   3.909   6.595 -0.3768 -0.1722 -0.6704
   22MOL   O52414846   2.464   4.023   6.562  0.2051  0.4195  0.1463
   22MOL   H52514847   1.421   4.297   6.691 -1.7679 -2.1023 -0.8214
   22MOL   H52614848   1.687   4.249   6.573 -1.2882  0.1888 -1.1361
   22MOL   H52714849   1.631   4.391   6.631 -1.8970  0.7530  0.1969
   22MOL   H52814850   1.679   4.159   6.828 -0.3369  0.3962  2.0434
   22MOL   H52914851   1.642   4.325   6.862  0.2848  0.9467 -0.4369
   22MOL   H53014852   1.902   4.222   6.735 -2.5608 -2.2996  1.0184
   22MOL   H53114853   1.865   4.391   6.761 -1.1496 -0.2780 -0.5374
   22MOL   H53214854   1.841   4.345   7.010  1.3326  2.1095 -1.2415
   22MOL   H53314855   2.005   4.333   6.948  0.1867  0.1610 -0.1338
   22MOL   H53414856   1.808   4.112   6.996  0.7608 -0.0528  1.6772
   22MOL   H53514857   1.927   4.144   7.113  2.0775 -1.4517 -0.4282
   22MOL   H53614858   1.990   3.954   6.948  1.1676 -0.4514 -1.9718
   22MOL   H53714859   1.996   4.066   6.823  2.4891 -0.4816 -0.2004
   22MOL   H53814860   2.167   4.078   7.083  1.8545 -1.9372 -0.1900
   22MOL   H53914861   2.203   4.184   6.948  0.4114  0.0996 -0.6877
   22MOL   H54014862   2.340   3.980   6.986 -0.7705 -0.4498  1.3165
   22MOL   H54114863   2.194   3.876   6.960  0.0672  0.4579  0.8444
   22MOL   H54214864   2.314   4.080   6.759  0.3518 -0.5454 -0.7224
   22MOL   H54314865   2.203   3.967   6.711  1.0515 -0.0912 -0.3244
   22MOL   H54414866   2.349   3.783   6.753  3.0019 -1.2061 -0.0076
   22MOL   H54514867   2.471   3.895   6.804 -2.0496  0.3315  1.5826
   22MOL   N54614868   2.422   3.811   6.509 -0.1594 -0.4571  0.0810
   22MOL   C54714869   2.446   3.834   6.367 -0.2495  0.4882  0.3659
   22MOL   C54814870   2.514   3.711   6.302 -0.0075  0.3046  0.3117
   22MOL   C54914871   2.516   3.729   6.147 -0.0149 -0.3675 -1.0940
   22MOL   C55014872   2.577   3.620   6.069  0.4074 -0.9226  0.3575
   22MOL   C55114873   2.535   3.629   5.922 -0.1183 -0.6241  0.1008
   22MOL   C55214874   2.387   3.597   5.883 -0.0199  0.0083  0.6079
   22MOL   C55314875   2.366   3.593   5.730  0.1468 -0.6564 -0.3219
   22MOL   C55414876   2.214   3.584   5.680 -0.9822 -0.3288 -0.0045
   22MOL   C55514877   2.192   3.564   5.524 -0.8142 -0.2393 -0.7486
   22MOL   C55614878   2.267   3.669   5.440 -0.0601 -0.1324 -0.1488
   22MOL   C55714879   2.239   3.816   5.480  0.4540  0.3810  0.2291
   22MOL   O55814880   2.333   3.876   5.529 -1.0089 -0.4927 -0.4659
   22MOL   H55914881   2.394   3.718   6.537  0.3259 -0.3193  1.0295
   22MOL   H56014882   2.345   3.858   6.333 -0.5521 -0.9210  0.1953
   22MOL   H56114883   2.515   3.916   6.352  0.0871 -0.1163 -1.5575
   22MOL   H56214884   2.464   3.618   6.331  0.1113  0.8227  2.1926
   22MOL   H56314885   2.616   3.704   6.340 -0.0464 -1.4229  0.1542
   22MOL   H56414886   2.409   3.730   6.126 -0.0409  0.9645 -0.9517
   22MOL   H56514887   2.559   3.826   6.122  1.5297 -0.9909 -0.8716
   22MOL   H56614888   2.554   3.522   6.111  1.3591 -1.6616 -0.8119
   22MOL   H56714889   2.686   3.614   6.075  0.4024 -2.3683 -0.5282
   22MOL   H56814890   2.598   3.556   5.872  2.0370  0.4335  1.2002
   22MOL   H56914891   2.562   3.724   5.877 -0.7980  0.0438  1.0851
   22MOL   H57014892   2.353   3.505   5.931  2.4439 -0.2861  1.8616
   22MOL   H57114893   2.312   3.666   5.923  0.3565 -0.1755  1.6410
   22MOL   H57214894   2.435   3.522   5.685  0.3741 -0.2176 -0.6779
   22MOL   H57314895   2.402   3.690   5.694 -1.1380 -0.1593 -0.2893
   22MOL   H57414896   2.166   3.504   5.736 -0.0943 -0.6012  0.3594
   22MOL   H57514897   2.161   3.677   5.699 -0.8503 -0.2762  0.1024
   22MOL   H57614898   2.086   3.580   5.505 -1.1209  1.7205  2.2342
   22MOL   H57714899   2.222   3.463   5.496  0.8987 -0.0843  0.4267
   22MOL   H57814900   2.239   3.658   5.336  0.0598 -2.4253  0.0493
   22MOL   H57914901   2.375   3.655   5.433 -0.0157 -0.3905  0.8849
   22MOL   N58014902   2.115   3.869   5.469  0.5554 -0.0066  0.7887
   22MOL   C58114903   2.089   4.006   5.514 -1.2071  0.2979  0.1909
   22MOL   C58214904   1.950   4.062   5.482  0.6374  0.0696 -0.0406
   22MOL   C58314905   1.938   4.205   5.535 -0.9296 -0.1128 -0.0828
   22MOL   C58414906   1.819   4.293   5.480 -0.1596  0.5735  0.3342
   22MOL   C58514907   1.686   4.248   5.538  0.1010  0.2574  0.3237
   22MOL   C58614908   1.563   4.338   5.495  0.0923  0.8636  0.2430
   22MOL   C58714909   1.433   4.310   5.561  0.3384 -0.5245  0.1390
   22MOL   C58814910   1.350   4.200   5.489  0.5791 -0.1170 -0.2464
   22MOL   C58914911   1.202   4.208   5.522  0.3919  0.0155  0.5377
   22MOL   C59014912   1.116   4.102   5.454 -0.3898  0.1354 -0.1490
   22MOL   C59114913   0.969   4.120   5.496  0.0173  0.1093 -0.1070
   22MOL   O59214914   0.915   4.231   5.521 -0.2296 -0.5160 -0.1372
   22MOL   H59314915   2.046   3.811   5.423  1.5073  0.1514 -0.8899
   22MOL   H59414916   2.117   4.020   5.618  2.1127 -0.6900 -0.5088
   22MOL   H59514917   2.164   4.061   5.457 -0.5457 -1.9925 -1.1854
   22MOL   H59614918   1.873   3.999   5.528  1.0271 -0.9772 -0.8092
   22MOL   H59714919   1.937   4.071   5.374  0.8648  0.2777 -0.0504
   22MOL   H59814920   1.949   4.192   5.643  0.3305  1.2954 -0.0158
   22MOL   H59914921   2.031   4.254   5.504  0.7387 -2.6239  0.8237
   22MOL   H60014922   1.808   4.283   5.372 -1.9341  1.7581  0.3770
   22MOL   H60114923   1.826   4.400   5.499  0.2073  0.7184 -0.5776
   22MOL   H60214924   1.698   4.271   5.644 -0.6038 -0.3883  0.5487
   22MOL   H60314925   1.655   4.144   5.530  0.5302 -0.1419  3.1500
   22MOL   H60414926   1.585   4.444   5.508  0.8035  0.9754 -1.6584
   22MOL   H60514927   1.561   4.337   5.386  0.2541 -0.5729  0.2450
   22MOL   H60614928   1.377   4.404   5.569  1.1115 -0.2986  3.7472
   22MOL   H60714929   1.455   4.271   5.660  0.7429  0.1917  0.3348
   22MOL   H60814930   1.367   4.199   5.381 -0.4420  0.6476 -0.4262
   22MOL   H60914931   1.384   4.102   5.521  0.1350 -0.0159  0.5622
   22MOL   H61014932   1.163   4.309   5.506 -0.0231  0.1853  2.4795
   22MOL   H61114933   1.186   4.204   5.630 -0.7728 -0.5657  0.3487
   22MOL   H61214934   1.144   4.002   5.486 -1.7538 -0.4528 -0.7713
   22MOL   H61314935   1.119   4.105   5.345 -0.7293 -0.2769 -0.1701
   22MOL   N61414936   0.902   4.006   5.501  0.1506  0.3397  0.1419
   22MOL   C61514937   0.763   3.977   5.532 -0.1338  0.0157 -0.5998
   22MOL   C61614938   0.749   3.865   5.642  0.2920  0.3947  0.0464
   22MOL   C61714939   0.618   3.793   5.639  0.2412  0.8210 -0.3485
   22MOL   C61814940   0.592   3.686   5.747  0.6037  0.5891 -0.1254
   22MOL   C61914941   0.708   3.588   5.769 -0.4663 -0.0623  0.4169
   22MOL   C62014942   0.715   3.476   5.664 -0.4661  0.0615 -0.3744
   22MOL   C62114943   0.827   3.379   5.696  0.0335 -0.1491 -0.0944
   22MOL   C62214944   0.794   3.228   5.675  0.0716 -0.0338  0.9241
   22MOL   C62314945   0.917   3.138   5.684 -0.1451 -0.3351  0.2533
   22MOL   C62414946   0.883   2.985   5.683 -0.1979 -0.2898 -0.3296
   22MOL   C62514947   1.010   2.904   5.706  0.1293 -0.0391  0.4746
   22MOL   O62614948   1.087   2.938   5.799 -0.4948  0.3847 -0.5054
   22MOL   H62714949   0.947   3.920   5.473 -1.1819 -0.2852 -0.1463
   22MOL   H62814950   0.726   3.941   5.436  1.1655  1.6449 -1.7316
   22MOL   H62914951   0.705   4.068   5.549  0.8183  0.5401 -0.1165
   22MOL   H63014952   0.768   3.905   5.741  1.0275  0.3307 -0.0660
   22MOL   H63114953   0.826   3.790   5.622 -0.7533 -0.5090 -0.6937
   22MOL   H63214954   0.534   3.862   5.635  0.3442  0.8820 -1.8421
   22MOL   H63314955   0.612   3.743   5.542  2.5589  1.1431 -0.6898
   22MOL   H63414956   0.498   3.632   5.746 -0.0531  1.6924  0.5541
   22MOL   H63514957   0.585   3.746   5.838  0.2663  0.6886 -0.2190
   22MOL   H63614958   0.686   3.534   5.861  1.1432  1.0076  1.4650
   22MOL   H63714959   0.798   3.641   5.800 -0.1991 -1.3903  1.9697
   22MOL   H63814960   0.618   3.427   5.655 -0.8207  0.8625 -0.9129
   22MOL   H63914961   0.742   3.524   5.569 -0.7441  1.5453  0.2889
   22MOL   H64014962   0.874   3.400   5.792  0.3047 -2.3188  0.2729
   22MOL   H64114963   0.911   3.402   5.629 -0.0410 -2.4590 -1.0498
   22MOL   H64214964   0.725   3.196   5.753 -0.6132 -0.7409  0.0338
   22MOL   H64314965   0.743   3.207   5.582  2.4117  1.1858 -0.6865
   22MOL   H64414966   0.981   3.174   5.765 -1.7105 -1.1960  1.8965
   22MOL   H64514967   0.986   3.154   5.601 -0.6261 -0.3149 -0.1459
   22MOL   H64614968   0.837   2.946   5.592  1.7866 -0.2588 -1.3762
   22MOL   H64714969   0.813   2.970   5.765 -0.0899  1.0110  0.0063
   22MOL   N64814970   1.033   2.813   5.615  0.0932  0.2447 -0.4588
   22MOL   C64914971   1.152   2.723   5.619  0.7329 -0.4962  0.2894
   22MOL   C65014972   1.127   2.607   5.523 -0.3815  0.8394 -0.3410
   22MOL   C65114973   1.247   2.509   5.507 -0.1191  0.1758 -0.0394
   22MOL   C65214974   1.355   2.556   5.406 -0.4737 -0.3586 -0.7640
   22MOL   C65314975   1.493   2.477   5.410  0.4802  0.0393 -0.6571
   22MOL   C65414976   1.602   2.550   5.323  0.5175  0.3829  0.4214
   22MOL   C65514977   1.744   2.479   5.339 -0.0601  0.2824  0.2466
   22MOL   C65614978   1.807   2.480   5.476  0.1293  0.0184  0.3742
   22MOL   C65714979   1.837   2.624   5.522  0.5672  0.5509  0.1233
   22MOL   C65814980   1.885   2.646   5.667  0.3018 -0.2715 -0.5085
   22MOL   C65914981   1.778   2.600   5.771  0.1860  0.4339  0.6704
   22MOL   O66014982   1.728   2.682   5.846  0.2588 -0.2502  0.0693
   22MOL   H66114983   0.980   2.810   5.529 -0.3054 -1.6424 -0.1645
   22MOL   H66214984   1.185   2.684   5.715 -0.3565 -0.5058  0.6667
   22MOL   H66314985   1.226   2.791   5.576  0.2073  0.0629  0.2702
   22MOL   H66414986   1.086   2.643   5.429 -2.8192 -0.2639  0.2310
   22MOL   H66514987   1.046   2.544   5.562 -0.0914  0.5753 -0.1640
   22MOL   H66614988   1.286   2.480   5.604 -0.4029  0.6759  0.2260
   22MOL   H66714989   1.209   2.413   5.471  1.2776 -0.7457  0.8964
   22MOL   H66814990   1.376   2.663   5.412 -1.1956 -0.2896  0.9783
   22MOL   H66914991   1.316   2.527   5.308 -0.0700  1.1674 -1.3984
   22MOL   H67014992   1.476   2.380   5.362  2.1441 -0.4701 -0.2507
   22MOL   H67114993   1.522   2.459   5.513  1.0798  0.5885 -0.7307
   22MOL   H67214994   1.562   2.547   5.222  2.1119  1.0489 -0.2520
   22MOL   H67314995   1.599   2.653   5.358  2.9046  0.9939 -1.0803
   22MOL   H67414996   1.809   2.516   5.260 -0.7939  0.8757 -0.0876
   22MOL   H67514997   1.733   2.375   5.308 -0.0817  0.0881  0.8993
   22MOL   H67614998   1.744   2.434   5.552  0.9626  1.4636  1.9843
   22MOL   H67714999   1.903   2.429   5.471 -0.1605 -0.5329  0.4457
   22MOL   H67815000   1.750   2.687   5.503 -0.1026 -0.7797 -1.3771
   22MOL   H67915001   1.919   2.665   5.463 -1.1943  0.3568 -2.5382
   22MOL   H68015002   1.908   2.749   5.696 -1.2885  0.3946 -1.5739
   22MOL   H68115003   1.973   2.585   5.690  1.0598  1.4064  1.1367
   22MOL   H68215004   1.751   2.495   5.759 -0.9287  1.0341 -2.5099
   23MOL     N115005   0.181   7.678   0.106 -0.4693 -0.1360 -0.2019
   23MOL     C215006   0.197   7.541   0.152  0.0800  0.4014 -0.2240
   23MOL     C315007   0.075   7.446   0.145  0.6632  0.4773  0.0763
   23MOL     C415008   7.690   7.483   0.259 -0.0552 -0.2315  0.3387
   23MOL     C515009   7.572   7.387   0.265  0.0486 -0.3953 -0.6220
   23MOL     C615010   7.470   7.419   0.375  0.1836 -0.1751 -0.4301
   23MOL     C715011   7.359   7.309   0.377  0.3819  0.3738 -0.1920
   23MOL     C815012   7.264   7.317   0.502  0.0499  0.0283  0.8105
   23MOL     C915013   7.153   7.208   0.479 -0.4689  0.0077 -0.3023
   23MOL    C1015014   7.041   7.202   0.584 -0.0213  0.6458 -0.1034
   23MOL    C1115015   6.928   7.105   0.547 -0.2475 -0.0978 -0.6382
   23MOL    C1215016   6.815   7.164   0.457 -0.5861  1.3498 -0.0990
   23MOL    O1315017   6.840   7.276   0.419  0.1831 -0.6183  0.1224
   23MOL    H1415018   0.243   0.031   0.145 -1.2288 -0.8835  2.3839
   23MOL    H1515019   0.225   7.563   0.255 -2.1752  2.0346  0.0785
   23MOL    H1615020   0.282   7.489   0.108 -0.0040  0.8734 -0.9575
   23MOL    H1715021   0.110   7.346   0.169  0.7829  0.3857 -0.4687
   23MOL    H1815022   0.023   7.440   0.050  0.7261  2.1029 -0.0675
   23MOL    H1915023   0.024   7.492   0.355  1.1626 -0.3200 -0.2622
   23MOL    H2015024   7.647   7.582   0.248 -1.7726 -0.4616  4.2857
   23MOL    H2115025   7.627   7.294   0.274  0.6300  0.2033  2.9278
   23MOL    H2215026   7.512   7.381   0.174  2.3236  0.6381 -2.2229
   23MOL    H2315027   7.409   7.509   0.362  0.2461 -0.4211 -2.5867
   23MOL    H2415028   7.504   7.422   0.479 -2.0484 -2.9762  0.4638
   23MOL    H2515029   7.287   7.319   0.295  1.5458 -0.4978 -1.3405
   23MOL    H2615030   7.411   7.214   0.376  0.4521  0.3920  1.3949
   23MOL    H2715031   7.226   7.419   0.503  1.8023  0.7069 -0.5201
   23MOL    H2815032   7.334   7.298   0.583  0.5026 -0.5502  0.2860
   23MOL    H2915033   7.103   7.231   0.385 -1.7312  0.3213  0.4289
   23MOL    H3015034   7.200   7.110   0.469  0.4589  0.5291 -1.0425
   23MOL    H3115035   7.003   7.302   0.608 -1.7423 -0.3511  1.4498
   23MOL    H3215036   7.073   7.172   0.684  0.0387  3.3750  0.7556
   23MOL    H3315037   6.875   7.069   0.635  1.4722 -1.3111 -0.0575
   23MOL    H3415038   6.968   7.020   0.492 -0.1581 -0.8901  0.6363
   23MOL    H3515039   0.202   7.673   0.007 -2.0309 -1.0930 -0.5204
   23MOL    N3615040   6.699   7.095   0.451  0.3933 -0.5731 -0.4450
   23MOL    C3715041   6.569   7.154   0.416 -0.0978 -0.0969 -0.1454
   23MOL    C3815042   6.497   7.216   0.530 -0.9425  0.1052 -0.1167
   23MOL    C3915043   6.361   7.286   0.500 -0.1553  0.4860  0.8477
   23MOL    C4015044   6.271   7.327   0.614  0.5948  0.3623 -0.4730
   23MOL    C4115045   6.134   7.391   0.571  0.5445 -1.0572 -0.8855
   23MOL    C4215046   6.026   7.395   0.688 -0.6961 -1.1542  0.2398
   23MOL    C4315047   5.978   7.257   0.738 -0.4148  0.7787 -0.4145
   23MOL    C4415048   5.828   7.247   0.734  0.3717  0.0227 -0.8939
   23MOL    C4515049   5.786   7.103   0.756 -0.2687 -0.2871  0.0866
   23MOL    C4615050   5.637   7.076   0.757 -0.8551  0.1913  0.1687
   23MOL    C4715051   5.582   7.031   0.617 -0.3778 -0.4338 -0.1467
   23MOL    O4815052   5.627   7.083   0.513  0.3423  0.3066  0.0428
   23MOL    H4915053   6.698   7.001   0.487  1.4828 -0.1427  0.7194
   23MOL    H5015054   6.593   7.236   0.348 -1.1514 -0.3174 -0.7760
   23MOL    H5115055   6.508   7.086   0.358 -2.5462  2.2941 -0.4982
   23MOL    H5215056   6.561   7.291   0.576  0.4104 -0.4721 -1.0418
   23MOL    H5315057   6.488   7.121   0.583  2.3326  0.1092  0.5175
   23MOL    H5415058   6.389   7.378   0.449 -3.5705  3.2296  3.6554
   23MOL    H5515059   6.297   7.237   0.427  1.7665 -2.4537  1.0602
   23MOL    H5615060   6.316   7.363   0.707 -0.3115 -0.3144  0.2358
   23MOL    H5715061   6.256   7.228   0.656  0.7564  0.5167 -0.0437
   23MOL    H5815062   6.094   7.351   0.477 -1.8719  0.1610 -0.4116
   23MOL    H5915063   6.148   7.496   0.546  2.8927 -1.1738 -0.1652
   23MOL    H6015064   6.053   7.453   0.776  0.2962 -0.3096 -0.6015
   23MOL    H6115065   5.946   7.457   0.648  1.5937  1.9532  0.3310
   23MOL    H6215066   6.027   7.233   0.832 -0.5502  1.5232 -0.1508
   23MOL    H6315067   6.013   7.172   0.680 -0.5508  0.8279 -0.5696
   23MOL    H6415068   5.789   7.326   0.798 -0.0204 -1.0168  0.1586
   23MOL    H6515069   5.798   7.281   0.635  1.1389  1.7167 -0.5652
   23MOL    H6615070   5.808   7.077   0.860 -2.0411 -1.1454  0.2647
   23MOL    H6715071   5.835   7.038   0.683  1.3787  2.5254 -1.3849
   23MOL    H6815072   5.586   7.167   0.789 -0.6118  1.7377 -3.5779
   23MOL    H6915073   5.616   7.000   0.832 -4.3241  1.5440  0.6751
   23MOL    N7015074   5.490   6.928   0.610 -0.2937 -0.0335 -0.5324
   23MOL    C7115075   5.432   6.872   0.491  0.2222  0.0378  0.7177
   23MOL    C7215076   5.519   6.760   0.426  0.0272 -0.2207 -0.3416
   23MOL    C7315077   5.461   6.680   0.311 -0.2917 -0.8546  0.9218
   23MOL    C7415078   5.578   6.604   0.234  0.3392  0.2955  0.0780
   23MOL    C7515079   5.645   6.694   0.125 -0.0640 -0.1720  0.8520
   23MOL    C7615080   5.760   6.615   0.056 -0.3424 -0.6959  0.6543
   23MOL    C7715081   5.876   6.578   0.148 -0.8725 -0.4654  0.2485
   23MOL    C7815082   6.000   6.534   0.075  0.3408  0.0260 -1.0546
   23MOL    C7915083   6.135   6.561   0.151  0.1634  0.4570  0.1691
   23MOL    C8015084   6.253   6.491   0.081 -0.2922  1.0873 -0.0794
   23MOL    C8115085   6.384   6.488   0.160 -0.1527  0.2036 -0.1838
   23MOL    O8215086   6.382   6.481   0.288  0.5422 -0.1340  0.1241
   23MOL    H8315087   5.465   6.883   0.697 -2.7227 -0.2674 -1.3331
   23MOL    H8415088   5.337   6.828   0.519 -1.0865  1.3422 -1.5144
   23MOL    H8515089   5.406   6.958   0.430 -1.0593 -0.8642 -0.0315
   23MOL    H8615090   5.557   6.695   0.504  1.7363 -0.0320 -0.9901
   23MOL    H8715091   5.599   6.825   0.391 -0.5609  1.6910  1.7377
   23MOL    H8815092   5.393   6.612   0.362 -0.7777  0.6387  2.2823
   23MOL    H8915093   5.395   6.736   0.246  0.8767  1.0089  1.3131
   23MOL    H9015094   5.538   6.510   0.197  0.3460  0.0962  0.5694
   23MOL    H9115095   5.652   6.577   0.309  0.0555  1.1963  0.7000
   23MOL    H9215096   5.680   6.790   0.165 -1.0821  0.3334  0.5443
   23MOL    H9315097   5.563   6.714   0.057 -0.6443 -2.1874  0.9384
   23MOL    H9415098   5.737   6.528   7.709  2.3952  0.5182 -2.1690
   23MOL    H9515099   5.798   6.676   7.690 -1.1435 -0.0625  0.7535
   23MOL    H9615100   5.854   6.504   0.225 -1.6805  0.5696  1.0409
   23MOL    H9715101   5.905   6.660   0.214  0.7927 -1.5894  0.9233
   23MOL    H9815102   6.004   6.426   0.062 -0.9968 -0.0409 -0.9970
   23MOL    H9915103   6.018   6.580   7.693 -0.2810 -0.7233 -1.5264
   23MOL   H10015104   6.114   6.526   0.252  0.5579  2.6521  1.0340
   23MOL   H10115105   6.150   6.668   0.167  2.3108  0.6888 -2.8042
   23MOL   H10215106   6.280   6.537   7.702  0.0357  1.2230  0.0796
   23MOL   H10315107   6.232   6.385   0.066  0.2134  0.6233  2.2623
   23MOL   N10415108   6.499   6.486   0.091 -0.0885  0.3799 -0.4741
   23MOL   C10515109   6.631   6.475   0.155  0.3224 -0.4360  0.5004
   23MOL   C10615110   6.698   6.610   0.150  0.1266 -0.2921 -0.3189
   23MOL   C10715111   6.833   6.614   0.236  0.8730  0.9975 -0.2666
   23MOL   C10815112   6.876   6.761   0.262  0.3547 -0.2405  0.0574
   23MOL   C10915113   7.033   6.774   0.282 -0.1182  0.0324  0.3215
   23MOL   C11015114   7.120   6.749   0.159 -0.0208 -0.0579 -0.1345
   23MOL   C11115115   7.254   6.825   0.154  0.2651  0.1486  0.8193
   23MOL   C11215116   7.246   6.961   0.098  0.0187  0.7436 -0.8633
   23MOL   C11315117   7.393   7.006   0.070  0.5805 -0.0502  0.7348
   23MOL   C11415118   7.396   7.137   7.701 -0.2375 -0.3883 -0.1329
   23MOL   C11515119   7.539   7.192   7.664  0.2464 -0.2948  0.3780
   23MOL   O11615120   7.631   7.134   0.006 -0.2699 -0.6297 -0.0328
   23MOL   H11715121   6.487   6.489   7.706  0.1131 -0.4786 -0.5245
   23MOL   H11815122   6.623   6.442   0.258 -3.0294  0.8106  0.7296
   23MOL   H11915123   6.686   6.396   0.104  2.7472  2.2356 -1.1562
   23MOL   H12015124   6.623   6.676   0.193 -2.2609 -2.4864 -0.9451
   23MOL   H12115125   6.718   6.646   0.049 -1.6303  1.1827 -0.1702
   23MOL   H12215126   6.806   6.568   0.332  1.8311  0.6574 -0.1460
   23MOL   H12315127   6.906   6.542   0.199  0.1705  0.1772 -0.0714
   23MOL   H12415128   6.826   6.791   0.354  0.4313 -0.2603  0.1055
   23MOL   H12515129   6.845   6.818   0.174 -0.0431  0.1235  0.4364
   23MOL   H12615130   7.059   6.711   0.367 -0.0928  0.6277  0.7589
   23MOL   H12715131   7.046   6.881   0.299  0.2597  0.0902 -0.3262
   23MOL   H12815132   7.140   6.642   0.155  1.7719  0.1694  1.5556
   23MOL   H12915133   7.067   6.784   0.071  0.5214 -0.5185 -0.6473
   23MOL   H13015134   7.326   6.764   0.101 -1.2689 -2.1707  1.3461
   23MOL   H13115135   7.303   6.848   0.249 -0.8505  3.2307  0.7225
   23MOL   H13215136   7.178   6.968   0.013 -0.4797 -0.7068 -0.5933
   23MOL   H13315137   7.193   7.019   0.174 -0.3153  0.0155 -0.5344
   23MOL   H13415138   7.449   6.923   0.030  2.2368  1.0091  0.8223
   23MOL   H13515139   7.430   7.027   0.171 -0.3307 -0.1278  1.0909
   23MOL   H13615140   7.334   7.207   0.041  0.2838  1.7843 -2.1753
   23MOL   H13715141   7.337   7.110   7.613 -0.1898 -3.5229  0.7458
   23MOL   N13815142   7.548   7.287   7.571 -0.0097 -0.2235 -0.3643
   23MOL   C13915143   7.677   7.328   7.518 -0.5123 -0.2225 -0.4535
   23MOL   C14015144   7.703   7.253   7.392 -0.6104  0.1349  0.1233
   23MOL   C14115145   0.043   7.110   7.413 -1.0304 -0.0503  0.1329
   23MOL   C14215146   0.112   7.064   7.284  0.0864 -0.3655  0.0055
   23MOL   C14315147   0.123   6.913   7.287  0.0398 -0.5738 -1.1880
   23MOL   C14415148   0.219   6.861   7.191 -0.1631  0.1977 -0.0874
   23MOL   C14515149   0.224   6.706   7.188 -0.4323 -0.0425 -0.0424
   23MOL   C14615150   0.287   6.646   7.058 -0.6111 -0.2035  0.6484
   23MOL   C14715151   0.428   6.690   7.008 -0.3638  0.3602  0.3446
   23MOL   C14815152   0.544   6.597   7.064 -0.3098 -0.1910 -0.2370
   23MOL   C14915153   0.545   6.605   7.223  0.2392  0.4026  0.2171
   23MOL   O15015154   0.528   6.716   7.277 -0.6188  0.2209 -0.0868
   23MOL   H15115155   7.461   7.326   7.537  0.0338  0.9787  0.8775
   23MOL   H15215156   7.659   7.432   7.492 -0.4654  0.1010  0.7852
   23MOL   H15315157   0.049   7.316   7.582 -0.6596  0.4389 -0.1208
   23MOL   H15415158   0.073   7.298   7.341 -1.2665 -0.3965 -1.5030
   23MOL   H15515159   7.614   7.262   7.329 -1.3411 -0.2925  1.0926
   23MOL   H15615160   0.093   7.104   7.510  0.3513  0.4813 -0.5469
   23MOL   H15715161   7.675   7.041   7.429 -0.6430 -1.1573 -2.4295
   23MOL   H15815162   0.206   7.119   7.281 -0.8965  1.5373  2.1041
   23MOL   H15915163   0.042   7.093   7.205  0.6830 -0.3465 -0.5126
   23MOL   H16015164   0.029   6.859   7.272 -2.0126  1.9773  1.7696
   23MOL   H16115165   0.155   6.887   7.388  0.4722  0.0248 -1.1691
   23MOL   H16215166   0.195   6.903   7.093 -0.1309  2.4887  0.8585
   23MOL   H16315167   0.322   6.893   7.206 -0.4867  1.2384 -0.0878
   23MOL   H16415168   0.124   6.665   7.202 -0.1353 -0.0355  2.3673
   23MOL   H16515169   0.275   6.669   7.277 -0.1100 -0.4011 -0.3726
   23MOL   H16615170   0.288   6.537   7.063  0.6208 -0.1484  2.0555
   23MOL   H16715171   0.222   6.657   6.971  0.8986 -2.5984 -0.8517
   23MOL   H16815172   0.447   6.796   7.026  0.7389  0.0530  1.0214
   23MOL   H16915173   0.421   6.680   6.900  2.0827 -2.3627  0.3591
   23MOL   H17015174   0.644   6.624   7.029 -0.2320  0.9761  0.8641
   23MOL   H17115175   0.533   6.495   7.025  2.6269  0.5806 -3.3678
   23MOL   N17215176   0.551   6.488   7.285  0.4594 -0.8797  0.4882
   23MOL   C17315177   0.535   6.472   7.427 -0.0119  0.4846  0.0471
   23MOL   C17415178   0.393   6.441   7.453  0.1195 -0.3983  0.3479
   23MOL   C17515179   0.379   6.380   7.586  0.0392 -0.0182 -0.8964
   23MOL   C17615180   0.234   6.348   7.621 -0.3266 -0.1663 -0.1957
   23MOL   C17715181   0.229   6.261   0.034 -0.2304  0.5191 -1.0279
   23MOL   C17815182   0.238   6.110   0.021  0.1129  0.2270  0.2044
   23MOL   C17915183   0.228   6.034   0.158 -0.0849  0.6986  0.7578
   23MOL   C18015184   0.101   6.050   0.237 -0.8238 -0.1595 -0.1185
   23MOL   C18115185   0.077   5.945   0.351 -0.3648  0.2748  0.5292
   23MOL   C18215186   7.648   5.935   0.395 -0.1882 -0.8640 -0.0645
   23MOL   C18315187   7.553   5.845   0.308  0.5932 -0.3008 -0.1195
   23MOL   O18415188   7.545   5.728   0.331  0.3918  0.5900 -0.3600
   23MOL   H18515189   0.567   6.405   7.229 -0.0664 -0.6449 -0.0185
   23MOL   H18615190   0.594   6.388   7.464 -1.5503 -0.1897  1.0010
   23MOL   H18715191   0.571   6.562   7.476  1.7009 -0.3373  0.3674
   23MOL   H18815192   0.366   6.369   7.376  2.9804 -1.8805  0.6656
   23MOL   H18915193   0.329   6.529   7.440 -0.2395 -0.8540 -1.1433
   23MOL   H19015194   0.416   6.278   7.580 -3.7800 -1.4713 -1.1572
   23MOL   H19115195   0.420   6.443   7.665  2.1673 -0.7267 -1.4072
   23MOL   H19215196   0.173   6.295   7.549  0.1184 -0.4023 -0.4044
   23MOL   H19315197   0.179   6.439   7.643 -1.3752 -0.5452 -1.2205
   23MOL   H19415198   0.135   6.278   0.087 -0.8781 -0.7189 -1.7460
   23MOL   H19515199   0.305   6.301   0.101  0.0988 -1.1204 -0.4140
   23MOL   H19615200   0.166   6.072   7.664  0.1955 -1.6842  1.0889
   23MOL   H19715201   0.340   6.099   7.701 -0.6052 -0.2499 -1.7704
   23MOL   H19815202   0.303   6.081   0.221  1.2578  1.5024 -1.3945
   23MOL   H19915203   0.230   5.926   0.143 -3.7835  0.4420  1.7623
   23MOL   H20015204   0.103   6.148   0.284 -1.9841  0.7635 -1.9350
   23MOL   H20115205   0.024   6.035   0.161 -0.0290  0.3564 -1.0402
   23MOL   H20215206   0.145   5.976   0.429  0.5473 -2.2891  0.7767
   23MOL   H20315207   0.104   5.846   0.315 -0.7877 -0.4963  2.3071
   23MOL   H20415208   7.603   6.033   0.406 -1.5442 -1.5248  0.5043
   23MOL   H20515209   7.649   5.897   0.497 -2.1404 -0.0656  0.2731
   23MOL   N20615210   7.482   5.904   0.210 -0.0163  0.6534  0.1942
   23MOL   C20715211   7.415   5.835   0.102  0.8925 -0.0001 -0.1841
   23MOL   C20815212   7.269   5.820   0.122  0.8394  0.0161  0.3515
   23MOL   C20915213   7.205   5.760   7.710  0.6048 -0.1690  0.2286
   23MOL   C21015214   7.183   5.870   7.592 -0.2464 -0.2149  0.7291
   23MOL   C21115215   7.101   5.826   7.466  0.0599  0.5567  0.2759
   23MOL   C21215216   7.031   5.947   7.394  0.1460  0.5222  0.5788
   23MOL   C21315217   6.929   5.907   7.290 -0.5729 -0.1050 -0.3954
   23MOL   C21415218   7.006   5.851   7.171  0.3451 -0.2443 -0.8059
   23MOL   C21515219   6.911   5.820   7.049  0.6559  0.2724 -0.5348
   23MOL   C21615220   6.830   5.689   7.057 -0.1351 -0.8790  0.1944
   23MOL   C21715221   6.898   5.561   7.011 -0.0480  0.2133  0.2646
   23MOL   O21815222   7.012   5.568   6.969  0.5096  0.5080 -0.1306
   23MOL   H21915223   7.499   6.002   0.196  0.5018  1.1303  3.7075
   23MOL   H22015224   7.466   5.740   0.087  0.8406  0.1809 -1.5691
   23MOL   H22115225   7.443   5.893   0.014 -0.4298 -0.0782 -0.6641
   23MOL   H22215226   7.223   5.914   0.152  1.8543  0.7112 -0.2510
   23MOL   H22315227   7.261   5.755   0.209  1.1691  0.2434  0.5530
   23MOL   H22415228   7.264   5.677   7.672  2.5699  1.4839 -0.4491
   23MOL   H22515229   7.106   5.722   0.017  0.4418 -0.9014 -1.6155
   23MOL   H22615230   7.278   5.904   7.551 -0.8375  1.4687  0.7133
   23MOL   H22715231   7.148   5.965   7.631 -0.3735  0.5860 -1.2633
   23MOL   H22815232   7.027   5.760   7.511 -0.0647  0.8586  0.5128
   23MOL   H22915233   7.162   5.780   7.388  0.3022  1.7389 -0.2459
   23MOL   H23015234   6.985   6.009   7.471 -1.0814  1.5649 -0.9380
   23MOL   H23115235   7.111   6.012   7.358  0.7219  0.8858  2.4644
   23MOL   H23215236   6.859   5.981   7.252 -1.4131 -0.3036  0.7459
   23MOL   H23315237   6.860   5.835   7.333  0.4371  0.0793  1.6115
   23MOL   H23415238   7.083   5.923   7.146 -1.1034  2.1380  1.4001
   23MOL   H23515239   7.060   5.759   7.192  1.3423  1.2734  3.7645
   23MOL   H23615240   6.971   5.807   6.959  0.1657  2.0211 -1.1272
   23MOL   H23715241   6.851   5.909   7.031 -1.9639 -1.1259  1.0928
   23MOL   H23815242   6.741   5.702   6.994  0.5583 -0.7192 -0.7714
   23MOL   H23915243   6.812   5.677   7.163 -2.4936  0.2973 -0.0395
   23MOL   N24015244   6.824   5.452   6.998  0.0603  0.3274  0.2771
   23MOL   C24115245   6.893   5.325   6.970 -0.3668 -0.1830  0.4407
   23MOL   C24215246   6.806   5.199   6.988  0.8077 -0.3766 -0.3829
   23MOL   C24315247   6.773   5.170   7.140  0.4441  0.1216  0.1579
   23MOL   C24415248   6.887   5.119   7.235 -0.0115 -0.0147 -0.0200
   23MOL   C24515249   6.950   4.992   7.193 -0.0235 -0.0144 -0.2286
   23MOL   C24615250   7.007   4.907   7.308  0.2689  0.5802 -0.6053
   23MOL   C24715251   7.064   4.775   7.261  0.3891 -0.1685  0.1352
   23MOL   C24815252   7.069   4.665   7.371 -0.2903 -0.6552  0.0183
   23MOL   C24915253   7.191   4.692   7.464 -0.3927  0.3005 -0.5739
   23MOL   C25015254   7.191   4.623   7.598 -0.4900 -0.1857 -0.5366
   23MOL   C25115255   7.185   4.466   7.592  0.1404  0.5780  0.3833
   23MOL   O25215256   7.273   4.411   7.530  0.1289  0.2827 -0.0040
   23MOL   H25315257   6.730   5.453   7.035  0.1308  0.7399  0.4514
   23MOL   H25415258   6.971   5.311   7.046  0.4233  0.4983 -0.2370
   23MOL   H25515259   6.938   5.328   6.871  1.6540 -0.0768  1.3283
   23MOL   H25615260   6.856   5.110   6.949  1.9840 -0.4313  1.1795
   23MOL   H25715261   6.713   5.211   6.932  1.0922  0.3817 -0.6961
   23MOL   H25815262   6.722   5.254   7.187 -0.2550 -0.8097  1.0887
   23MOL   H25915263   6.707   5.084   7.146 -0.7122  0.9858 -0.0240
   23MOL   H26015264   6.850   5.107   7.337  2.7200 -0.1589  0.9858
   23MOL   H26115265   6.976   5.179   7.250 -0.3841  0.1539  1.6499
   23MOL   H26215266   7.020   5.008   7.111  1.4547 -0.3605  0.9260
   23MOL   H26315267   6.866   4.944   7.143 -1.7379  2.8256 -0.1874
   23MOL   H26415268   7.086   4.958   7.364 -1.0402  1.6498  0.3157
   23MOL   H26515269   6.929   4.891   7.383  0.1501  0.5697 -0.7303
   23MOL   H26615270   7.165   4.786   7.224  0.4905 -2.7252 -0.4607
   23MOL   H26715271   7.007   4.737   7.176  1.6045 -1.7709  0.0157
   23MOL   H26815272   6.973   4.681   7.421 -0.1342  2.1083 -0.5076
   23MOL   H26915273   7.066   4.561   7.339 -1.0981 -0.3079 -1.0807
   23MOL   H27015274   7.205   4.799   7.481  0.9454  0.1582 -0.7734
   23MOL   H27115275   7.283   4.658   7.417  1.9202  4.1219  0.9572
   23MOL   H27215276   7.105   4.661   7.652 -0.8763  0.8096 -1.8153
   23MOL   H27315277   7.281   4.656   7.649  0.4270 -0.8486 -1.7007
   23MOL   N27415278   7.095   4.392   7.668 -0.1115  0.3490  1.0466
   23MOL   C27515279   7.078   4.249   7.663  1.2552  0.2708 -0.6430
   23MOL   C27615280   7.150   4.176   0.060  0.3459  0.5592  0.6368
   23MOL   C27715281   7.062   4.170   0.187  0.4380 -0.4660  0.4664
   23MOL   C27815282   7.126   4.104   0.304  0.2196 -0.6029 -1.0863
   23MOL   C27915283   7.046   4.142   0.434 -0.3285 -0.1520 -0.0587
   23MOL   C28015284   7.109   4.080   0.558  0.3360  0.3573  0.1608
   23MOL   C28115285   7.227   4.162   0.607 -0.4736  0.4663 -0.4742
   23MOL   C28215286   7.297   4.109   0.734 -0.1949 -0.2851  0.5340
   23MOL   C28315287   7.215   4.140   0.865 -0.1228  0.1631  0.1426
   23MOL   C28415288   7.279   4.111   1.011  0.0592 -0.0889 -0.7178
   23MOL   C28515289   7.378   4.220   1.066 -0.0687 -0.7332  0.8439
   23MOL   O28615290   7.436   4.289   0.983  0.1186 -0.0917  0.1230
   23MOL   H28715291   7.027   4.456   7.704 -1.7648  0.0140 -1.3505
   23MOL   H28815292   7.100   4.215   7.562  1.1922  0.5892 -0.7666
   23MOL   H28915293   6.972   4.230   7.677  1.6646 -1.3574  0.3641
   23MOL   H29015294   7.245   4.229   0.070  0.5257  0.8392 -2.0929
   23MOL   H29115295   7.164   4.074   0.026 -0.8191  0.7049 -0.3413
   23MOL   H29215296   7.029   4.270   0.215  2.3994  1.4836 -3.7590
   23MOL   H29315297   6.963   4.125   0.175 -0.8339  2.0921  0.9543
   23MOL   H29415298   7.231   4.130   0.315 -0.2079  0.2583  1.3182
   23MOL   H29515299   7.128   3.996   0.287  1.2941 -1.0657  1.6254
   23MOL   H29615300   6.953   4.085   0.437  0.0212 -0.7474 -0.2922
   23MOL   H29715301   7.043   4.250   0.450 -0.4573 -0.3977  1.6150
   23MOL   H29815302   7.032   4.065   0.634  0.5190 -0.3299  0.2219
   23MOL   H29915303   7.144   3.977   0.547 -0.5957 -0.0637  0.9960
   23MOL   H30015304   7.193   4.261   0.635  1.5085  1.5534 -1.7507
   23MOL   H30115305   7.307   4.174   0.533 -0.7648 -3.6940 -1.5990
   23MOL   H30215306   7.314   4.003   0.716  0.8907  0.1853 -1.4192
   23MOL   H30315307   7.396   4.152   0.750 -0.7523  0.3730  2.2831
   23MOL   H30415308   7.125   4.078   0.861 -0.7367  1.0625 -0.5627
   23MOL   H30515309   7.177   4.243   0.870  0.2525  0.3130 -0.0746
   23MOL   H30615310   7.325   4.012   1.018  2.5628  1.1020  0.1556
   23MOL   H30715311   7.196   4.104   1.082  0.6182  4.6703  0.5317
   23MOL   N30815312   7.390   4.236   1.196 -0.2276 -0.3561  0.0898
   23MOL   C30915313   7.447   4.362   1.243  0.1183 -0.5142 -0.2795
   23MOL   C31015314   7.367   4.487   1.207 -0.0928 -0.3924 -0.2500
   23MOL   C31115315   7.408   4.617   1.287 -0.4053 -0.0422 -0.6871
   23MOL   C31215316   7.331   4.741   1.266 -0.0244 -0.0611 -0.5044
   23MOL   C31315317   7.414   4.867   1.320  0.1249 -0.5026  0.0419
   23MOL   C31415318   7.313   4.992   1.332 -0.9654  0.6819  0.1200
   23MOL   C31515319   7.250   5.031   1.196 -0.1841 -0.2851  0.0240
   23MOL   C31615320   7.164   5.153   1.212  0.0510  0.4625 -0.3096
   23MOL   C31715321   7.093   5.203   1.075 -0.5646  1.0571  0.2583
   23MOL   C31815322   6.963   5.282   1.104 -0.1525  0.6723  0.2511
   23MOL   C31915323   6.841   5.194   1.107 -0.1621  0.1581 -0.1862
   23MOL   O32015324   6.849   5.070   1.097 -0.1668  0.1513  0.5263
   23MOL   H32115325   7.358   4.171   1.266  2.3231 -0.2045  1.4578
   23MOL   H32215326   7.548   4.389   1.209  0.6614 -0.7928  1.1173
   23MOL   H32315327   7.453   4.360   1.351 -1.4321  0.7079 -0.1531
   23MOL   H32415328   7.260   4.470   1.207 -0.3401  1.0633 -0.3398
   23MOL   H32515329   7.402   4.504   1.105  2.3672  0.5871  0.7030
   23MOL   H32615330   7.420   4.601   1.394 -3.7653  1.3717 -0.0286
   23MOL   H32715331   7.509   4.636   1.251 -0.8048  0.2567 -1.6728
   23MOL   H32815332   7.226   4.743   1.293 -0.3358 -2.6751 -1.4421
   23MOL   H32915333   7.321   4.774   1.162 -1.9305  1.9945  0.2745
   23MOL   H33015334   7.495   4.897   1.254  1.0887 -1.3015  0.8385
   23MOL   H33115335   7.464   4.849   1.415  0.2850 -0.2624  0.0033
   23MOL   H33215336   7.236   4.980   1.408  0.2922 -4.2341  0.7737
   23MOL   H33315337   7.377   5.073   1.366  0.6856  1.3607 -4.2840
   23MOL   H33415338   7.175   4.955   1.174 -0.6541  0.6595 -1.7231
   23MOL   H33515339   7.317   5.035   1.110  1.9061 -1.4645  1.5494
   23MOL   H33615340   7.091   5.150   1.292  0.3702 -0.1131 -0.0415
   23MOL   H33715341   7.227   5.227   1.261  0.1706 -0.8059  1.4726
   23MOL   H33815342   7.068   5.115   1.015  1.7083 -0.2351  1.1641
   23MOL   H33915343   7.167   5.250   1.011  1.0297  1.0431  2.0634
   23MOL   H34015344   6.940   5.356   1.026 -0.7768 -0.0894 -0.2948
   23MOL   H34115345   6.972   5.332   1.201  1.9490  1.7996 -0.4826
   23MOL   N34215346   6.731   5.260   1.135  0.1960  0.4263 -0.6820
   23MOL   C34315347   6.596   5.206   1.147  0.7418 -0.4708 -0.1153
   23MOL   C34415348   6.551   5.204   1.299 -0.2137  0.2645 -0.0125
   23MOL   C34515349   6.397   5.188   1.302  0.1344  0.1965  0.3147
   23MOL   C34615350   6.327   5.208   1.439 -0.1947  0.2428 -0.6519
   23MOL   C34715351   6.335   5.089   1.537  0.7905 -0.0934 -0.2126
   23MOL   C34815352   6.244   5.089   1.660  0.4574 -0.2977 -0.1552
   23MOL   C34915353   6.282   5.007   1.786  0.4384 -0.1497  0.7241
   23MOL   C35015354   6.328   4.863   1.761 -0.7385  0.4586 -0.5558
   23MOL   C35115355   6.386   4.811   1.890  0.1604  0.3826 -0.0691
   23MOL   C35215356   6.518   4.736   1.861 -0.5948 -0.3054  0.4618
   23MOL   C35315357   6.579   4.675   1.983  0.1116  1.0871 -0.4201
   23MOL   O35415358   6.589   4.734   2.088 -0.9407 -0.6234  0.3106
   23MOL   H35515359   6.745   5.359   1.149 -0.5002  0.5471 -0.8507
   23MOL   H35615360   6.522   5.268   1.098 -0.0359 -1.3295 -0.0453
   23MOL   H35715361   6.574   5.106   1.108  0.7098 -1.0692  1.3939
   23MOL   H35815362   6.585   5.294   1.351  0.8734  0.8430 -1.6739
   23MOL   H35915363   6.598   5.124   1.356  1.4172 -0.1338 -1.8435
   23MOL   H36015364   6.353   5.259   1.232  0.1711  0.4403  0.5394
   23MOL   H36115365   6.380   5.088   1.263  0.3770  0.2686  0.0216
   23MOL   H36215366   6.221   5.231   1.429 -0.0492  0.3318 -2.1307
   23MOL   H36315367   6.358   5.304   1.481  2.2394 -0.0505 -1.6487
   23MOL   H36415368   6.440   5.083   1.566  0.3337 -3.2524  0.9621
   23MOL   H36515369   6.317   4.994   1.486  1.3617  0.5754 -1.6971
   23MOL   H36615370   6.229   5.189   1.701  0.9173 -0.6032  0.7829
   23MOL   H36715371   6.149   5.046   1.630  0.6117 -1.7905  1.3984
   23MOL   H36815372   6.198   5.011   1.856 -1.0245  2.4241 -1.1029
   23MOL   H36915373   6.347   5.070   1.847  0.1106 -0.6868  1.6428
   23MOL   H37015374   6.254   4.791   1.727  1.9211 -0.9975 -3.5167
   23MOL   H37115375   6.407   4.864   1.685  1.6776  0.3991  1.8891
   23MOL   H37215376   6.314   4.742   1.934  0.9135  0.9828  2.1286
   23MOL   H37315377   6.405   4.890   1.962  1.2456  1.1731 -1.2028
   23MOL   H37415378   6.589   4.812   1.827 -1.1603 -0.2390 -0.5663
   23MOL   H37515379   6.510   4.670   1.775 -2.7104 -0.7742  0.9992
   23MOL   N37615380   6.613   4.550   1.970 -0.0876  0.2688 -0.4281
   23MOL   C37715381   6.693   4.473   2.056  0.2199 -0.1982 -0.0205
   23MOL   C37815382   6.777   4.373   1.971 -0.1609 -0.3827 -0.4883
   23MOL   C37915383   6.692   4.260   1.919 -0.0493  0.2892  0.1044
   23MOL   C38015384   6.773   4.151   1.844 -0.1927  1.1466 -0.3314
   23MOL   C38115385   6.842   4.038   1.937  0.2938 -0.3635 -0.5238
   23MOL   C38215386   6.914   3.925   1.861  0.3614 -0.5780 -0.1841
   23MOL   C38315387   6.978   3.818   1.948  0.3023 -0.0172 -0.0840
   23MOL   C38415388   7.057   3.711   1.874  0.3276 -0.6426 -1.0690
   23MOL   C38515389   7.141   3.613   1.962  0.1246  1.1826  0.1747
   23MOL   C38615390   7.213   3.502   1.885  0.1764  0.1230 -0.2933
   23MOL   C38715391   7.342   3.559   1.825 -1.1838 -0.8751 -0.1537
   23MOL   O38815392   7.424   3.615   1.898  0.0766  0.4019  0.1355
   23MOL   H38915393   6.603   4.510   1.878 -0.2947  0.8280 -0.6505
   23MOL   H39015394   6.760   4.545   2.104  0.2387 -0.6908  0.6975
   23MOL   H39115395   6.626   4.424   2.127  1.8234 -0.7344  1.1551
   23MOL   H39215396   6.857   4.327   2.029  1.0413  0.7065 -1.2720
   23MOL   H39315397   6.820   4.424   1.885  2.0400  1.1058  1.4466
   23MOL   H39415398   6.632   4.208   1.993 -0.0844 -1.1453 -0.9124
   23MOL   H39515399   6.617   4.297   1.848 -3.2668 -2.1393  2.1164
   23MOL   H39615400   6.842   4.193   1.771  1.9591 -2.8747 -0.7029
   23MOL   H39715401   6.695   4.100   1.788 -1.1119  1.6802  0.4154
   23MOL   H39815402   6.760   3.989   1.990 -1.0779  1.0828 -1.2373
   23MOL   H39915403   6.919   4.083   2.000 -0.5083 -0.4516  0.5368
   23MOL   H40015404   6.854   3.865   1.793 -0.4869 -0.5993  0.5686
   23MOL   H40115405   6.985   3.958   1.786 -0.5109  0.0547 -0.7355
   23MOL   H40215406   6.905   3.764   2.008 -1.7357  2.6468 -0.0578
   23MOL   H40315407   7.038   3.861   2.029 -1.0421  2.1143 -0.1915
   23MOL   H40415408   7.002   3.650   1.802  0.2571 -3.1014  0.9788
   23MOL   H40515409   7.116   3.767   1.802  0.6732  0.2619 -0.1050
   23MOL   H40615410   7.078   3.562   2.035 -2.1444  2.1459 -1.0666
   23MOL   H40715411   7.208   3.673   2.024  1.3666 -1.3513  1.3420
   23MOL   H40815412   7.153   3.458   1.806 -1.7155  1.8602  0.1486
   23MOL   H40915413   7.243   3.435   1.965 -2.9262 -0.1936  0.6691
   23MOL   N41015414   7.360   3.571   1.693  0.5292 -0.4357 -0.0525
   23MOL   C41115415   7.471   3.631   1.625  0.5611  0.6578 -0.4252
   23MOL   C41215416   7.470   3.596   1.474 -0.4216 -0.3757  0.4437
   23MOL   C41315417   7.553   3.692   1.387  0.0793  0.4382 -0.7775
   23MOL   C41415418   7.563   3.653   1.232 -0.4200  0.1518 -1.1777
   23MOL   C41515419   7.428   3.633   1.165 -0.1761  0.1125 -0.0588
   23MOL   C41615420   7.445   3.576   1.027  0.2586  0.7645  0.0486
   23MOL   C41715421   7.312   3.546   0.965  0.6929  0.0705 -0.4263
   23MOL   C41815422   7.250   3.417   1.027  0.2499 -0.3441  0.8177
   23MOL   C41915423   7.124   3.366   0.956 -0.0880 -0.4654 -0.1460
   23MOL   C42015424   7.086   3.229   1.014  0.1561 -0.5790 -0.0120
   23MOL   C42115425   6.985   3.159   0.926  0.0278  0.4412 -0.7245
   23MOL   O42215426   6.892   3.221   0.875 -0.3763 -0.0598 -0.5474
   23MOL   H42315427   7.276   3.553   1.640  0.6872 -1.3346 -0.0155
   23MOL   H42415428   7.462   3.739   1.641 -0.6868  0.1056  2.9368
   23MOL   H42515429   7.567   3.606   1.670  1.5793  0.8499 -2.4234
   23MOL   H42615430   7.365   3.594   1.447  0.2353  1.4878 -2.4450
   23MOL   H42715431   7.500   3.492   1.466 -1.0126 -0.6529  1.7914
   23MOL   H42815432   7.518   3.795   1.378  1.5538  0.9000 -1.3632
   23MOL   H42915433   7.651   3.701   1.432 -0.6569 -0.4062  1.0227
   23MOL   H43015434   7.619   3.560   1.223 -0.1579  0.0288  1.3346
   23MOL   H43115435   7.628   3.719   1.175  1.9667 -1.1453 -0.0667
   23MOL   H43215436   7.376   3.727   1.148  0.1797  0.2380 -0.4568
   23MOL   H43315437   7.368   3.571   1.231 -0.3165  1.4376  1.0972
   23MOL   H43415438   7.493   3.654   0.968  0.0706  0.4550 -0.5060
   23MOL   H43515439   7.504   3.485   1.033 -1.3239 -0.5038 -2.7653
   23MOL   H43615440   7.323   3.511   0.863  1.7903 -0.1410 -0.2377
   23MOL   H43715441   7.239   3.627   0.968  0.7200  0.0808  0.1686
   23MOL   H43815442   7.328   3.341   1.016 -1.3083 -2.2521  2.5258
   23MOL   H43915443   7.233   3.417   1.134  0.8670  0.1227  0.9184
   23MOL   H44015444   7.154   3.353   0.852 -1.0470  0.3507 -0.5419
   23MOL   H44115445   7.047   3.443   0.953  1.8213  1.4574 -0.3360
   23MOL   H44215446   7.033   3.241   1.109 -0.5183 -1.6445 -0.2444
   23MOL   H44315447   7.169   3.158   1.021  1.4656  1.0618  1.7965
   23MOL   N44415448   7.005   3.024   0.919 -0.4019 -0.1572  0.1698
   23MOL   C44515449   6.901   2.938   0.861  0.1053 -0.1392 -0.3625
   23MOL   C44615450   6.971   2.827   0.782  0.6087 -0.2112 -0.7705
   23MOL   C44715451   7.058   2.882   0.668 -0.1541  0.4243  0.4754
   23MOL   C44815452   7.092   2.763   0.572  0.1978  0.2235 -0.1529
   23MOL   C44915453   7.177   2.790   0.451  0.6854  0.5204 -0.0928
   23MOL   C45015454   7.319   2.824   0.480  0.2130  0.2016 -0.1268
   23MOL   C45115455   7.391   2.872   0.353  0.4195  0.5672 -0.2005
   23MOL   C45215456   7.526   2.939   0.381  0.2892  0.3731  0.0966
   23MOL   C45315457   7.592   2.999   0.250  0.5392 -0.4343 -0.3262
   23MOL   C45415458   0.008   3.061   0.284 -0.2291  0.3925  0.5734
   23MOL   C45515459   0.030   3.191   0.196 -0.0036 -0.8492  0.4247
   23MOL   O45615460   7.650   3.255   0.149 -0.7725 -0.3202  0.2299
   23MOL   H45715461   7.089   2.980   0.954  0.3930  1.1728 -0.0145
   23MOL   H45815462   6.842   2.899   0.944 -1.6640 -0.6823 -1.8292
   23MOL   H45915463   6.835   2.992   0.794 -0.1601  1.3365  1.0629
   23MOL   H46015464   6.892   2.758   0.750  1.5416 -3.1859  3.0351
   23MOL   H46115465   7.036   2.768   0.846  0.7522 -1.2347 -1.8466
   23MOL   H46215466   7.014   2.961   0.606  0.9951  0.5711 -0.1617
   23MOL   H46315467   7.146   2.936   0.704  1.3706 -1.6281 -0.0998
   23MOL   H46415468   6.999   2.720   0.534 -0.4376 -0.0678  1.6994
   23MOL   H46515469   7.137   2.685   0.634  1.5946  0.7040 -0.5322
   23MOL   H46615470   7.136   2.873   0.394  1.2087  1.2886  0.6405
   23MOL   H46715471   7.183   2.704   0.385  1.9076  2.0625 -2.0289
   23MOL   H46815472   7.327   2.899   0.559 -2.6421 -0.4316  0.8165
   23MOL   H46915473   7.373   2.736   0.516 -2.0479 -2.4587 -2.9746
   23MOL   H47015474   7.315   2.927   0.298 -0.7386 -0.8318 -0.0515
   23MOL   H47115475   7.410   2.779   0.299 -0.0084  0.7691 -0.7118
   23MOL   H47215476   7.495   3.025   0.440  3.3941  0.4149  1.7395
   23MOL   H47315477   7.593   2.883   0.446 -1.2932 -3.5543 -1.4758
   23MOL   H47415478   7.513   3.060   0.206  0.5806 -0.0301  0.1551
   23MOL   H47515479   7.618   2.913   0.188  0.8956  0.4591 -1.4346
   23MOL   H47615480   0.079   2.984   0.255  0.0565  1.0037 -0.3637
   23MOL   H47715481   0.011   3.079   0.391 -0.2872 -2.0381  1.0230
   23MOL   N47815482   0.156   3.239   0.191 -0.6279 -0.9486 -0.2995
   23MOL   C47915483   0.198   3.355   0.110 -0.0626  0.1711 -0.2057
   23MOL   C48015484   0.185   3.484   0.195 -0.0435 -0.2697  0.4088
   23MOL   C48115485   0.249   3.604   0.123 -1.4368  0.1569  0.0645
   23MOL   C48215486   0.221   3.735   0.196  0.2514 -0.1512 -0.4915
   23MOL   C48315487   0.316   3.846   0.162  0.6293  0.4210  0.2603
   23MOL   C48415488   0.252   3.979   0.197 -0.2669  0.1707 -0.0383
   23MOL   C48515489   0.347   4.096   0.185 -0.4910 -0.2921 -0.5705
   23MOL   C48615490   0.285   4.238   0.206  0.2518 -0.0697 -0.0872
   23MOL   C48715491   0.377   4.360   0.211  0.4181  0.6569  0.1381
   23MOL   C48815492   0.440   4.392   0.070  0.2758 -0.0508  0.0147
   23MOL   C48915493   0.566   4.316   0.035 -0.1710  0.4525  0.2654
   23MOL   O49015494   0.635   4.257   0.119  0.5774 -0.2018 -0.1972
   23MOL   H49115495   0.229   3.189   0.240 -0.3048 -0.1438  0.0333
   23MOL   H49215496   0.302   3.343   0.079 -0.3939  0.4937 -1.4707
   23MOL   H49315497   0.134   3.363   0.022 -1.8258  0.1471  1.0449
   23MOL   H49415498   0.231   3.477   0.293  1.1558  3.0146  0.1246
   23MOL   H49515499   0.078   3.506   0.202 -0.6178 -2.3401 -1.1605
   23MOL   H49615500   0.354   3.575   0.129 -1.2865  0.4172 -1.0767
   23MOL   H49715501   0.237   3.609   0.014  3.2399 -0.7523 -0.5927
   23MOL   H49815502   0.232   3.722   0.303  2.1132  3.5853 -0.1425
   23MOL   H49915503   0.117   3.757   0.173 -0.1803 -2.9115 -1.3439
   23MOL   H50015504   0.339   3.836   0.056 -0.8314 -0.7152  0.0273
   23MOL   H50115505   0.407   3.828   0.219  0.7712 -0.9983 -0.4049
   23MOL   H50215506   0.161   4.001   0.142 -0.1251  4.4238  1.2005
   23MOL   H50315507   0.233   3.976   0.305 -1.4277  2.3414 -0.1696
   23MOL   H50415508   0.410   4.086   0.097  0.1811 -0.1720 -0.1026
   23MOL   H50515509   0.424   4.086   0.260  1.8180 -0.2265 -2.8498
   23MOL   H50615510   0.201   4.268   0.143  1.0135  1.3698 -0.4407
   23MOL   H50715511   0.241   4.228   0.305 -1.1715 -2.5898 -0.9441
   23MOL   H50815512   0.445   4.348   0.295  0.9208  0.0846 -0.3465
   23MOL   H50915513   0.306   4.440   0.233 -1.7681 -1.0924 -0.4826
   23MOL   H51015514   0.468   4.497   0.067 -0.8524  0.2574  0.2927
   23MOL   H51115515   0.377   4.393   7.697  3.5911  0.9573 -2.4486
   23MOL   N51215516   0.593   4.314   7.620 -0.1836  0.3071  0.0117
   23MOL   C51315517   0.722   4.273   7.568 -0.7430  0.8011  0.0879
   23MOL   C51415518   0.749   4.124   7.588  0.5610 -0.2381  0.4037
   23MOL   C51515519   0.661   4.037   7.505  0.3985  0.0244  0.1185
   23MOL   C51615520   0.666   3.882   7.522 -0.2763  0.0325  0.4182
   23MOL   C51715521   0.562   3.805   7.449  0.4159  0.4895  0.3124
   23MOL   C51815522   0.582   3.654   7.470  0.1060  0.5207  0.7575
   23MOL   C51915523   0.528   3.607   7.603  0.2960  0.4295  0.1484
   23MOL   C52015524   0.522   3.457   7.626  0.1290 -0.5426  0.9726
   23MOL   C52115525   0.641   3.410   0.003 -0.1899  0.2599  0.3636
   23MOL   C52215526   0.636   3.260   0.022  0.3559  0.0230  0.1774
   23MOL   C52315527   0.756   3.210   0.107  0.2257  0.3355 -0.2225
   23MOL   O52415528   0.801   3.273   0.197 -0.2596 -0.0090  0.1907
   23MOL   H52515529   0.541   4.374   7.558 -0.2013  0.2134 -0.0642
   23MOL   H52615530   0.730   4.291   7.460 -1.0350 -1.4251 -0.3435
   23MOL   H52715531   0.806   4.323   7.615 -0.8694  0.1763  0.9874
   23MOL   H52815532   0.760   4.097   7.693 -0.3505 -0.6855  0.3876
   23MOL   H52915533   0.848   4.099   7.549  0.3367 -1.4413  0.5996
   23MOL   H53015534   0.557   4.061   7.526 -0.2879 -2.7613  0.1026
   23MOL   H53115535   0.674   4.060   7.399  0.7019  0.8453  0.3304
   23MOL   H53215536   0.664   3.869   7.630  0.5831  1.2400  0.5875
   23MOL   H53315537   0.759   3.835   7.490 -1.1185 -1.7392  0.5158
   23MOL   H53415538   0.567   3.838   7.345 -0.8063  0.0782  0.1200
   23MOL   H53515539   0.465   3.832   7.491  0.6133 -1.1560  1.8662
   23MOL   H53615540   0.525   3.598   7.395 -0.6128  0.9044  1.0216
   23MOL   H53715541   0.680   3.607   7.459 -0.0319  0.9063 -2.6447
   23MOL   H53815542   0.420   3.623   7.592  0.2211 -0.6169 -0.6928
   23MOL   H53915543   0.549   3.664   7.694  0.8929 -1.5224  1.2597
   23MOL   H54015544   0.424   3.433   7.668 -2.1787  0.7970 -3.2206
   23MOL   H54115545   0.510   3.399   7.534 -1.2572 -0.4879  1.1017
   23MOL   H54215546   0.628   3.462   0.098  1.4813 -0.3771  0.9571
   23MOL   H54315547   0.738   3.450   7.690  0.6571 -0.0500  2.6953
   23MOL   H54415548   0.645   3.215   7.639  2.3898  2.0246 -0.5788
   23MOL   H54515549   0.541   3.232   0.068  0.5042  0.1808  0.5864
   23MOL   N54615550   0.825   3.108   0.060  0.4959 -0.0565  0.2874
   23MOL   C54715551   0.950   3.059   0.115  0.0543 -0.1946 -0.2390
   23MOL   C54815552   1.066   3.132   0.054 -0.2208 -0.3799  0.0277
   23MOL   C54915553   1.087   3.131   7.615 -0.9321  0.6634  0.1587
   23MOL   C55015554   1.230   3.151   7.566  0.3498 -0.7768 -0.1849
   23MOL   C55115555   1.221   3.131   7.409 -0.4331 -0.3340 -0.7611
   23MOL   C55215556   1.364   3.143   7.340  0.3697  0.7004 -0.1399
   23MOL   C55315557   1.441   3.276   7.357  0.9596 -0.3186  0.5916
   23MOL   C55415558   1.566   3.274   7.267 -0.7200 -0.1310  0.5928
   23MOL   C55515559   1.646   3.406   7.276 -0.2438 -1.0369  0.3002
   23MOL   C55615560   1.781   3.413   7.198 -0.4275  0.5859  0.0827
   23MOL   C55715561   1.821   3.551   7.148  0.5469 -0.4693 -0.4162
   23MOL   O55815562   1.746   3.617   7.075  0.4514  0.2058 -0.0662
   23MOL   H55915563   0.794   3.070   7.687 -0.1277 -1.7255  1.1932
   23MOL   H56015564   0.955   3.057   0.224  1.6883 -3.0495 -0.3458
   23MOL   H56115565   0.958   2.954   0.087 -0.0154 -0.4995  0.8639
   23MOL   H56215566   1.151   3.083   0.101 -0.8997 -0.0630  1.6288
   23MOL   H56315567   1.068   3.234   0.093  0.9664  0.2477 -1.6321
   23MOL   H56415568   1.050   3.035   7.581 -0.6121  0.0834  1.4308
   23MOL   H56515569   1.016   3.208   7.582  2.2209  2.3076 -3.1624
   23MOL   H56615570   1.292   3.072   7.610  0.4812  0.7668  2.5524
   23MOL   H56715571   1.275   3.245   7.599 -0.7150 -0.4294  0.2892
   23MOL   H56815572   1.152   3.202   7.362  0.8914  3.0658  2.1747
   23MOL   H56915573   1.179   3.031   7.396 -1.2752 -0.4589  2.4406
   23MOL   H57015574   1.427   3.067   7.386  1.8896  2.2356  0.3422
   23MOL   H57115575   1.354   3.114   7.235  2.5115  0.8047 -0.3771
   23MOL   H57215576   1.465   3.291   7.462  0.9025  0.8638  0.4405
   23MOL   H57315577   1.376   3.352   7.315 -0.0093 -0.0701  2.4868
   23MOL   H57415578   1.641   3.202   7.300 -1.6642 -1.2252  0.3642
   23MOL   H57515579   1.540   3.262   7.162  0.6512  0.6183  0.1633
   23MOL   H57615580   1.661   3.435   7.380 -0.0251 -1.8078  0.4875
   23MOL   H57715581   1.581   3.483   7.234 -0.2086 -0.1654  1.8019
   23MOL   H57815582   1.774   3.342   7.116  0.2568 -0.3077  0.7847
   23MOL   H57915583   1.860   3.366   7.258 -0.1462  2.3114  1.1001
   23MOL   N58015584   1.939   3.598   7.185  0.1141  0.3288  0.5378
   23MOL   C58115585   1.988   3.732   7.151  0.3589  0.3264 -0.2129
   23MOL   C58215586   1.966   3.832   7.263  0.4869 -0.1865 -0.4659
   23MOL   C58315587   2.035   3.784   7.395  0.3896 -0.0578  0.1446
   23MOL   C58415588   1.971   3.855   7.517  0.2026  0.7962  0.1932
   23MOL   C58515589   2.023   3.791   7.643  0.0827 -0.2627  0.6304
   23MOL   C58615590   1.946   3.824   0.056  0.5436 -0.0048 -0.1508
   23MOL   C58715591   1.906   3.972   0.063  0.3396  0.1830  0.4359
   23MOL   C58815592   1.865   4.012   0.205 -0.8773 -0.6173  0.6286
   23MOL   C58915593   1.815   4.163   0.204  0.1537  0.3264 -0.1147
   23MOL   C59015594   1.809   4.223   0.342  0.6269  0.1222  0.7419
   23MOL   C59115595   1.943   4.265   0.420 -0.5276  0.2782 -0.2768
   23MOL   O59215596   2.051   4.246   0.370 -0.1878  0.6824 -0.5869
   23MOL   H59315597   2.000   3.549   7.249 -2.8481 -1.9349  1.7204
   23MOL   H59415598   2.096   3.719   7.166 -0.0608 -1.7725  1.2257
   23MOL   H59515599   1.949   3.764   7.055 -1.5365  2.6101  1.2850
   23MOL   H59615600   1.857   3.835   7.271  0.5526  0.4644  0.2786
   23MOL   H59715601   2.005   3.932   7.246  1.2376 -0.5767 -1.0817
   23MOL   H59815602   2.011   3.679   7.415 -3.3577  0.5186 -0.9646
   23MOL   H59915603   2.144   3.792   7.394  0.4384 -0.6278  0.5369
   23MOL   H60015604   1.863   3.847   7.505  0.4022 -0.3613 -0.9585
   23MOL   H60115605   1.984   3.964   7.519 -0.0040  0.7973  1.7163
   23MOL   H60215606   2.127   3.819   7.656 -0.5350  1.0897  3.0065
   23MOL   H60315607   2.020   3.682   7.633  1.8591 -0.1055 -2.2378
   23MOL   H60415608   1.861   3.757   0.056 -0.8813  1.7494 -1.0374
   23MOL   H60515609   1.988   3.791   0.151 -4.3701 -1.5216  1.6352
   23MOL   H60615610   1.827   3.996   7.708  0.1579  1.0638  0.9329
   23MOL   H60715611   1.984   4.040   0.029 -1.1821  0.1271 -3.4478
   23MOL   H60815612   1.777   3.953   0.231 -3.4226  2.2495 -1.1832
   23MOL   H60915613   1.948   4.006   0.276 -1.1918 -1.0751  0.9606
   23MOL   H61015614   1.716   4.167   0.159 -0.5723  1.7433  1.5434
   23MOL   H61115615   1.872   4.221   0.132  0.5089 -2.1405 -1.8700
   23MOL   H61215616   1.751   4.155   0.403 -0.2134  0.2320  0.0701
   23MOL   H61315617   1.753   4.315   0.325  0.2053 -0.3011 -0.2660
   23MOL   N61415618   1.933   4.328   0.536  0.3068  0.0125  0.4924
   23MOL   C61515619   2.053   4.371   0.613 -0.5838  0.0633  0.0981
   23MOL   C61615620   2.095   4.251   0.710 -1.0274 -0.1482  0.5827
   23MOL   C61715621   1.995   4.244   0.825 -0.0606 -0.9059 -0.2059
   23MOL   C61815622   2.052   4.176   0.946 -0.2920  0.8743  0.4318
   23MOL   C61915623   1.950   4.107   1.040 -0.0860 -0.0094  0.0090
   23MOL   C62015624   1.843   4.194   1.110 -0.7107  0.1980  0.7089
   23MOL   C62115625   1.912   4.276   1.223 -0.1951 -0.1609  0.5271
   23MOL   C62215626   1.822   4.364   1.308  0.1539  0.2479  1.0662
   23MOL   C62315627   1.787   4.490   1.226  0.4463 -0.7520 -0.2153
   23MOL   C62415628   1.897   4.586   1.184  0.2109  0.3367  0.2844
   23MOL   C62515629   1.854   4.683   1.074  0.2221 -0.1887 -0.5895
   23MOL   O62615630   1.783   4.637   0.986  0.5090  0.2445 -0.1449
   23MOL   H62715631   1.838   4.332   0.570 -0.3080  0.5729 -1.2319
   23MOL   H62815632   2.025   4.458   0.673 -1.5919  0.0275 -0.3124
   23MOL   H62915633   2.140   4.395   0.552  0.8058 -0.5994  1.7657
   23MOL   H63015634   2.195   4.264   0.751 -0.5646 -0.8395 -0.2932
   23MOL   H63115635   2.089   4.151   0.667  0.4747 -1.1830  2.7216
   23MOL   H63215636   1.971   4.346   0.857 -0.9441 -1.5791  1.3354
   23MOL   H63315637   1.902   4.197   0.791 -0.7913  0.6488 -0.4070
   23MOL   H63415638   2.112   4.254   0.993  0.0437  1.8925 -1.6531
   23MOL   H63515639   2.129   4.108   0.909  0.2511  1.0884  1.1453
   23MOL   H63615640   2.004   4.041   1.108  0.1470 -1.4451 -1.5075
   23MOL   H63715641   1.895   4.034   0.980 -0.9512 -1.6558  2.7108
   23MOL   H63815642   1.795   4.251   1.030 -0.1152 -1.3167 -0.7594
   23MOL   H63915643   1.768   4.126   1.149 -0.6252 -0.2535  0.0974
   23MOL   H64015644   1.993   4.331   1.176  0.8503 -2.1211 -0.0022
   23MOL   H64115645   1.949   4.209   1.301 -1.2321 -0.8035  0.4824
   23MOL   H64215646   1.726   4.315   1.326  0.3281  0.5451  2.8689
   23MOL   H64315647   1.860   4.398   1.405 -1.7247  0.4344  1.7419
   23MOL   H64415648   1.719   4.548   1.289 -1.1641  0.0169 -2.5962
   23MOL   H64515649   1.733   4.457   1.137 -2.2641 -0.4371  1.2615
   23MOL   H64615650   1.986   4.531   1.155 -0.1922  0.3956 -1.1138
   23MOL   H64715651   1.931   4.642   1.272  0.8033  0.5304 -0.0708
   23MOL   N64815652   1.878   4.814   1.085  0.0856 -0.2787  0.0548
   23MOL   C64915653   1.809   4.910   1.001 -0.2607 -0.3219  0.9174
   23MOL   C65015654   1.871   5.049   1.006  0.3069  0.8994 -0.1434
   23MOL   C65115655   1.799   5.152   0.922 -0.4174 -0.1671 -0.6163
   23MOL   C65215656   1.782   5.116   0.770 -0.2705  0.4576  0.4589
   23MOL   C65315657   1.684   5.206   0.702  0.4394  0.3613 -1.1884
   23MOL   C65415658   1.666   5.178   0.552  0.4780 -0.7497  0.0365
   23MOL   C65515659   1.595   5.285   0.469 -0.4227  0.4259 -0.1775
   23MOL   C65615660   1.579   5.248   0.322  0.5563 -0.2375  1.0485
   23MOL   C65715661   1.496   5.351   0.251 -0.0771 -0.0864  0.4666
   23MOL   C65815662   1.465   5.313   0.104  0.6088 -0.1448 -0.2896
   23MOL   C65915663   1.385   5.419   0.028 -0.2912  0.3954 -0.2099
   23MOL   O66015664   1.258   5.419   0.036 -0.3369 -0.4856  0.1560
   23MOL   H66115665   1.925   4.846   1.169 -1.0425  0.1082  0.5484
   23MOL   H66215666   1.703   4.922   1.021 -0.2410  0.3694  0.6053
   23MOL   H66315667   1.803   4.866   0.902 -0.2626 -0.0394  0.7940
   23MOL   H66415668   1.972   5.032   0.971  0.5906 -0.8007  1.3820
   23MOL   H66515669   1.874   5.081   1.110 -0.2739 -1.0407  0.5063
   23MOL   H66615670   1.700   5.160   0.968 -0.5537  2.6919 -1.3550
   23MOL   H66715671   1.848   5.249   0.931  0.6157 -0.7977  0.8255
   23MOL   H66815672   1.759   5.010   0.759 -0.3472  0.8588 -4.4504
   23MOL   H66915673   1.878   5.130   0.720 -0.5410 -0.6834 -0.4032
   23MOL   H67015674   1.723   5.307   0.716 -0.9379  0.6149  1.0279
   23MOL   H67115675   1.586   5.211   0.751  0.7925 -0.1529 -0.4277
   23MOL   H67215676   1.757   5.154   0.497  0.0197 -0.1555 -0.9810
   23MOL   H67315677   1.601   5.090   0.551  0.1806 -0.7398  5.2247
   23MOL   H67415678   1.658   5.373   0.482 -2.6838  2.0210  0.2572
   23MOL   H67515679   1.504   5.299   0.528 -1.7460 -1.9945 -1.6043
   23MOL   H67615680   1.672   5.245   0.265  1.6462 -0.9568  2.8186
   23MOL   H67715681   1.524   5.155   0.305  1.6122 -0.5173 -1.1060
   23MOL   H67815682   1.543   5.449   0.243 -2.0363  0.8802  0.4996
   23MOL   H67915683   1.399   5.359   0.299  0.6437  1.0450  1.7894
   23MOL   H68015684   1.405   5.222   0.107  1.4333 -0.6666  0.7864
   23MOL   H68115685   1.559   5.292   0.054  0.9636  0.1865  0.2304
   23MOL   H68215686   1.445   5.483   7.679  0.9234 -0.2179  0.2906
   24MOL     N115687   4.269   2.598   7.202 -0.0659  0.3416  0.0506
   24MOL     C215688   4.223   2.663   7.329 -0.3579  0.3612 -0.2405
   24MOL     C315689   4.080   2.723   7.309  0.3544 -0.0014 -0.0010
   24MOL     C415690   4.039   2.809   7.424 -0.9584 -0.2123  0.6994
   24MOL     C515691   3.897   2.865   7.403 -0.0701  0.0212 -0.3676
   24MOL     C615692   3.857   2.961   7.527 -0.1536 -0.6670  0.4652
   24MOL     C715693   3.708   3.000   7.512 -0.2712 -0.9065  0.1374
   24MOL     C815694   3.658   3.099   7.618 -0.0860 -0.9406  0.4727
   24MOL     C915695   3.503   3.112   7.616  0.8391 -0.1353  0.0026
   24MOL    C1015696   3.458   3.183   7.482 -0.5375  0.0439  0.4787
   24MOL    C1115697   3.309   3.220   7.484  0.4881  0.0990  0.8617
   24MOL    C1215698   3.219   3.102   7.463  0.2735  1.0929  0.2188
   24MOL    O1315699   3.251   3.020   7.374 -0.5250 -0.7607 -0.4996
   24MOL    H1415700   4.318   2.657   7.137 -0.5462 -1.6204 -2.1785
   24MOL    H1515701   4.297   2.742   7.347 -0.5974  0.0995  2.0729
   24MOL    H1615702   4.225   2.587   7.408  0.1676 -0.2887 -0.8751
   24MOL    H1715703   4.006   2.645   7.291  0.4028  0.2788 -1.4617
   24MOL    H1815704   4.087   2.789   7.223 -0.5260  1.5503  1.1067
   24MOL    H1915705   4.045   2.746   7.513  0.0038  0.5956  1.2289
   24MOL    H2015706   4.114   2.886   7.442 -0.0300 -1.1233  0.8054
   24MOL    H2115707   3.831   2.779   7.390 -0.0560 -0.0628  0.1141
   24MOL    H2215708   3.887   2.916   7.307 -2.0708  1.4860  0.5687
   24MOL    H2315709   3.917   3.050   7.547 -1.3429  0.4286 -0.6849
   24MOL    H2415710   3.857   2.904   7.619  0.2840 -0.6322  0.4888
   24MOL    H2515711   3.698   3.034   7.409 -3.0613 -0.3762  0.5373
   24MOL    H2615712   3.640   2.915   7.507 -0.9901 -0.3684  0.6362
   24MOL    H2715713   3.706   3.197   7.615 -0.7576 -0.5720  1.3775
   24MOL    H2815714   3.680   3.061   0.002 -1.1825 -1.2768  0.5990
   24MOL    H2915715   3.460   3.012   7.609 -2.1253  0.8904  2.5496
   24MOL    H3015716   3.462   3.167   7.701 -0.8660  0.2936 -1.0881
   24MOL    H3115717   3.485   3.131   7.390 -1.0153  3.8681 -1.9442
   24MOL    H3215718   3.512   3.277   7.494  1.6719 -1.3214  1.5759
   24MOL    H3315719   3.287   3.290   7.404 -0.1950 -0.1615  0.8227
   24MOL    H3415720   3.277   3.273   7.574 -0.1922  0.5936  0.3288
   24MOL    H3515721   4.190   2.557   7.153  0.1856 -0.7413  0.5428
   24MOL    N3615722   3.108   3.099   7.537  0.2393 -0.2765 -0.4875
   24MOL    C3715723   3.011   2.993   7.528  0.0139  0.1178 -0.1143
   24MOL    C3815724   2.921   2.999   7.408 -1.1307  0.3506  0.2698
   24MOL    C3915725   2.836   3.124   7.399  0.3135 -0.2350  0.4065
   24MOL    C4015726   2.747   3.121   7.270 -0.9719 -0.1728  0.3817
   24MOL    C4115727   2.829   3.127   7.132  0.3599 -0.7139  1.1426
   24MOL    C4215728   2.906   3.263   7.113  0.4434  0.3604 -0.1208
   24MOL    C4315729   3.018   3.258   7.007 -0.5206  0.0508  0.4288
   24MOL    C4415730   3.150   3.222   7.074 -0.7253  0.4058  0.1086
   24MOL    C4515731   3.264   3.212   6.973 -0.3111 -0.6591 -0.4921
   24MOL    C4615732   3.399   3.183   7.047  0.0164 -0.2796  0.0804
   24MOL    C4715733   3.446   3.039   7.042  0.4054  0.8759 -0.5046
   24MOL    O4815734   3.483   2.985   6.934 -0.3071 -0.6852  0.4159
   24MOL    H4915735   3.080   3.174   7.599 -0.2294  1.5169 -2.8053
   24MOL    H5015736   3.062   2.897   7.541  2.3267  1.3430  0.0966
   24MOL    H5115737   2.942   3.010   7.611 -1.7221  0.4290 -1.5824
   24MOL    H5215738   2.866   2.905   7.400 -0.3888 -0.1891  1.4059
   24MOL    H5315739   2.984   2.989   7.320 -0.4879 -1.5510  0.9296
   24MOL    H5415740   2.774   3.129   7.488  0.1625  0.9443  0.2437
   24MOL    H5515741   2.893   3.217   7.406 -0.6657  0.7320 -3.1695
   24MOL    H5615742   2.679   3.206   7.282  2.1068  2.4523 -0.0531
   24MOL    H5715743   2.684   3.033   7.268  0.7372 -1.4238  0.6339
   24MOL    H5815744   2.768   3.097   7.047  1.0041 -0.5125  0.5995
   24MOL    H5915745   2.903   3.047   7.129  1.1163 -0.0129 -4.4450
   24MOL    H6015746   2.839   3.345   7.086 -2.1841 -1.2931  1.1985
   24MOL    H6115747   2.948   3.291   7.209  1.3482  1.5968 -0.8592
   24MOL    H6215748   3.024   3.353   6.953  0.6269 -0.7733 -0.9164
   24MOL    H6315749   2.998   3.187   6.928 -1.5868  2.1615 -1.2676
   24MOL    H6415750   3.175   3.287   7.158  2.5111 -0.2035 -0.3262
   24MOL    H6515751   3.129   3.126   7.122 -0.4885  0.6216  0.6459
   24MOL    H6615752   3.275   3.306   6.920  0.2549  0.7302  1.9781
   24MOL    H6715753   3.259   3.139   6.892  2.7797 -1.0939 -0.3698
   24MOL    H6815754   3.403   3.229   7.146  1.6625  1.6840 -0.8615
   24MOL    H6915755   3.484   3.220   6.990 -0.6561  0.0299 -0.7282
   24MOL    N7015756   3.451   2.979   7.160  0.1995 -0.1495 -0.0025
   24MOL    C7115757   3.503   2.847   7.200  0.1651  0.0849  0.4543
   24MOL    C7215758   3.401   2.738   7.159 -0.3397 -0.3126  0.2177
   24MOL    C7315759   3.254   2.746   7.194  0.5966 -0.0968  0.0505
   24MOL    C7415760   3.174   2.664   7.097  0.9767  0.0494 -0.1942
   24MOL    C7515761   3.115   2.738   6.985 -0.6110 -0.6420  0.4073
   24MOL    C7615762   2.971   2.789   6.999  0.0187  0.0717  0.2226
   24MOL    C7715763   2.929   2.885   6.884  0.0829  0.5796 -0.5105
   24MOL    C7815764   2.909   2.814   6.747  0.8726 -0.0813 -0.4001
   24MOL    C7915765   2.811   2.877   6.651  0.2737  0.2876 -0.7327
   24MOL    C8015766   2.787   2.800   6.524  0.6015  0.1007 -0.7605
   24MOL    C8115767   2.870   2.844   6.405 -0.8656 -0.0916 -0.0209
   24MOL    O8215768   2.982   2.797   6.388 -0.1678 -0.2200  0.3990
   24MOL    H8315769   3.405   3.027   7.236  0.4488  0.0397  0.0317
   24MOL    H8415770   3.600   2.826   7.155  0.5728 -1.8061  2.1231
   24MOL    H8515771   3.532   2.845   7.305 -0.1415 -0.0043  0.5376
   24MOL    H8615772   3.427   2.639   7.195  1.6940 -0.2484 -1.0208
   24MOL    H8715773   3.417   2.739   7.051 -0.9096 -0.3470  0.1319
   24MOL    H8815774   3.234   2.707   7.294 -2.3002 -1.8197 -1.1311
   24MOL    H8915775   3.216   2.848   7.197  0.7583  0.0676 -2.5491
   24MOL    H9015776   3.089   2.613   7.143  0.0202  1.1660 -0.7136
   24MOL    H9115777   3.233   2.578   7.065  2.3112  0.9255 -0.1298
   24MOL    H9215778   3.110   2.686   6.890  0.0636  2.9872 -1.7280
   24MOL    H9315779   3.179   2.824   6.963 -0.9752 -0.0172  1.7132
   24MOL    H9415780   2.902   2.705   7.004 -1.6200  1.3373 -0.6266
   24MOL    H9515781   2.961   2.832   7.098 -1.5219 -0.3374  0.2568
   24MOL    H9615782   3.005   2.963   6.881 -0.0503  0.6978 -0.8636
   24MOL    H9715783   2.829   2.922   6.905 -0.1088 -0.4274  0.4106
   24MOL    H9815784   3.001   2.806   6.690  0.0452  2.2005 -2.1233
   24MOL    H9915785   2.887   2.710   6.769 -0.6631  0.0266 -1.3423
   24MOL   H10015786   2.823   2.983   6.630  0.0630  0.0755 -1.9327
   24MOL   H10115787   2.715   2.875   6.701 -0.8934 -0.9900 -2.9577
   24MOL   H10215788   2.680   2.783   6.514 -0.1826  4.2027 -0.2098
   24MOL   H10315789   2.818   2.696   6.536 -2.8351 -1.6523 -5.4677
   24MOL   N10415790   2.814   2.936   6.330  0.1815 -0.3483  0.8627
   24MOL   C10515791   2.861   2.969   6.198 -0.1303  0.8144  0.1717
   24MOL   C10615792   2.788   3.080   6.134  0.1807 -0.4542  0.3445
   24MOL   C10715793   2.860   3.151   6.016  0.1418  0.5594 -0.1592
   24MOL   C10815794   2.763   3.255   5.960  0.6395  0.3511 -0.8357
   24MOL   C10915795   2.814   3.339   5.838  0.1685 -0.7177  0.5259
   24MOL   C11015796   2.907   3.450   5.886  0.1490  0.1146  0.1380
   24MOL   C11115797   2.919   3.556   5.789  0.5569  0.0085  0.2343
   24MOL   C11215798   3.000   3.671   5.845  1.1690 -0.1777 -0.2628
   24MOL   C11315799   3.035   3.793   5.753 -0.1010 -0.1868  0.2523
   24MOL   C11415800   3.102   3.911   5.816 -0.2311 -0.7007 -0.4790
   24MOL   C11515801   3.195   3.882   5.936  0.1156  0.0652  0.6030
   24MOL   O11615802   3.144   3.895   6.044  0.1874 -0.3625 -0.6975
   24MOL   H11715803   2.723   2.977   6.351  0.4328  1.7487 -1.8007
   24MOL   H11815804   2.969   2.988   6.200  0.1129 -0.4723 -0.3673
   24MOL   H11915805   2.843   2.883   6.135 -1.4648  1.0297  0.2502
   24MOL   H12015806   2.772   3.160   6.207 -1.8484 -1.6973  1.3061
   24MOL   H12115807   2.691   3.040   6.104 -0.1902  0.6782  0.0063
   24MOL   H12215808   2.953   3.189   6.058  0.1780 -0.7440  1.0062
   24MOL   H12315809   2.888   3.071   5.948  1.0103 -0.2020  1.0723
   24MOL   H12415810   2.718   3.315   6.038  1.0196  1.8932 -1.7771
   24MOL   H12515811   2.682   3.200   5.912  1.0636  0.2974 -1.4966
   24MOL   H12615812   2.723   3.383   5.799 -0.7909 -0.5207  2.8688
   24MOL   H12715813   2.864   3.272   5.768  1.7768  0.0929  0.8878
   24MOL   H12815814   2.860   3.492   5.975  1.4186 -0.0503  0.8916
   24MOL   H12915815   3.001   3.412   5.924 -0.8977 -2.0180  0.6675
   24MOL   H13015816   2.826   3.597   5.749 -1.1111 -1.4418  2.4998
   24MOL   H13115817   2.974   3.511   5.707 -0.5458  0.8104 -0.9603
   24MOL   H13215818   2.936   3.706   5.926  0.1729  1.2388 -1.6218
   24MOL   H13315819   3.092   3.633   5.889  0.7649  0.9108  1.5920
   24MOL   H13415820   2.946   3.834   5.706 -0.4293 -1.7840 -0.5486
   24MOL   H13515821   3.094   3.757   5.668 -0.3001 -1.7825  0.7816
   24MOL   H13615822   3.024   3.969   5.864  1.1559  1.1777 -0.4200
   24MOL   H13715823   3.136   3.987   5.744  1.5544 -0.8622  0.1611
   24MOL   N13815824   3.321   3.842   5.913  0.2483 -0.2604 -0.7171
   24MOL   C13915825   3.425   3.837   6.016 -0.3435 -0.4343 -0.0963
   24MOL   C14015826   3.424   3.718   6.116  0.7916 -0.2441 -0.4179
   24MOL   C14115827   3.547   3.710   6.209 -0.2710  0.4836 -0.4171
   24MOL   C14215828   3.554   3.823   6.306  0.0522 -0.7122 -0.6056
   24MOL   C14315829   3.659   3.812   6.420  0.0539  0.2263 -0.5477
   24MOL   C14415830   3.642   3.683   6.507  0.4255  0.3970  0.3839
   24MOL   C14515831   3.497   3.666   6.561  0.3714 -0.3111 -0.3378
   24MOL   C14615832   3.493   3.592   6.695 -0.3941  0.7272  0.0034
   24MOL   C14715833   3.346   3.554   6.718  0.3314 -0.0385 -0.1274
   24MOL   C14815834   3.259   3.683   6.728 -0.0328 -0.2085 -0.0645
   24MOL   C14915835   3.284   3.782   6.841  0.4845  0.3354  0.4585
   24MOL   O15015836   3.282   3.748   6.960 -0.3033  0.3147  0.2122
   24MOL   H15115837   3.348   3.840   5.816  1.7268  1.8029 -0.3750
   24MOL   H15215838   3.521   3.849   5.966 -0.7450 -0.2294 -0.8340
   24MOL   H15315839   3.414   3.929   6.073  3.2799  0.4961 -0.7855
   24MOL   H15415840   3.408   3.626   6.061 -0.0639 -1.2004  1.3881
   24MOL   H15515841   3.336   3.724   6.180  1.1790 -0.2692  0.1216
   24MOL   H15615842   3.550   3.619   6.269  3.3138  0.8063  0.0173
   24MOL   H15715843   3.637   3.711   6.147 -0.2194  0.8636 -0.3392
   24MOL   H15815844   3.457   3.854   6.344  0.0743 -0.6302 -0.6154
   24MOL   H15915845   3.574   3.907   6.239  0.6462 -1.5499 -1.4979
   24MOL   H16015846   3.662   3.905   6.478 -0.3614 -0.4140  0.5112
   24MOL   H16115847   3.759   3.815   6.376  0.0688 -0.8490 -0.6082
   24MOL   H16215848   3.665   3.606   6.432  2.7053  1.0714  0.3435
   24MOL   H16315849   3.717   3.682   6.586  4.0161  3.6088 -2.7771
   24MOL   H16415850   3.431   3.629   6.482  0.5505 -0.2416 -0.5220
   24MOL   H16515851   3.460   3.766   6.584  0.4254 -0.3077 -0.2672
   24MOL   H16615852   3.551   3.500   6.700 -0.9564  0.4618  2.6006
   24MOL   H16715853   3.528   3.644   6.785  0.8612  0.0935 -0.1111
   24MOL   H16815854   3.324   3.505   6.813  0.3147 -1.0967 -0.6759
   24MOL   H16915855   3.308   3.491   6.638  0.3928  0.0510 -0.2285
   24MOL   H17015856   3.160   3.640   6.745  0.3766 -0.6017  1.3743
   24MOL   H17115857   3.260   3.723   6.627 -3.1868 -3.6800 -1.5955
   24MOL   N17215858   3.332   3.900   6.796 -0.1443  0.5585  0.0184
   24MOL   C17315859   3.379   4.006   6.882 -0.6256 -0.4865  0.4509
   24MOL   C17415860   3.434   4.120   6.799  0.2493  0.3801  0.4717
   24MOL   C17515861   3.561   4.088   6.717  0.3982  0.3239 -0.4054
   24MOL   C17615862   3.678   4.071   6.815 -0.0950  0.3134 -0.0307
   24MOL   C17715863   3.811   4.024   6.737  0.0112 -0.1733 -0.5681
   24MOL   C17815864   3.856   4.106   6.612  0.3138  0.7267 -0.3217
   24MOL   C17915865   3.892   4.246   6.645 -0.1823  0.9248 -0.4879
   24MOL   C18015866   3.974   4.312   6.529 -0.0737  0.5906  0.9260
   24MOL   C18115867   4.000   4.453   6.573  0.6245  0.2715  0.0238
   24MOL   C18215868   3.871   4.537   6.570  0.0146  0.0817  0.1054
   24MOL   C18315869   3.806   4.556   6.431  0.2209 -0.4299  0.1115
   24MOL   O18415870   3.875   4.555   6.331  0.2388 -0.0083 -0.2896
   24MOL   H18515871   3.355   3.906   6.698 -2.0979  5.3158 -0.3097
   24MOL   H18615872   3.295   4.033   6.946 -1.0042 -0.7189  0.0525
   24MOL   H18715873   3.454   3.976   6.955  0.9204 -0.3242 -1.0333
   24MOL   H18815874   3.454   4.190   6.880 -0.4029  0.3929  0.6259
   24MOL   H18915875   3.359   4.162   6.732 -1.9958  2.2138  3.9481
   24MOL   H19015876   3.536   4.003   6.653 -2.0783  2.0437 -1.8119
   24MOL   H19115877   3.594   4.168   6.651  0.2619  3.1918  2.9032
   24MOL   H19215878   3.671   3.999   6.897  2.4263  1.9453  1.6851
   24MOL   H19315879   3.691   4.162   6.873  0.0269 -0.1950  0.7669
   24MOL   H19415880   3.786   3.925   6.699 -1.4324  0.1414 -0.4592
   24MOL   H19515881   3.890   4.013   6.812  0.1417 -0.1187 -0.6958
   24MOL   H19615882   3.947   4.061   6.572  0.5159  1.4030 -0.6225
   24MOL   H19715883   3.776   4.116   6.539  0.8274  1.1507 -0.8309
   24MOL   H19815884   3.952   4.252   6.736  0.9075  0.2447 -1.1398
   24MOL   H19915885   3.803   4.302   6.673 -1.3797 -0.7530 -0.8331
   24MOL   H20015886   4.066   4.261   6.501 -0.5023 -1.8174  3.6259
   24MOL   H20115887   3.913   4.304   6.439  2.0009  2.4039 -0.6913
   24MOL   H20215888   4.078   4.506   6.518  0.9153  0.9650  1.0887
   24MOL   H20315889   4.037   4.446   6.675  1.0739  0.5727 -0.1132
   24MOL   H20415890   3.899   4.636   6.605  2.2394 -0.3239 -0.4574
   24MOL   H20515891   3.791   4.508   6.638 -0.8047  0.6154 -0.6137
   24MOL   N20615892   3.674   4.581   6.428  0.4778 -0.2943  0.8560
   24MOL   C20715893   3.598   4.596   6.308 -0.4289 -1.1595  0.1650
   24MOL   C20815894   3.611   4.741   6.252 -0.1140 -0.0016 -0.1047
   24MOL   C20915895   3.543   4.752   6.112 -0.0283  0.6630  0.5608
   24MOL   C21015896   3.539   4.895   6.059  0.2311  0.2248 -0.2063
   24MOL   C21115897   3.441   4.906   5.937 -0.4764  0.0303 -0.3163
   24MOL   C21215898   3.518   4.870   5.810  0.1771 -0.3149 -0.7376
   24MOL   C21315899   3.439   4.880   5.683 -0.2664 -0.0061 -0.5168
   24MOL   C21415900   3.372   4.752   5.624 -0.2000  0.6783  0.8727
   24MOL   C21515901   3.289   4.783   5.495  0.0267  0.1732  0.4402
   24MOL   C21615902   3.135   4.806   5.507 -0.5999 -0.2037 -0.1773
   24MOL   C21715903   3.095   4.924   5.598  0.4276  0.0776 -1.4170
   24MOL   O21815904   3.143   5.038   5.594 -0.1210 -0.0962  0.2572
   24MOL   H21915905   3.623   4.590   6.515 -0.6916  2.4618 -0.0373
   24MOL   H22015906   3.496   4.572   6.336 -0.1529 -0.4130  1.8303
   24MOL   H22115907   3.618   4.522   6.230 -1.0897  0.2281 -1.3498
   24MOL   H22215908   3.717   4.767   6.254  0.5262 -2.4592 -0.8939
   24MOL   H22315909   3.562   4.806   6.324 -2.2767 -1.6861 -0.0012
   24MOL   H22415910   3.602   4.697   6.038 -1.0620  0.2646  0.0243
   24MOL   H22515911   3.445   4.707   6.128  1.4238 -2.9727 -0.2263
   24MOL   H22615912   3.643   4.921   6.036  0.5767 -1.0826 -0.1459
   24MOL   H22715913   3.493   4.959   6.134 -0.4123 -3.1422  2.3916
   24MOL   H22815914   3.392   5.003   5.929  1.1462  0.8070 -1.1721
   24MOL   H22915915   3.350   4.848   5.955  0.9985 -1.5497  2.3780
   24MOL   H23015916   3.603   4.938   5.803  0.3162 -0.4410 -0.3299
   24MOL   H23115917   3.564   4.771   5.820 -0.1628 -0.2373  2.0532
   24MOL   H23215918   3.513   4.893   5.603 -1.5771 -0.9465 -1.9225
   24MOL   H23315919   3.365   4.959   5.676 -1.5359 -1.0772  0.6002
   24MOL   H23415920   3.449   4.678   5.604 -0.8157  0.2303  0.1028
   24MOL   H23515921   3.309   4.712   5.703 -0.6990  0.3187  0.2967
   24MOL   H23615922   3.306   4.702   5.424  3.1584  2.4053 -1.4727
   24MOL   H23715923   3.327   4.870   5.441 -0.4072  0.2520  0.2568
   24MOL   H23815924   3.095   4.725   5.569 -1.6169 -0.4839 -1.1879
   24MOL   H23915925   3.089   4.809   5.408 -3.3628  1.3294  1.1017
   24MOL   N24015926   2.995   4.897   5.685 -0.1389 -0.0423 -0.0456
   24MOL   C24115927   2.944   4.983   5.794  0.5853 -0.5413  0.0881
   24MOL   C24215928   2.836   5.064   5.714 -0.3326  0.2689  0.0107
   24MOL   C24315929   2.730   5.124   5.804  0.0329  0.2734 -0.5379
   24MOL   C24415930   2.612   5.192   5.726 -0.3864 -0.0971  0.7949
   24MOL   C24515931   2.511   5.247   5.835  0.5594 -0.0409  0.2836
   24MOL   C24615932   2.390   5.330   5.777 -0.6297 -0.1680  0.0328
   24MOL   C24715933   2.318   5.431   5.877  0.6117  0.2438 -0.3409
   24MOL   C24815934   2.400   5.552   5.907  0.1108 -0.3730 -0.8474
   24MOL   C24915935   2.318   5.641   6.006  0.2336  0.1920 -0.0277
   24MOL   C25015936   2.401   5.766   6.056 -0.4628  0.0602  0.9053
   24MOL   C25115937   2.320   5.869   6.141  0.1434  0.1828  0.6022
   24MOL   O25215938   2.376   5.943   6.218  0.2476 -0.3688 -0.3179
   24MOL   H25315939   2.966   4.801   5.675  3.0084 -1.1489  0.6563
   24MOL   H25415940   3.020   5.051   5.831  0.0302  0.9750 -1.4991
   24MOL   H25515941   2.914   4.919   5.876  2.7650 -2.1900 -0.3517
   24MOL   H25615942   2.781   5.003   5.641 -1.6893  0.5378  0.7876
   24MOL   H25715943   2.875   5.149   5.658 -1.2304  1.9096  1.8163
   24MOL   H25815944   2.687   5.045   5.865  1.1530 -0.5786 -0.8475
   24MOL   H25915945   2.788   5.183   5.874  1.0075 -1.0180 -0.2401
   24MOL   H26015946   2.556   5.125   5.660 -0.0647  0.2505  0.1640
   24MOL   H26115947   2.646   5.273   5.661 -0.7868 -2.0508 -1.9524
   24MOL   H26215948   2.555   5.300   5.919  0.6378 -0.3790  0.4596
   24MOL   H26315949   2.474   5.156   5.883  1.1550 -0.9723 -0.9824
   24MOL   H26415950   2.407   5.391   5.689 -0.5995  0.6327  0.5931
   24MOL   H26515951   2.314   5.262   5.738 -0.8279  1.1686 -1.9870
   24MOL   H26615952   2.292   5.380   5.970  1.7456 -1.3486 -0.8713
   24MOL   H26715953   2.221   5.455   5.834 -0.5503  1.3327  2.7207
   24MOL   H26815954   2.494   5.516   5.947  1.6380  2.9274 -1.2928
   24MOL   H26915955   2.434   5.610   5.821 -0.2108  1.2044  0.0522
   24MOL   H27015956   2.291   5.577   6.090 -3.3046  2.0170  0.3431
   24MOL   H27115957   2.223   5.667   5.959 -0.4263 -0.3829  0.9764
   24MOL   H27215958   2.427   5.813   5.961 -2.2132 -2.1936 -0.7460
   24MOL   H27315959   2.492   5.738   6.109 -0.0501 -1.5302 -0.6331
   24MOL   N27415960   2.189   5.883   6.126 -0.0313  0.0158 -0.3524
   24MOL   C27515961   2.095   5.980   6.180  0.0859  0.0215 -0.1388
   24MOL   C27615962   2.076   6.078   6.071  0.5032  0.1532  0.6543
   24MOL   C27715963   1.983   6.012   5.961 -0.3059 -0.2740  0.2409
   24MOL   C27815964   1.966   6.092   5.830 -0.2624 -0.4753  0.5733
   24MOL   C27915965   1.898   6.002   5.722 -0.3920 -0.2158  0.3863
   24MOL   C28015966   1.856   6.085   5.593 -0.4813 -0.4148 -0.1623
   24MOL   C28115967   1.777   6.015   5.482 -0.1774  0.6118 -0.7166
   24MOL   C28215968   1.771   6.085   5.348  0.5493  0.0999  0.2983
   24MOL   C28315969   1.716   6.005   5.231  0.5528 -0.6624 -0.3427
   24MOL   C28415970   1.645   6.086   5.118  0.3744  0.7107 -0.1337
   24MOL   C28515971   1.593   6.002   5.001 -1.1121  0.6441  0.4660
   24MOL   O28615972   1.518   5.905   5.023  0.4109 -0.6450  1.1024
   24MOL   H28715973   2.147   5.811   6.069 -0.9314  0.2311  0.0320
   24MOL   H28815974   2.141   6.023   6.269 -0.7921  0.4091  0.1315
   24MOL   H28915975   2.001   5.943   6.222 -0.2320  2.4071  1.3686
   24MOL   H29015976   2.171   6.100   6.023  0.3546  0.6783  0.6065
   24MOL   H29115977   2.036   6.172   6.108  1.4595  1.8054 -2.3278
   24MOL   H29215978   2.031   5.919   5.930  2.2407  0.3348  2.2027
   24MOL   H29315979   1.888   5.986   6.006  0.7078 -1.7563  1.5801
   24MOL   H29415980   2.064   6.120   5.790  0.5734 -1.0379  2.1758
   24MOL   H29515981   1.908   6.184   5.836  1.8117  0.9369 -0.3029
   24MOL   H29615982   1.810   5.956   5.768  1.7562 -2.9161  1.9067
   24MOL   H29715983   1.962   5.923   5.684 -0.2656  0.5420 -1.0087
   24MOL   H29815984   1.779   6.158   5.617 -0.3606 -1.1844  2.6992
   24MOL   H29915985   1.941   6.136   5.549 -0.3813 -1.7373 -1.5489
   24MOL   H30015986   1.678   5.981   5.515  0.2158 -0.2537 -0.4243
   24MOL   H30115987   1.839   5.926   5.473  0.9033  1.4759 -1.9514
   24MOL   H30215988   1.708   6.173   5.368  3.1913  2.3174 -0.7862
   24MOL   H30315989   1.871   6.126   5.329  1.4086 -1.4396  1.4578
   24MOL   H30415990   1.646   5.933   5.273 -1.0009  0.4921 -0.9098
   24MOL   H30515991   1.805   5.956   5.192  0.1954 -1.3919 -0.2516
   24MOL   H30615992   1.719   6.161   5.091  0.2413  0.8176 -0.1976
   24MOL   H30715993   1.566   6.148   5.158 -1.2033  0.7831 -3.2298
   24MOL   N30815994   1.640   6.037   4.879  0.9051 -0.8046  0.1427
   24MOL   C30915995   1.607   5.979   4.751 -0.2588 -0.5822  0.3451
   24MOL   C31015996   1.741   5.924   4.695  0.4159  0.2801  0.3092
   24MOL   C31115997   1.713   5.815   4.589 -0.3407 -0.4187  0.2828
   24MOL   C31215998   1.841   5.733   4.558 -0.2908  0.1380 -0.2151
   24MOL   C31315999   1.821   5.628   4.446  0.1106 -0.4508  0.4301
   24MOL   C31416000   1.952   5.570   4.417 -0.0988 -0.1763  0.1213
   24MOL   C31516001   1.931   5.464   4.306 -0.2738 -0.1044 -1.0149
   24MOL   C31616002   1.882   5.320   4.346  0.2361 -0.0819  0.2338
   24MOL   C31716003   1.900   5.224   4.222  0.3720 -0.0407 -0.1313
   24MOL   C31816004   1.838   5.085   4.253 -0.5425  0.2501 -0.5071
   24MOL   C31916005   1.685   5.092   4.247  0.0311 -0.4773 -0.5101
   24MOL   O32016006   1.624   5.162   4.169 -0.3465  0.2663  0.0484
   24MOL   H32116007   1.700   6.118   4.884 -0.9768  0.5282  1.8823
   24MOL   H32216008   1.582   6.051   4.674  1.6849 -0.2306  0.0122
   24MOL   H32316009   1.535   5.899   4.766 -0.9230 -0.3205 -1.3980
   24MOL   H32416010   1.795   5.878   4.778 -0.7983 -1.6282  0.0812
   24MOL   H32516011   1.810   6.000   4.659  0.6109 -0.8415 -1.8014
   24MOL   H32616012   1.635   5.747   4.622  1.4938 -1.2299  3.1529
   24MOL   H32716013   1.676   5.866   4.500 -0.7938  1.1114  1.3322
   24MOL   H32816014   1.877   5.691   4.652  0.1982  1.5981  0.2577
   24MOL   H32916015   1.916   5.803   4.522  0.4928 -1.0612 -0.9079
   24MOL   H33016016   1.791   5.680   4.355 -0.1327 -1.5315 -0.1203
   24MOL   H33116017   1.754   5.549   4.480  1.1393 -0.8240  1.6438
   24MOL   H33216018   2.038   5.636   4.402  0.4855 -0.5633  1.7487
   24MOL   H33316019   1.979   5.519   4.509  0.0484  0.0812  0.2213
   24MOL   H33416020   2.024   5.446   4.252  1.7187 -0.0822  2.2519
   24MOL   H33516021   1.862   5.503   4.232 -1.6008  0.8272  0.6830
   24MOL   H33616022   1.929   5.278   4.435 -1.4618  1.9114  2.1381
   24MOL   H33716023   1.775   5.323   4.367  0.0835 -0.3861 -0.4722
   24MOL   H33816024   2.006   5.214   4.198 -0.2792 -0.5904 -2.9934
   24MOL   H33916025   1.860   5.273   4.134  0.8374 -0.5234 -0.6180
   24MOL   H34016026   1.873   5.054   4.351  0.2120 -2.0623 -1.4673
   24MOL   H34116027   1.867   5.011   4.179  0.3932 -1.9731  2.0032
   24MOL   N34216028   1.633   5.021   4.350 -0.7095 -0.1892  0.1812
   24MOL   C34316029   1.493   5.003   4.374  0.0237  0.5272 -0.3889
   24MOL   C34416030   1.452   5.087   4.500  0.4626  0.2019 -0.5649
   24MOL   C34516031   1.296   5.093   4.518  0.4430 -0.5450 -0.3017
   24MOL   C34616032   1.232   4.956   4.537  0.0671  0.4756  0.5566
   24MOL   C34716033   1.267   4.896   4.675 -0.3672 -0.2976 -0.2924
   24MOL   C34816034   1.176   4.946   4.783 -0.1009  0.2623  0.4068
   24MOL   C34916035   1.240   4.961   4.920 -0.3867 -0.2299 -0.1332
   24MOL   C35016036   1.303   4.834   4.979  0.0890  0.5304  0.0627
   24MOL   C35116037   1.312   4.844   5.135  0.7926 -0.2835 -1.0472
   24MOL   C35216038   1.407   4.740   5.202 -0.7967 -0.3514 -0.0787
   24MOL   C35316039   1.555   4.766   5.183  0.4500 -0.1266  0.4828
   24MOL   O35416040   1.590   4.841   5.092  0.2177  0.4034 -0.5197
   24MOL   H35516041   1.689   4.956   4.405 -0.6941  0.3645  0.8233
   24MOL   H35616042   1.433   5.038   4.290 -2.4015  1.1941  1.5473
   24MOL   H35716043   1.484   4.897   4.398  1.7826  1.0394  2.7454
   24MOL   H35816044   1.487   5.190   4.490 -3.2601  1.5357 -0.5857
   24MOL   H35916045   1.503   5.054   4.591 -0.9295 -1.0292 -0.2146
   24MOL   H36016046   1.279   5.155   4.606  2.4962 -0.6336  0.2030
   24MOL   H36116047   1.258   5.139   4.427 -0.3862 -1.2902 -0.3314
   24MOL   H36216048   1.257   4.899   4.448 -3.0921  1.2774 -0.9116
   24MOL   H36316049   1.123   4.962   4.542 -0.0349 -1.7476  1.5653
   24MOL   H36416050   1.368   4.931   4.699 -0.0087 -1.1680 -0.4805
   24MOL   H36516051   1.264   4.787   4.679 -4.1241 -0.2053  1.2718
   24MOL   H36616052   1.146   5.046   4.753 -3.6221 -0.6398  0.5889
   24MOL   H36716053   1.079   4.896   4.789  1.0764 -2.2308 -0.5083
   24MOL   H36816054   1.156   4.992   4.982  0.5824 -0.8101  1.4781
   24MOL   H36916055   1.317   5.037   4.912 -1.5197  1.1907  1.9703
   24MOL   H37016056   1.244   4.744   4.961 -1.6394  1.8003 -0.6952
   24MOL   H37116057   1.399   4.815   4.932 -0.1017 -0.2292 -0.0267
   24MOL   H37216058   1.212   4.839   5.180  0.6377 -1.7013 -1.5449
   24MOL   H37316059   1.352   4.944   5.155 -2.8283  0.9637  0.3988
   24MOL   H37416060   1.391   4.634   5.181 -3.6248 -0.3799  1.9383
   24MOL   H37516061   1.380   4.735   5.308 -1.4150  1.5292 -0.1454
   24MOL   N37616062   1.643   4.704   5.263  0.1980 -0.2623 -0.5874
   24MOL   C37716063   1.788   4.696   5.252 -0.2026  0.6284 -0.3086
   24MOL   C37816064   1.853   4.753   5.379  0.0287 -0.0187 -0.2825
   24MOL   C37916065   2.002   4.733   5.375 -0.7237 -0.1405 -0.5294
   24MOL   C38016066   2.088   4.800   5.489  0.1821  0.1573 -0.3589
   24MOL   C38116067   2.241   4.771   5.478 -0.6730  0.0315  0.1791
   24MOL   C38216068   2.321   4.838   5.594 -0.1932  0.1276  0.9915
   24MOL   C38316069   2.477   4.846   5.592 -0.1225 -0.1544  0.0800
   24MOL   C38416070   2.553   4.713   5.575  0.1773  0.1450 -0.5072
   24MOL   C38516071   2.684   4.731   5.510  0.0806  0.8451  0.0241
   24MOL   C38616072   2.764   4.603   5.515  0.4143  0.1872  0.1693
   24MOL   C38716073   2.817   4.566   5.655 -0.6760 -0.1530 -0.1958
   24MOL   O38816074   2.875   4.656   5.725  0.5667  0.2052  0.7560
   24MOL   H38916075   1.599   4.654   5.339  0.2210 -1.7485 -1.5408
   24MOL   H39016076   1.825   4.596   5.232 -0.7313  0.4684 -0.4986
   24MOL   H39116077   1.811   4.768   5.173 -2.3445  1.0024 -0.6177
   24MOL   H39216078   1.809   4.713   5.470  2.5921 -0.1005  0.9543
   24MOL   H39316079   1.831   4.859   5.363 -1.0907 -0.1467  0.3342
   24MOL   H39416080   2.041   4.632   5.359  0.2999  0.0742  0.5741
   24MOL   H39516081   2.033   4.783   5.283  1.5862  0.8292  0.7474
   24MOL   H39616082   2.065   4.759   5.587 -0.5948 -2.0042 -1.4221
   24MOL   H39716083   2.072   4.908   5.494  0.4489  0.1011  1.8883
   24MOL   H39816084   2.275   4.815   5.385 -0.7943  0.7043  0.4466
   24MOL   H39916085   2.276   4.668   5.471 -1.0970 -0.2215  1.5159
   24MOL   H40016086   2.281   4.940   5.595  0.2980  0.3114  1.7617
   24MOL   H40116087   2.297   4.791   5.689 -0.5512 -1.2310  0.2502
   24MOL   H40216088   2.512   4.900   5.680 -0.6615 -0.8552  0.7306
   24MOL   H40316089   2.497   4.913   5.508  1.5549 -1.4823 -0.6054
   24MOL   H40416090   2.560   4.673   5.676  2.7664  2.3269  0.2295
   24MOL   H40516091   2.501   4.634   5.521 -2.1330  0.7297  0.7733
   24MOL   H40616092   2.736   4.811   5.563  2.9357 -0.4931 -0.6633
   24MOL   H40716093   2.667   4.780   5.413  0.2583 -0.9601 -0.9347
   24MOL   H40816094   2.853   4.619   5.455 -1.3153 -2.2919 -3.2339
   24MOL   H40916095   2.718   4.517   5.466 -1.7719  0.8912  0.9293
   24MOL   N41016096   2.791   4.443   5.700 -0.4591  0.0496  0.2531
   24MOL   C41116097   2.824   4.389   5.825 -0.3344  0.0809  0.0060
   24MOL   C41216098   2.845   4.233   5.828 -0.2569 -0.8498 -0.3524
   24MOL   C41316099   2.868   4.195   5.976  0.1168  0.7001  0.3114
   24MOL   C41416100   2.782   4.079   6.021  0.1249  0.4880  0.6309
   24MOL   C41516101   2.817   4.020   6.164 -0.0227  0.1620 -0.1053
   24MOL   C41616102   2.801   4.133   6.272 -0.1965  0.9683  0.2803
   24MOL   C41716103   2.793   4.082   6.414  0.4515 -0.0303 -0.9839
   24MOL   C41816104   2.769   4.194   6.512 -0.1533  0.2863  0.4752
   24MOL   C41916105   2.902   4.239   6.581  1.3098 -0.4018 -0.1899
   24MOL   C42016106   2.962   4.138   6.682  0.4510 -0.5499 -0.1135
   24MOL   C42116107   3.055   4.204   6.784 -1.0766 -0.5768 -0.3225
   24MOL   O42216108   3.121   4.306   6.758  0.1584 -0.2881  0.4446
   24MOL   H42316109   2.740   4.378   5.641 -0.3505  1.0046 -0.9012
   24MOL   H42416110   2.910   4.435   5.874 -1.1732  3.1926 -1.3746
   24MOL   H42516111   2.743   4.419   5.892 -0.4843  0.3031 -0.2758
   24MOL   H42616112   2.920   4.203   5.754 -0.8976  2.0161 -2.2639
   24MOL   H42716113   2.752   4.190   5.793 -0.2486 -0.7867 -0.4548
   24MOL   H42816114   2.973   4.170   5.987 -0.3622 -1.5862 -0.0642
   24MOL   H42916115   2.845   4.275   6.047  1.4915  2.1452 -0.8338
   24MOL   H43016116   2.800   3.999   5.949  2.3630 -1.1222  2.8863
   24MOL   H43116117   2.680   4.117   6.019  0.1592  0.5722  0.4304
   24MOL   H43216118   2.922   3.993   6.157 -0.0294  0.7791 -3.4746
   24MOL   H43316119   2.751   3.936   6.186 -0.5802 -0.0408 -2.4696
   24MOL   H43416120   2.877   4.210   6.277  0.1740  0.6902 -0.8846
   24MOL   H43516121   2.714   4.195   6.247  0.5102  1.2381 -1.6535
   24MOL   H43616122   2.885   4.033   6.446 -0.3931 -0.8554  0.2382
   24MOL   H43716123   2.710   4.012   6.422  1.1816 -0.8021 -0.0927
   24MOL   H43816124   2.717   4.280   6.469 -2.9768 -1.6852 -0.1793
   24MOL   H43916125   2.700   4.162   6.590 -2.6156  2.8525 -0.5749
   24MOL   H44016126   2.872   4.333   6.627 -1.3421 -1.4890  0.4338
   24MOL   H44116127   2.980   4.270   6.512  2.5150  1.9456  2.1208
   24MOL   H44216128   3.015   4.065   6.621 -1.3548 -0.3273 -2.0063
   24MOL   H44316129   2.876   4.096   6.735 -0.4712 -0.4005 -1.4615
   24MOL   N44416130   3.047   4.164   6.911  0.7744  0.7447 -0.1585
   24MOL   C44516131   3.105   4.239   7.027  0.4276  0.0710  0.4583
   24MOL   C44616132   3.101   4.150   7.159  0.9016 -0.2968 -0.1390
   24MOL   C44716133   3.184   4.203   7.279  0.0459  0.2757  0.0991
   24MOL   C44816134   3.181   4.105   7.392  0.1066  0.1572 -0.5843
   24MOL   C44916135   3.228   4.150   7.534  0.2231  0.0818 -0.3215
   24MOL   C45016136   3.116   4.243   7.594  0.4494  0.6505 -0.3921
   24MOL   C45116137   3.116   4.239   0.037 -0.1789  0.0467  0.0979
   24MOL   C45216138   3.005   4.329   0.087 -0.6839 -0.1023 -0.2693
   24MOL   C45316139   2.869   4.266   0.089 -0.4958 -0.5191  0.4986
   24MOL   C45416140   2.786   4.349   0.187 -0.3233  0.2666  0.2874
   24MOL   C45516141   2.737   4.477   0.130 -0.1499 -1.0679  0.3325
   24MOL   O45616142   2.805   4.574   0.101  0.6067  0.1794 -0.7113
   24MOL   H45716143   2.990   4.084   6.935  0.8107  1.1596  1.3933
   24MOL   H45816144   3.206   4.273   7.004  0.9617 -1.8075 -0.0346
   24MOL   H45916145   3.053   4.335   7.032  1.5615  0.6969  0.4501
   24MOL   H46016146   3.122   4.047   7.129 -1.7010 -0.6113 -1.0040
   24MOL   H46116147   3.000   4.141   7.199  1.1156 -0.3681  0.3843
   24MOL   H46216148   3.285   4.225   7.245  1.1561  0.3397  3.2328
   24MOL   H46316149   3.154   4.300   7.319 -1.5683 -1.1314  2.4241
   24MOL   H46416150   3.236   4.011   7.381 -0.0376 -0.0149  0.2046
   24MOL   H46516151   3.077   4.078   7.408  0.8842 -1.7023  1.5354
   24MOL   H46616152   3.326   4.197   7.531  0.3011  0.2375  3.0487
   24MOL   H46716153   3.241   4.063   7.598  1.3719  0.7162  0.3129
   24MOL   H46816154   3.143   4.343   7.559  1.0628  0.5115 -0.3321
   24MOL   H46916155   3.019   4.217   7.552  1.1715 -2.0367 -0.4816
   24MOL   H47016156   3.211   4.270   0.081  0.4161 -2.8589  1.0206
   24MOL   H47116157   3.094   4.137   0.068 -0.3577 -0.0246 -0.2551
   24MOL   H47216158   3.041   4.375   0.180 -0.6029 -0.7457  0.0179
   24MOL   H47316159   2.993   4.417   0.023  0.8557 -1.3707 -2.3778
   24MOL   H47416160   2.871   4.161   0.118 -2.3184 -0.3480  1.3048
   24MOL   H47516161   2.849   4.262   7.698 -0.1529  1.3579  0.3457
   24MOL   H47616162   2.837   4.376   0.280  1.3442  0.1252 -0.5639
   24MOL   H47716163   2.713   4.272   0.212 -0.4939  0.1120 -0.6726
   24MOL   N47816164   2.598   4.486   0.122 -0.7370 -0.0043  0.0400
   24MOL   C47916165   2.522   4.610   0.105 -0.0076 -0.1843 -0.1393
   24MOL   C48016166   2.445   4.604   7.690 -0.1322  0.0770 -1.0837
   24MOL   C48116167   2.383   4.745   7.662 -0.0646 -0.3207 -0.1462
   24MOL   C48216168   2.324   4.760   7.516 -0.2299 -0.0353 -0.5847
   24MOL   C48316169   2.291   4.902   7.467 -0.2580  0.2678  0.0274
   24MOL   C48416170   2.227   4.916   7.331 -0.1995  0.0257 -0.2129
   24MOL   C48516171   2.196   5.059   7.292 -0.2141  0.6400 -0.8044
   24MOL   C48616172   2.140   5.081   7.157  0.0639  0.1678 -0.0035
   24MOL   C48716173   1.997   5.024   7.132 -1.3324 -0.0790  0.3315
   24MOL   C48816174   1.919   5.092   7.010 -0.1772 -0.2891  0.0391
   24MOL   C48916175   1.855   5.226   7.035 -0.4700  0.2800  0.5477
   24MOL   O49016176   1.796   5.250   7.140  0.2710 -0.1528 -0.5800
   24MOL   H49116177   2.551   4.397   0.127  0.0277 -0.6723 -3.4515
   24MOL   H49216178   2.450   4.610   0.187 -0.5906  1.1624 -0.6295
   24MOL   H49316179   2.589   4.693   0.124 -0.0318 -0.2922  0.4329
   24MOL   H49416180   2.366   4.532   7.711 -0.2739  0.7389  0.8129
   24MOL   H49516181   2.504   4.567   7.607  2.7066  0.4458  0.7122
   24MOL   H49616182   2.298   4.763   0.012  1.1479  2.5989  0.6994
   24MOL   H49716183   2.455   4.821   7.692 -1.4050  1.4288 -1.2441
   24MOL   H49816184   2.231   4.703   7.511 -0.1536 -0.1513 -0.7089
   24MOL   H49916185   2.395   4.716   7.445  0.6300  0.2926  0.0696
   24MOL   H50016186   2.383   4.961   7.470  1.8230 -2.5955 -2.6013
   24MOL   H50116187   2.219   4.937   7.541  1.2305 -0.6963  1.9647
   24MOL   H50216188   2.277   4.857   7.254  1.3448  0.1132  0.7100
   24MOL   H50316189   2.133   4.860   7.332 -0.7138  0.8704 -0.4351
   24MOL   H50416190   2.290   5.113   7.284  1.3913 -1.8280  0.6996
   24MOL   H50516191   2.128   5.099   7.368  2.0088  0.1421  1.5197
   24MOL   H50616192   2.136   5.190   7.154  0.5836  0.1668 -1.1097
   24MOL   H50716193   2.215   5.044   7.086  0.4632 -0.2823  0.6510
   24MOL   H50816194   1.929   5.027   7.216  0.0535  0.8741  1.4487
   24MOL   H50916195   2.010   4.921   7.099 -0.5596  0.1609 -0.1384
   24MOL   H51016196   1.839   5.024   6.980  0.8336 -0.9851 -1.1528
   24MOL   H51116197   1.984   5.079   6.923  0.0424 -1.6783  0.3910
   24MOL   N51216198   1.858   5.320   6.941  0.2078  0.0163  0.1890
   24MOL   C51316199   1.791   5.447   6.938 -0.6248  0.6298 -0.3406
   24MOL   C51416200   1.639   5.427   6.967  0.6411 -0.1467  0.0830
   24MOL   C51516201   1.565   5.334   6.864 -0.2381 -0.6997  0.0041
   24MOL   C51616202   1.422   5.294   6.895  0.3514  0.2674 -0.0975
   24MOL   C51716203   1.401   5.180   6.997 -0.5568  0.9047 -0.2013
   24MOL   C51816204   1.452   5.205   7.144 -0.5138 -0.0384  0.1627
   24MOL   C51916205   1.377   5.126   7.248  0.1819  0.3960  0.5616
   24MOL   C52016206   1.383   5.169   7.391 -0.4127  0.1621  0.6864
   24MOL   C52116207   1.265   5.113   7.480 -0.1952  0.2299 -0.0201
   24MOL   C52216208   1.242   4.964   7.495  0.2633  0.0723  1.1785
   24MOL   C52316209   1.373   4.894   7.524 -0.4298  0.0010 -0.4017
   24MOL   O52416210   1.418   4.901   7.640 -0.5509 -0.2160 -0.4348
   24MOL   H52516211   1.928   5.310   6.869 -0.4796  2.8904 -0.9663
   24MOL   H52616212   1.831   5.502   7.023 -2.4146  1.0992  0.2168
   24MOL   H52716213   1.813   5.502   6.847 -1.4218 -2.1794 -2.3156
   24MOL   H52816214   1.590   5.524   6.974  1.6232  0.3698 -0.1665
   24MOL   H52916215   1.620   5.393   7.069 -0.0091  2.2712  0.8050
   24MOL   H53016216   1.576   5.378   6.765  2.6022 -2.4904 -0.5378
   24MOL   H53116217   1.612   5.236   6.857  0.0132 -0.6712  1.0919
   24MOL   H53216218   1.387   5.258   6.798  3.1527  0.3609 -1.1821
   24MOL   H53316219   1.358   5.380   6.914  1.5368  1.4040 -1.0546
   24MOL   H53416220   1.443   5.091   6.951 -1.5608  1.4676 -2.2822
   24MOL   H53516221   1.292   5.170   7.000 -0.6174  2.0678  2.5155
   24MOL   H53616222   1.557   5.176   7.148 -0.3070  0.0701 -2.8623
   24MOL   H53716223   1.450   5.312   7.160  3.5057  0.3358 -1.1829
   24MOL   H53816224   1.401   5.020   7.246  0.2396  0.4308 -2.3445
   24MOL   H53916225   1.273   5.121   7.215  0.8405 -2.6878 -1.2185
   24MOL   H54016226   1.486   5.154   7.424  0.4766  1.3408 -1.4938
   24MOL   H54116227   1.385   5.277   7.397  0.2148  0.2489 -0.8424
   24MOL   H54216228   1.172   5.150   7.438 -0.1889  0.2544 -0.0131
   24MOL   H54316229   1.287   5.168   7.572 -2.6311 -0.1758  0.8300
   24MOL   H54416230   1.200   4.914   7.408 -2.1318  0.7651  1.8968
   24MOL   H54516231   1.177   4.938   7.579  0.1944 -0.6224  0.9142
   24MOL   N54616232   1.438   4.833   7.418  0.2901  0.5050 -0.4886
   24MOL   C54716233   1.547   4.735   7.411 -0.7897  0.2048 -0.0281
   24MOL   C54816234   1.647   4.785   7.303  0.6520  0.2832  0.2867
   24MOL   C54916235   1.723   4.660   7.255 -0.7349  0.6436  0.6169
   24MOL   C55016236   1.836   4.675   7.153  0.1627  0.5762 -0.1140
   24MOL   C55116237   1.796   4.739   7.019  0.7829  0.3117  0.3874
   24MOL   C55216238   1.710   4.651   6.925 -0.1348  0.4999  0.8167
   24MOL   C55316239   1.633   4.737   6.824  0.2133 -0.1807  0.1493
   24MOL   C55416240   1.483   4.709   6.815 -0.4236  0.0721 -0.0715
   24MOL   C55516241   1.416   4.766   6.941  0.1712 -0.0482  0.0274
   24MOL   C55616242   1.261   4.726   6.952 -0.3548  0.4021  1.0673
   24MOL   C55716243   1.201   4.784   7.075 -0.1749  0.4970  0.6822
   24MOL   O55816244   1.275   4.794   7.176 -0.1623 -0.8060  0.2267
   24MOL   H55916245   1.385   4.843   7.332 -2.4186  1.5048  1.2393
   24MOL   H56016246   1.602   4.732   7.506 -1.2446 -0.4736  0.2199
   24MOL   H56116247   1.500   4.638   7.399 -0.6097 -0.9038  6.2807
   24MOL   H56216248   1.707   4.872   7.330  0.3056  0.5196  0.2965
   24MOL   H56316249   1.578   4.815   7.224  0.0874 -1.0501  0.2528
   24MOL   H56416250   1.757   4.603   7.341  0.7145 -0.5466 -0.7082
   24MOL   H56516251   1.651   4.588   7.215  0.7430 -1.4299  1.6009
   24MOL   H56616252   1.882   4.578   7.136 -0.6339  0.0724  0.5270
   24MOL   H56716253   1.911   4.734   7.205 -1.3191 -0.9132  3.8990
   24MOL   H56816254   1.884   4.773   6.963 -0.7353  1.5310 -1.3131
   24MOL   H56916255   1.754   4.837   7.042  1.4619  1.0409 -1.3676
   24MOL   H57016256   1.759   4.570   6.871  2.4015  2.2870  0.3566
   24MOL   H57116257   1.637   4.598   6.986  0.3924 -0.2845  0.7685
   24MOL   H57216258   1.677   4.724   6.725  0.4915  0.3376  0.2011
   24MOL   H57316259   1.649   4.843   6.846  1.9626 -0.1571 -1.1080
   24MOL   H57416260   1.441   4.763   6.730 -0.6565 -2.6269 -1.7068
   24MOL   H57516261   1.458   4.603   6.811  0.2953 -0.1410  0.9572
   24MOL   H57616262   1.416   4.875   6.940 -1.4438 -0.0280 -3.8466
   24MOL   H57716263   1.456   4.729   7.035  0.4566 -2.4356 -1.0076
   24MOL   H57816264   1.245   4.618   6.959  1.3306  0.1883  1.7738
   24MOL   H57916265   1.211   4.776   6.869  0.1379 -0.5366  0.1773
   24MOL   N58016266   1.071   4.796   7.086  0.0430 -0.0571 -0.1069
   24MOL   C58116267   1.000   4.846   7.205 -0.1982 -0.3623 -0.4261
   24MOL   C58216268   0.998   5.003   7.223  0.1193 -0.1617 -0.4627
   24MOL   C58316269   0.927   5.077   7.116  0.3738  0.1022  0.0993
   24MOL   C58416270   0.913   5.222   7.139 -0.2125  0.5549  0.1763
   24MOL   C58516271   0.821   5.295   7.033 -0.2287  0.0239  0.2015
   24MOL   C58616272   0.804   5.441   7.076 -0.8841 -0.3339  0.0363
   24MOL   C58716273   0.722   5.526   6.970 -0.0346 -0.3775 -0.8963
   24MOL   C58816274   0.735   5.682   6.995  0.6379 -0.9523  0.1712
   24MOL   C58916275   0.643   5.769   6.907  0.0530 -0.2264  0.1691
   24MOL   C59016276   0.657   5.922   6.920 -0.6899  0.1433 -0.3898
   24MOL   C59116277   0.553   6.006   6.844 -1.2379  0.1233 -0.7048
   24MOL   O59216278   0.501   5.966   6.741 -0.4874  0.0828  0.1446
   24MOL   H59316279   1.011   4.759   7.013 -2.6529 -0.3719  2.2108
   24MOL   H59416280   0.897   4.812   7.198  0.4274 -1.9983 -2.2880
   24MOL   H59516281   1.032   4.794   7.295 -1.8592  2.0449  1.6086
   24MOL   H59616282   1.100   5.035   7.247  0.6408 -1.4050 -0.9503
   24MOL   H59716283   0.950   5.025   7.318 -1.5916  0.8655 -1.5391
   24MOL   H59816284   0.969   5.055   7.018  2.2815  0.7671  0.7391
   24MOL   H59916285   0.832   5.030   7.092  0.6483  0.4456 -1.7815
   24MOL   H60016286   1.013   5.265   7.137  0.6161 -1.3640 -1.6443
   24MOL   H60116287   0.883   5.243   7.242  0.8136  0.3286  0.5270
   24MOL   H60216288   0.721   5.252   7.041  0.5216 -1.9546 -0.7810
   24MOL   H60316289   0.862   5.285   6.933 -2.1649 -1.5789 -0.4677
   24MOL   H60416290   0.761   5.448   7.176  0.4025 -0.6202  0.6143
   24MOL   H60516291   0.899   5.490   7.096  0.3386 -1.3156 -3.0593
   24MOL   H60616292   0.618   5.493   6.976 -0.5229  1.4830  1.6025
   24MOL   H60716293   0.765   5.508   6.871  1.5589  0.3891 -0.3529
   24MOL   H60816294   0.714   5.697   7.101  0.7730 -0.5981  0.1460
   24MOL   H60916295   0.838   5.712   6.980 -0.4305  2.1904 -1.4273
   24MOL   H61016296   0.536   5.762   6.927  0.1889 -0.7135  0.7217
   24MOL   H61116297   0.651   5.751   6.800  0.8552  1.7348 -0.1168
   24MOL   H61216298   0.758   5.951   6.892 -0.9007 -2.0116 -3.6063
   24MOL   H61316299   0.639   5.938   7.026 -0.9206 -1.8498 -0.1204
   24MOL   N61416300   0.522   6.127   6.902  0.5556 -0.0472 -0.1157
   24MOL   C61516301   0.406   6.202   6.869 -0.2793  0.3590  0.5327
   24MOL   C61616302   0.423   6.298   6.757 -0.7204  0.7527  0.1853
   24MOL   C61716303   0.321   6.408   6.734 -0.4451  0.7148  0.3459
   24MOL   C61816304   0.353   6.522   6.637 -0.2528 -0.0442 -0.0720
   24MOL   C61916305   0.343   6.475   6.489 -0.1579 -0.2330  0.2474
   24MOL   C62016306   0.325   6.594   6.391  0.1044  0.2443 -0.5052
   24MOL   C62116307   0.378   6.558   6.251  0.5444 -0.1580  0.3931
   24MOL   C62216308   0.521   6.604   6.235 -0.7190  0.1635  0.8777
   24MOL   C62316309   0.586   6.599   6.096  0.0248 -0.1577 -0.0072
   24MOL   C62416310   0.737   6.620   6.082 -0.0011 -0.6983 -0.3456
   24MOL   C62516311   0.792   6.758   6.116 -0.1590  0.4308 -0.9557
   24MOL   O62616312   0.710   6.854   6.125  0.4242 -0.1640 -0.4749
   24MOL   H62716313   0.579   6.160   6.978  0.7859  1.7032 -1.0078
   24MOL   H62816314   0.373   6.249   6.962  0.4969 -0.0608  1.0287
   24MOL   H62916315   0.323   6.137   6.841  0.0208  0.0730  0.2994
   24MOL   H63016316   0.430   6.234   6.669 -0.4564  0.9278  0.0781
   24MOL   H63116317   0.520   6.343   6.778  0.1894 -0.3812 -1.4601
   24MOL   H63216318   0.223   6.366   6.712  0.8719 -0.5388 -3.3538
   24MOL   H63316319   0.308   6.453   6.833  1.1276 -1.2829  1.4872
   24MOL   H63416320   0.452   6.561   6.659  0.7229 -3.0803  1.2183
   24MOL   H63516321   0.291   6.609   6.660 -0.4122  0.0673 -0.8913
   24MOL   H63616322   0.252   6.415   6.484 -0.4812  0.3804 -1.9159
   24MOL   H63716323   0.427   6.411   6.465 -2.2970 -2.2972 -2.0388
   24MOL   H63816324   0.218   6.612   6.381  0.1355  0.5124 -0.3518
   24MOL   H63916325   0.373   6.689   6.416 -0.7979  0.9043 -1.2542
   24MOL   H64016326   0.325   6.597   6.164  1.3454 -0.4111 -0.2101
   24MOL   H64116327   0.362   6.454   6.223 -0.8177  0.0171  0.4499
   24MOL   H64216328   0.529   6.706   6.271 -1.7498 -0.0281  1.6596
   24MOL   H64316329   0.583   6.544   6.302  0.2922 -0.0362 -0.2095
   24MOL   H64416330   0.541   6.682   6.040  0.5398  0.4474  0.4629
   24MOL   H64516331   0.557   6.501   6.058 -1.6746 -0.1955  1.3155
   24MOL   H64616332   0.753   6.605   5.975  0.4467  4.7711 -1.1945
   24MOL   H64716333   0.793   6.552   6.148  1.8144  2.4403  1.4667
   24MOL   N64816334   0.920   6.763   6.142 -0.0669 -0.4700  0.2484
   24MOL   C64916335   0.992   6.891   6.174  0.1595 -0.2999  1.1977
   24MOL   C65016336   1.013   6.987   6.062 -0.0312 -0.1119  0.4408
   24MOL   C65116337   1.111   7.108   6.091 -0.5471 -0.0917 -0.2246
   24MOL   C65216338   1.251   7.061   6.084 -0.7520 -0.3438  0.2556
   24MOL   C65316339   1.338   7.190   6.106 -0.0763 -0.0712 -0.4568
   24MOL   C65416340   1.342   7.276   5.981  0.0322 -0.2850  0.3247
   24MOL   C65516341   1.448   7.386   5.983 -0.0676  0.2363  0.2471
   24MOL   C65616342   1.441   7.466   5.852  0.2553 -0.8517  0.0684
   24MOL   C65716343   1.490   7.611   5.864  1.1559  0.7729 -0.1287
   24MOL   C65816344   1.450   7.698   5.744 -0.1843  0.2035  0.2608
   24MOL   C65916345   1.543   7.669   5.629  0.7096  0.0105 -0.2102
   24MOL   O66016346   1.663   7.679   5.629  0.2891  0.0375 -0.3027
   24MOL   H66116347   0.965   6.673   6.145  0.0698 -0.4000  0.3580
   24MOL   H66216348   1.088   6.869   6.221 -0.0191  0.8619  2.1184
   24MOL   H66316349   0.945   6.948   6.254  0.4983  2.6032 -0.6188
   24MOL   H66416350   0.918   7.032   6.033  0.0363  0.1091  0.5612
   24MOL   H66516351   1.051   6.924   5.981 -0.1687  1.2779 -0.7395
   24MOL   H66616352   1.088   7.182   6.014 -0.8646 -0.7235 -0.7452
   24MOL   H66716353   1.096   7.145   6.192  1.8941 -3.4337  1.4803
   24MOL   H66816354   1.279   7.026   5.985  2.1281  0.1788  0.8255
   24MOL   H66916355   1.285   6.986   6.156 -0.7276 -1.4809 -0.9178
   24MOL   H67016356   1.440   7.154   6.118 -0.3835 -0.4440  1.0785
   24MOL   H67116357   1.320   7.243   6.199 -3.0550 -2.5734  0.4608
   24MOL   H67216358   1.349   7.223   5.886 -1.6979  1.4769 -0.8405
   24MOL   H67316359   1.251   7.337   5.983  2.2611  3.2081  0.6537
   24MOL   H67416360   1.554   7.370   6.001 -0.3608 -2.0638  0.1710
   24MOL   H67516361   1.428   7.459   6.062  0.5625 -0.2671  0.8854
   24MOL   H67616362   1.491   7.414   5.770 -0.0799 -0.3869 -0.4362
   24MOL   H67716363   1.339   7.473   5.812 -0.3223 -0.4789  1.5537
   24MOL   H67816364   1.596   7.615   5.887  0.7848  0.5978  1.6969
   24MOL   H67916365   1.438   7.662   5.945 -0.2181 -0.2396 -0.3702
   24MOL   H68016366   1.442   0.089   5.764 -1.1735  1.0635 -4.0781
   24MOL   H68116367   1.352   7.667   5.706  1.1141  0.5839 -3.6639
   24MOL   H68216368   1.483   7.637   5.544 -0.1535 -1.9660  1.1097
   25MOL     N116369   0.523   0.130   4.955 -0.4039 -0.3625  0.4012
   25MOL     C216370   0.557   0.098   4.817 -0.1142  0.5438 -0.0060
   25MOL     C316371   0.442   0.136   4.717 -0.0467  0.2024  0.1422
   25MOL     C416372   0.490   0.093   4.574  0.6853 -0.4833 -0.0716
   25MOL     C516373   0.401   0.147   4.461  0.3406 -0.0234  0.8165
   25MOL     C616374   0.465   0.136   4.324  0.0421 -0.6193  0.6437
   25MOL     C716375   0.569   0.248   4.312 -0.4130  0.0952  0.2135
   25MOL     C816376   0.641   0.253   4.169 -0.5582 -0.2309 -0.0157
   25MOL     C916377   0.717   0.386   4.149 -0.7265 -0.5120 -0.3733
   25MOL    C1016378   0.789   0.379   4.009  0.8371 -0.0729  0.3650
   25MOL    C1116379   0.844   0.504   3.942  0.3839 -1.0060  0.1961
   25MOL    C1216380   0.936   0.575   4.047  0.2582 -0.3581  0.3943
   25MOL    O1316381   1.044   0.528   4.078  0.0009 -0.1694 -0.1875
   25MOL    H1416382   0.576   0.058   5.003 -1.5143 -1.4453  0.0368
   25MOL    H1516383   0.564   7.707   4.798  0.1745  0.2187  1.8363
   25MOL    H1616384   0.657   0.135   4.793 -0.4676  1.0938 -0.6524
   25MOL    H1716385   0.423   0.241   4.737  0.7240  0.1647  1.0973
   25MOL    H1816386   0.354   0.077   4.743 -0.8457 -0.0057 -2.8558
   25MOL    H1916387   0.595   0.122   4.575  0.1257  1.7833  4.0689
   25MOL    H2016388   0.481   7.701   4.575  1.4490 -0.5661 -1.3383
   25MOL    H2116389   0.385   0.251   4.489  0.8512  1.2910 -3.4521
   25MOL    H2216390   0.311   0.086   4.452  2.4080 -2.8386 -1.8124
   25MOL    H2316391   0.394   0.150   4.242  0.4112  1.0434  0.5933
   25MOL    H2416392   0.508   0.037   4.317 -1.6749 -1.5797  3.1259
   25MOL    H2516393   0.518   0.344   4.317  0.5550  0.7180 -1.3242
   25MOL    H2616394   0.641   0.246   4.394  0.6868  1.3524 -0.6925
   25MOL    H2716395   0.575   0.247   4.083 -1.1990  1.3695  0.3451
   25MOL    H2816396   0.707   0.166   4.157 -3.5932 -2.2983 -2.2579
   25MOL    H2916397   0.643   0.465   4.149  0.1222  0.3086 -1.6747
   25MOL    H3016398   0.777   0.402   4.239 -0.6123  0.3185 -0.5924
   25MOL    H3116399   0.719   0.336   3.937  0.3145 -0.5586  1.1491
   25MOL    H3216400   0.868   0.304   4.018  1.1761  0.2304 -0.0941
   25MOL    H3316401   0.771   0.583   3.920  0.0430 -1.4486 -0.2715
   25MOL    H3416402   0.909   0.481   3.858  0.2052  1.0020 -0.5204
   25MOL    H3516403   0.428   0.104   4.977 -0.9226  2.7993  2.1885
   25MOL    N3616404   0.887   0.684   4.103  0.2121  0.3836  0.2078
   25MOL    C3716405   0.958   0.750   4.207  0.3992 -0.1977  0.8554
   25MOL    C3816406   0.867   0.850   4.286  0.0353 -0.4036 -1.0905
   25MOL    C3916407   0.950   0.937   4.377 -0.7006 -0.0453  0.8450
   25MOL    C4016408   0.871   1.031   4.469 -0.2235 -0.1505 -0.4515
   25MOL    C4116409   0.955   1.152   4.508  0.0792  0.3781  0.1757
   25MOL    C4216410   0.883   1.252   4.599  0.6139 -0.0169 -0.3063
   25MOL    C4316411   0.878   1.189   4.741  0.8404 -0.6174  0.2804
   25MOL    C4416412   0.834   1.288   4.856  0.1618 -0.3810  0.8217
   25MOL    C4516413   0.878   1.223   4.989  0.0485 -0.2460 -0.1184
   25MOL    C4616414   0.848   1.314   5.112  0.3883  0.0451 -0.0571
   25MOL    C4716415   0.696   1.329   5.145 -0.7277  0.2529  0.1327
   25MOL    O4816416   0.627   1.239   5.193  0.1957 -0.0823  0.2723
   25MOL    H4916417   0.792   0.711   4.084  0.1013  0.6811  1.1680
   25MOL    H5016418   1.008   0.678   4.271  0.3943 -0.5350  0.4787
   25MOL    H5116419   1.038   0.800   4.151 -1.2417  0.0872 -1.2818
   25MOL    H5216420   0.787   0.806   4.346  0.7623  0.1569  0.3068
   25MOL    H5316421   0.796   0.903   4.224 -1.2540 -0.1497  0.5616
   25MOL    H5416422   1.024   0.881   4.433  1.0776  0.9297 -0.5007
   25MOL    H5516423   1.014   0.996   4.312  1.5301 -3.7534 -0.4385
   25MOL    H5616424   0.833   0.984   4.559 -2.6999 -1.6431 -2.2109
   25MOL    H5716425   0.787   1.073   4.414 -0.1674 -0.0353 -0.4480
   25MOL    H5816426   0.975   1.202   4.414  1.9503 -0.0415  0.3452
   25MOL    H5916427   1.049   1.118   4.550 -0.3762 -0.3101  0.6483
   25MOL    H6016428   0.930   1.350   4.600 -3.0307  1.8535  2.3589
   25MOL    H6116429   0.785   1.280   4.559 -0.2044  1.5054  2.5797
   25MOL    H6216430   0.976   1.147   4.764  0.2163 -1.2560  1.8422
   25MOL    H6316431   0.798   1.117   4.757  0.2889  0.0855  0.7379
   25MOL    H6416432   0.893   1.378   4.842 -0.3171 -0.2885 -0.7710
   25MOL    H6516433   0.731   1.325   4.849  0.3479  0.1837  1.0062
   25MOL    H6616434   0.987   1.226   4.984  0.1875  0.9562  2.9003
   25MOL    H6716435   0.841   1.121   4.999 -0.7674 -0.1577 -1.9894
   25MOL    H6816436   0.897   1.410   5.098  2.5308 -0.5786  2.5226
   25MOL    H6916437   0.892   1.267   5.200 -2.7024  0.0282  1.5328
   25MOL    N7016438   0.652   1.458   5.123 -0.0743  0.1766 -0.3276
   25MOL    C7116439   0.536   1.525   5.170 -0.1525 -0.7532  0.2967
   25MOL    C7216440   0.441   1.563   5.062 -1.1828 -0.0771 -0.1598
   25MOL    C7316441   0.491   1.636   4.942 -0.2472 -0.6651  0.3564
   25MOL    C7416442   0.375   1.679   4.848  0.3750 -0.7088  0.0101
   25MOL    C7516443   0.418   1.783   4.750  0.1332  0.3910 -0.4773
   25MOL    C7616444   0.304   1.825   4.656  0.3041  0.9695 -0.5551
   25MOL    C7716445   0.356   1.924   4.559  0.3786 -0.1267 -0.2487
   25MOL    C7816446   0.243   1.977   4.467 -0.7436  0.0594 -0.0362
   25MOL    C7916447   0.277   2.097   4.378  0.2360 -0.2063 -0.3641
   25MOL    C8016448   0.165   2.138   4.278 -0.5504 -0.0735 -0.2676
   25MOL    C8116449   0.053   2.211   4.350  0.7505 -0.4536  0.0871
   25MOL    O8216450   0.083   2.307   4.425  0.2529 -0.1106  0.3991
   25MOL    H8316451   0.728   1.511   5.084  0.5098 -0.5945 -0.2436
   25MOL    H8416452   0.489   1.456   5.240 -0.3430 -0.3741  0.5458
   25MOL    H8516453   0.561   1.614   5.228 -1.9083 -0.1153  0.0996
   25MOL    H8616454   0.358   1.618   5.107 -1.0148 -0.0144  0.0749
   25MOL    H8716455   0.405   1.472   5.014  2.0780 -1.8416  0.6216
   25MOL    H8816456   0.558   1.710   4.987 -1.1496  0.1956  0.3012
   25MOL    H8916457   0.567   1.587   4.882  1.0816  1.2458  0.4292
   25MOL    H9016458   0.291   1.717   4.905 -1.2526 -1.7133 -1.6655
   25MOL    H9116459   0.355   1.590   4.788 -1.8330  0.0927 -0.4694
   25MOL    H9216460   0.501   1.743   4.691  0.8420  3.6542 -1.8358
   25MOL    H9316461   0.459   1.872   4.797  1.2011 -0.6233  0.5606
   25MOL    H9416462   0.285   1.735   4.597  1.6773 -0.2014  0.7475
   25MOL    H9516463   0.207   1.857   4.693  0.4352 -0.1420  0.7863
   25MOL    H9616464   0.432   1.878   4.495 -0.6316 -1.7530 -0.2889
   25MOL    H9716465   0.404   2.010   4.606  0.9154 -0.2058 -0.6417
   25MOL    H9816466   0.216   1.889   4.409  0.0456 -0.1013 -0.1694
   25MOL    H9916467   0.158   1.998   4.532  0.1608 -0.6520  1.4141
   25MOL   H10016468   0.376   2.086   4.333  1.0828  0.8455  1.1811
   25MOL   H10116469   0.302   2.182   4.441  0.9906 -1.1578  0.6381
   25MOL   H10216470   0.129   2.049   4.225  0.6366 -0.3599 -0.6115
   25MOL   H10316471   0.192   2.216   4.206 -5.2338  1.1098 -0.9188
   25MOL   N10416472   7.645   2.160   4.345  0.1159  0.0249  1.2208
   25MOL   C10516473   7.526   2.229   4.402 -0.2769  0.6543  0.2123
   25MOL   C10616474   7.431   2.115   4.436  0.2196 -0.2535 -0.2722
   25MOL   C10716475   7.299   2.169   4.490  0.5076 -0.7032  0.1354
   25MOL   C10816476   7.214   2.063   4.564 -0.1127 -0.1275 -0.3847
   25MOL   C10916477   7.079   2.128   4.608 -0.3397 -0.3087 -0.0629
   25MOL   C11016478   6.987   2.034   4.680  0.4370 -0.2886  0.3587
   25MOL   C11116479   6.928   1.930   4.585 -0.0568  0.0839 -0.8509
   25MOL   C11216480   6.867   1.803   4.649 -0.1467  0.8228  0.3261
   25MOL   C11316481   6.793   1.719   4.543  0.0744  0.0041 -0.4363
   25MOL   C11416482   6.669   1.792   4.487 -0.1139  0.3455 -0.6706
   25MOL   C11516483   6.574   1.847   4.594  0.3109  0.4000 -0.9761
   25MOL   O11616484   6.554   1.779   4.696 -0.3869 -0.0077  0.1204
   25MOL   H11716485   7.629   2.078   4.288  0.0567  0.8031  0.1205
   25MOL   H11816486   7.565   2.266   4.497  2.4421 -1.1367 -0.1360
   25MOL   H11916487   7.495   2.309   4.335 -0.2442 -0.0378 -0.6349
   25MOL   H12016488   7.474   2.045   4.508  1.0503  0.7501  0.2295
   25MOL   H12116489   7.408   2.038   4.362  1.1922 -1.8590  1.0445
   25MOL   H12216490   7.322   2.240   4.569  1.5387  0.1205 -0.8843
   25MOL   H12316491   7.243   2.225   4.415 -0.1016 -0.8401  0.4891
   25MOL   H12416492   7.282   2.025   4.640  0.0240 -1.9802 -1.4152
   25MOL   H12516493   7.196   1.977   4.499 -1.5629 -0.8545  0.9395
   25MOL   H12616494   7.032   2.160   4.515 -3.5547  0.3619  1.6983
   25MOL   H12716495   7.104   2.216   4.668  1.7045 -0.7758 -0.2175
   25MOL   H12816496   7.028   1.994   4.773  1.5090  0.5751  0.2587
   25MOL   H12916497   6.907   2.100   4.713 -0.7510 -1.0716 -0.9238
   25MOL   H13016498   7.010   1.884   4.530  2.1000 -0.1731  2.4922
   25MOL   H13116499   6.870   1.986   4.511 -0.9830  0.4146  0.1288
   25MOL   H13216500   6.952   1.739   4.672 -1.3474 -1.8705 -2.3734
   25MOL   H13316501   6.814   1.825   4.742 -0.3247  1.1230  0.1561
   25MOL   H13416502   6.753   1.626   4.584 -1.1333 -0.3010 -2.2446
   25MOL   H13516503   6.867   1.712   4.463  0.2521  0.9874 -0.3635
   25MOL   H13616504   6.608   1.721   4.430  0.0325 -0.2564 -0.0871
   25MOL   H13716505   6.701   1.871   4.420  0.2912  0.2851 -0.5479
   25MOL   N13816506   6.532   1.972   4.583 -0.1544  0.1148  0.0904
   25MOL   C13916507   6.490   2.062   4.686  0.7049 -0.1808  0.0900
   25MOL   C14016508   6.591   2.170   4.714 -0.5958 -0.0993 -0.0900
   25MOL   C14116509   6.638   2.252   4.595  0.3563  0.2810  0.2357
   25MOL   C14216510   6.676   2.396   4.634  0.2545  0.3395 -0.4231
   25MOL   C14316511   6.814   2.395   4.687  0.7670  0.1003 -0.0038
   25MOL   C14416512   6.861   2.537   4.732  0.7693 -0.3160  0.3299
   25MOL   C14516513   7.003   2.526   4.786 -0.1355  0.2480 -0.4025
   25MOL   C14616514   7.042   2.666   4.828  0.4615 -0.2604 -0.6982
   25MOL   C14716515   7.187   2.683   4.866  0.2940  0.2433  0.5658
   25MOL   C14816516   7.203   2.826   4.918 -0.3166  0.0226 -0.4064
   25MOL   C14916517   7.345   2.891   4.916  0.0748 -0.1360  0.4256
   25MOL   O15016518   7.418   2.875   4.818  0.0189 -0.3575  0.1298
   25MOL   H15116519   6.563   2.017   4.497  0.7255 -1.5950 -0.5103
   25MOL   H15216520   6.396   2.109   4.655  1.6551  1.7671  0.0563
   25MOL   H15316521   6.474   2.012   4.781 -0.0631 -1.2360 -0.5830
   25MOL   H15416522   6.684   2.125   4.748 -0.6620 -1.0375 -1.1481
   25MOL   H15516523   6.559   2.228   4.801  0.5460  2.6794 -1.4508
   25MOL   H15616524   6.729   2.211   4.550  0.8601  0.2835  1.2440
   25MOL   H15716525   6.574   2.234   4.508  0.3080  1.2029  0.0782
   25MOL   H15816526   6.612   2.433   4.715 -0.3886 -0.3056 -0.6292
   25MOL   H15916527   6.661   2.468   4.554  0.3867  2.2774  1.2427
   25MOL   H16016528   6.882   2.354   4.612 -0.2612 -1.4066 -0.1389
   25MOL   H16116529   6.813   2.328   4.774  0.9700  1.3495  0.9696
   25MOL   H16216530   6.869   2.599   4.643 -0.9250 -3.1095 -1.8625
   25MOL   H16316531   6.790   2.585   4.801  0.2158  0.2878 -0.6558
   25MOL   H16416532   7.065   2.495   4.702  0.8628  0.5687  0.2104
   25MOL   H16516533   7.015   2.457   4.870  0.9348  0.7094 -0.1643
   25MOL   H16616534   7.020   2.741   4.752  0.7439 -0.6922 -1.2075
   25MOL   H16716535   6.970   2.691   4.906 -0.6068  0.4455 -1.9001
   25MOL   H16816536   7.250   2.676   4.777 -2.2907 -0.4690 -1.2903
   25MOL   H16916537   7.213   2.605   4.938  0.2274 -0.2980  0.0097
   25MOL   H17016538   7.154   2.840   5.014 -0.4586  0.7892 -0.5884
   25MOL   H17116539   7.168   2.899   4.844 -0.3918 -0.3079 -0.6975
   25MOL   N17216540   7.363   2.967   5.022  0.8775 -0.3571  0.0230
   25MOL   C17316541   7.482   3.047   5.042  0.1040  0.7078  0.4678
   25MOL   C17416542   7.453   3.188   4.995 -0.4965  0.2600  0.2324
   25MOL   C17516543   7.336   3.247   5.068 -0.1893  0.3754 -0.6804
   25MOL   C17616544   7.342   3.254   5.225 -0.6288 -0.0171 -0.0974
   25MOL   C17716545   7.221   3.328   5.295  0.0927 -0.3085 -0.0549
   25MOL   C17816546   7.251   3.339   5.447  0.8220 -0.5617  0.2594
   25MOL   C17916547   7.168   3.446   5.528  0.4586  0.0560  0.1433
   25MOL   C18016548   7.033   3.401   5.575  0.1770  0.5068 -0.5343
   25MOL   C18116549   6.949   3.520   5.650 -0.4925 -0.4264  0.0680
   25MOL   C18216550   6.834   3.469   5.730 -0.5106  0.2188 -0.3164
   25MOL   C18316551   6.708   3.552   5.730 -0.3244 -0.7816  0.1683
   25MOL   O18416552   6.712   3.664   5.776  0.4494  0.1521 -0.2561
   25MOL   H18516553   7.298   2.959   5.099  0.4469  0.2498 -0.2724
   25MOL   H18616554   7.516   3.039   5.145  1.4262  0.1167  0.0011
   25MOL   H18716555   7.568   3.017   4.981 -1.4083 -1.0933 -0.8713
   25MOL   H18816556   7.449   3.191   4.887 -0.2776  2.3630  0.2605
   25MOL   H18916557   7.539   3.245   5.032 -1.9208  1.8834  1.1081
   25MOL   H19016558   7.332   3.350   5.032 -1.9095 -0.5230 -3.1792
   25MOL   H19116559   7.243   3.204   5.032  0.8395 -1.4670 -1.1821
   25MOL   H19216560   7.437   3.304   5.246 -1.1387  1.8019 -1.9443
   25MOL   H19316561   7.359   3.150   5.254 -2.9796 -0.0969  1.0267
   25MOL   H19416562   7.123   3.282   5.286 -1.7735  3.2485  1.1261
   25MOL   H19516563   7.205   3.429   5.258 -1.7529 -0.4175  0.4257
   25MOL   H19616564   7.245   3.245   5.502  0.0798 -0.5435  0.2243
   25MOL   H19716565   7.358   3.358   5.450  0.3677  1.9881  2.2115
   25MOL   H19816566   7.162   3.526   5.455 -0.4317 -0.6884 -0.6178
   25MOL   H19916567   7.220   3.473   5.620  2.2828 -3.1331  0.1268
   25MOL   H20016568   6.979   3.349   5.495 -2.6226 -0.7233  2.0338
   25MOL   H20116569   7.063   3.324   5.645  1.7478  0.7346 -0.9506
   25MOL   H20216570   6.902   3.593   5.583 -0.8683 -0.7501 -0.0283
   25MOL   H20316571   7.013   3.575   5.718 -1.6952  0.4711  0.4905
   25MOL   H20416572   6.873   3.471   5.832 -2.2963 -0.5050  0.4064
   25MOL   H20516573   6.815   3.363   5.715 -3.2444  0.1627  2.8356
   25MOL   N20616574   6.599   3.496   5.670  0.1804 -0.2939 -0.2002
   25MOL   C20716575   6.476   3.566   5.642  0.1510  0.6064 -0.5638
   25MOL   C20816576   6.487   3.658   5.513  0.2392  0.1358  0.8478
   25MOL   C20916577   6.352   3.718   5.465 -0.1495  0.1602 -0.0578
   25MOL   C21016578   6.355   3.790   5.331 -0.6024  0.1761  0.1407
   25MOL   C21116579   6.211   3.834   5.305  0.7868  0.0767 -1.2629
   25MOL   C21216580   6.207   3.898   5.169  1.1738  0.3797  0.0328
   25MOL   C21316581   6.087   3.986   5.136 -0.2842 -0.7569  0.8656
   25MOL   C21416582   6.074   4.047   4.995  0.0115 -0.6464  0.4957
   25MOL   C21516583   5.955   4.148   4.982 -0.2321  0.7617  0.1709
   25MOL   C21616584   5.818   4.080   4.973  0.6499 -0.9615  0.2939
   25MOL   C21716585   5.702   4.150   5.042 -0.4780  0.6143 -0.2809
   25MOL   O21816586   5.698   4.271   5.049  0.0159 -0.4530  1.1810
   25MOL   H21916587   6.608   3.397   5.651  1.4423 -0.2951  0.3375
   25MOL   H22016588   6.450   3.631   5.725  0.3439  0.6062 -0.5041
   25MOL   H22116589   6.392   3.496   5.636  0.6180 -0.0565  0.5031
   25MOL   H22216590   6.526   3.605   5.426  0.5581 -1.5850  2.0110
   25MOL   H22316591   6.550   3.745   5.528 -0.3701  0.7020  0.1582
   25MOL   H22416592   6.284   3.633   5.459  0.8837 -0.8239  1.6503
   25MOL   H22516593   6.307   3.770   5.550  0.5389  0.3920  0.1725
   25MOL   H22616594   6.394   3.732   5.247 -1.0962 -0.4265  0.3202
   25MOL   H22716595   6.420   3.877   5.327  2.0360 -1.7555 -0.7960
   25MOL   H22816596   6.172   3.907   5.376  1.5449  0.3888 -1.1573
   25MOL   H22916597   6.145   3.747   5.310  0.5406  0.2648 -1.2226
   25MOL   H23016598   6.294   3.963   5.162 -0.8410  3.0201 -1.2642
   25MOL   H23116599   6.207   3.821   5.092 -2.0410 -0.2872  0.6458
   25MOL   H23216600   6.094   4.070   5.205 -0.2219 -1.6765  2.0154
   25MOL   H23316601   5.995   3.937   5.168 -1.2271  0.8212  0.5933
   25MOL   H23416602   6.167   4.095   4.963 -0.7656 -0.7539 -2.0810
   25MOL   H23516603   6.066   3.984   4.906 -0.8645  0.9297 -0.5516
   25MOL   H23616604   5.972   4.212   4.896  3.9461 -1.7580 -1.0207
   25MOL   H23716605   5.962   4.218   5.066 -1.9037  0.1601  0.8360
   25MOL   H23816606   5.822   3.977   5.010 -0.0464 -1.6841 -1.5804
   25MOL   H23916607   5.790   4.059   4.870 -0.4849 -0.4254  0.4908
   25MOL   N24016608   5.613   4.066   5.090 -0.1962 -0.6833  0.3749
   25MOL   C24116609   5.509   4.106   5.183  0.4688 -0.6080  0.2726
   25MOL   C24216610   5.460   3.986   5.265 -0.4032 -0.5074 -0.5318
   25MOL   C24316611   5.371   4.014   5.387 -0.1656 -0.0780  0.1199
   25MOL   C24416612   5.352   3.890   5.476 -0.2521 -0.1067 -0.1289
   25MOL   C24516613   5.260   3.926   5.592 -0.4355 -0.4592  0.3717
   25MOL   C24616614   5.246   3.811   5.691 -0.2857 -0.6988 -0.1354
   25MOL   C24716615   5.373   3.790   5.775  0.0679 -0.1589  0.1163
   25MOL   C24816616   5.347   3.689   5.887 -0.2287 -0.4370 -0.4033
   25MOL   C24916617   5.484   3.660   5.954  0.7068  0.3774 -0.1501
   25MOL   C25016618   5.561   3.536   5.895 -0.5173 -0.2863 -1.0651
   25MOL   C25116619   5.677   3.494   5.982  0.5907  0.1217 -0.3479
   25MOL   O25216620   5.738   3.573   6.057 -0.1741  0.2036  0.9953
   25MOL   H25316621   5.611   3.968   5.065 -0.6974 -1.2041  2.4094
   25MOL   H25416622   5.426   4.147   5.127 -0.1168 -0.9680  0.8682
   25MOL   H25516623   5.534   4.193   5.244  2.9522 -0.8048 -0.4086
   25MOL   H25616624   5.545   3.936   5.310 -0.9010  0.3703  1.4298
   25MOL   H25716625   5.413   3.911   5.201 -0.4869 -1.1117  0.2370
   25MOL   H25816626   5.410   4.097   5.444 -0.8139 -0.1373  0.6575
   25MOL   H25916627   5.272   4.052   5.358 -0.8588 -1.4419  0.6430
   25MOL   H26016628   5.451   3.861   5.509  0.4292 -0.5834 -2.5219
   25MOL   H26116629   5.316   3.806   5.417 -1.0117 -0.2479  0.5305
   25MOL   H26216630   5.162   3.951   5.551 -0.1986  2.4888  1.4762
   25MOL   H26316631   5.300   4.018   5.636  1.1665 -0.2131 -1.5136
   25MOL   H26416632   5.171   3.844   5.763 -1.2305 -2.4387 -0.2980
   25MOL   H26516633   5.225   3.717   5.642  0.0620  0.5426 -2.7437
   25MOL   H26616634   5.416   3.878   5.822 -1.1253  0.3830  0.2233
   25MOL   H26716635   5.447   3.754   5.704 -1.1174  2.6477 -2.6569
   25MOL   H26816636   5.272   3.725   5.957  0.5064  2.6754 -1.1014
   25MOL   H26916637   5.296   3.598   5.858 -1.0502 -0.2316  0.4041
   25MOL   H27016638   5.463   3.649   6.060 -2.6202  0.4086 -0.7435
   25MOL   H27116639   5.550   3.746   5.965 -0.4530  1.3315 -0.5837
   25MOL   H27216640   5.595   3.555   5.793 -2.1609  0.1772 -1.5355
   25MOL   H27316641   5.492   3.453   5.879 -3.6177  2.1618 -0.7778
   25MOL   N27416642   5.716   3.364   5.973  0.0894 -0.6843 -0.1652
   25MOL   C27516643   5.790   3.288   6.071  0.4842  0.4999 -0.3580
   25MOL   C27616644   5.823   3.145   6.029  0.0165  0.6342 -0.1166
   25MOL   C27716645   5.892   3.127   5.894  0.7080  0.3035  0.1243
   25MOL   C27816646   5.949   2.982   5.872  0.3940 -0.4230 -0.6417
   25MOL   C27916647   5.987   2.955   5.730 -0.2041 -0.0501 -0.1260
   25MOL   C28016648   6.128   2.997   5.686 -0.1537 -0.3620  0.2942
   25MOL   C28116649   6.153   2.987   5.531  0.0369 -0.2243  0.2547
   25MOL   C28216650   6.293   3.020   5.484 -0.6119  0.3026 -0.5727
   25MOL   C28316651   6.323   3.170   5.490 -0.0921  0.5068  0.5506
   25MOL   C28416652   6.463   3.204   5.445 -0.4339  0.0125 -0.2170
   25MOL   C28516653   6.571   3.173   5.547 -0.1488  0.2238 -0.0393
   25MOL   O28616654   6.564   3.223   5.655  0.3357  0.0319  0.4206
   25MOL   H28716655   5.668   3.306   5.905  0.8755 -0.1476 -1.1959
   25MOL   H28816656   5.743   3.294   6.170  0.7288  1.9697 -0.3125
   25MOL   H28916657   5.888   3.334   6.085  0.1985  0.1110  3.4888
   25MOL   H29016658   5.735   3.081   6.039  1.4762 -1.1626  1.4842
   25MOL   H29116659   5.905   3.102   6.087 -0.6550 -0.8229 -0.2269
   25MOL   H29216660   5.826   3.148   5.810 -1.1657 -2.3506  0.8594
   25MOL   H29316661   5.974   3.196   5.878 -1.7535  3.6754  1.4375
   25MOL   H29416662   5.876   2.909   5.906 -0.3870  0.3327 -0.6861
   25MOL   H29516663   6.034   2.956   5.935  1.4265  0.9625 -1.4330
   25MOL   H29616664   5.919   3.005   5.662  0.3107 -1.8818 -2.0567
   25MOL   H29716665   5.977   2.847   5.716 -3.1673  0.7816 -5.7492
   25MOL   H29816666   6.148   3.097   5.723 -2.6297  0.5557 -0.7298
   25MOL   H29916667   6.206   2.945   5.741  0.7849 -1.1167 -1.7005
   25MOL   H30016668   6.083   3.055   5.482 -1.0642 -0.9904  0.7482
   25MOL   H30116669   6.123   2.886   5.504  0.9490 -0.4657  0.1401
   25MOL   H30216670   6.365   2.961   5.542 -0.4205  0.5761 -0.5295
   25MOL   H30316671   6.312   2.989   5.381  2.7449 -1.9925  0.6329
   25MOL   H30416672   6.300   3.200   5.592 -2.1720  0.4264  0.1250
   25MOL   H30516673   6.255   3.213   5.417  1.5411 -0.4383 -1.6088
   25MOL   H30616674   6.467   3.313   5.438  1.3273  0.0910  1.3932
   25MOL   H30716675   6.486   3.168   5.344  0.2954 -1.4058  0.4421
   25MOL   N30816676   6.662   3.074   5.503 -0.1707 -0.2477  0.3838
   25MOL   C30916677   6.784   3.030   5.574 -0.6482 -0.0757 -0.8257
   25MOL   C31016678   6.760   2.907   5.663 -0.0744  0.2640 -0.3439
   25MOL   C31116679   6.876   2.861   5.763 -0.1981  0.4631 -0.1001
   25MOL   C31216680   6.844   2.729   5.838  0.5661 -0.2186 -0.6588
   25MOL   C31316681   6.741   2.757   5.946 -0.0943  0.0314 -0.0374
   25MOL   C31416682   6.695   2.629   6.027 -0.0825 -0.3582 -0.1315
   25MOL   C31516683   6.587   2.681   6.131  0.0725 -0.3156  0.7781
   25MOL   C31616684   6.517   2.559   6.192  0.6241 -0.5625 -0.9384
   25MOL   C31716685   6.410   2.602   6.298  0.1629 -0.2717  0.5494
   25MOL   C31816686   6.345   2.479   6.356 -0.6033 -0.7417 -0.0689
   25MOL   C31916687   6.231   2.415   6.281  0.7086 -0.3291 -0.3857
   25MOL   O32016688   6.121   2.473   6.264  0.2628  0.1354 -0.5246
   25MOL   H32116689   6.639   3.025   5.418 -1.1803  1.4879 -0.3789
   25MOL   H32216690   6.841   3.112   5.620 -1.5906 -0.1804  0.5482
   25MOL   H32316691   6.843   2.999   5.488  0.7721 -0.5164  0.2823
   25MOL   H32416692   6.729   2.825   5.600 -2.0930  1.0953 -0.4786
   25MOL   H32516693   6.673   2.926   5.726  1.6518 -0.1622  2.2888
   25MOL   H32616694   6.963   2.844   5.698  0.4042 -0.7071  0.9899
   25MOL   H32716695   6.909   2.939   5.832 -2.0315  0.8845  0.3106
   25MOL   H32816696   6.933   2.683   5.883  0.0495 -1.5308 -0.9557
   25MOL   H32916697   6.801   2.661   5.764 -1.8557 -1.6272  1.9569
   25MOL   H33016698   6.648   2.791   5.901 -0.1784  0.4814  0.4672
   25MOL   H33116699   6.762   2.837   6.017  4.1322  1.1232 -2.3649
   25MOL   H33216700   6.651   2.557   5.958  0.8570 -0.9609 -0.1152
   25MOL   H33316701   6.779   2.575   6.070 -0.5911 -0.4803  0.7032
   25MOL   H33416702   6.514   2.748   6.086 -0.1284 -0.0451  1.4971
   25MOL   H33516703   6.639   2.749   6.198 -0.6738  1.1164 -0.0813
   25MOL   H33616704   6.467   2.494   6.120 -2.0062 -2.0663  2.1099
   25MOL   H33716705   6.598   2.499   6.234  0.3080 -0.8707 -0.7646
   25MOL   H33816706   6.337   2.673   6.258  2.0258  1.3666 -0.0616
   25MOL   H33916707   6.456   2.664   6.375  1.9251 -1.6699  0.6581
   25MOL   H34016708   6.293   2.508   6.448 -0.7787 -2.5208  0.4087
   25MOL   H34116709   6.418   2.409   6.397 -0.2920  0.0432  0.7406
   25MOL   N34216710   6.246   2.291   6.232  0.3000  0.5583 -0.4562
   25MOL   C34316711   6.350   2.192   6.264  0.6077 -0.5682  0.3756
   25MOL   C34416712   6.347   2.102   6.143  0.0220 -0.4683 -0.0109
   25MOL   C34516713   6.392   2.170   6.016 -0.3764  0.3856  0.3075
   25MOL   C34616714   6.454   2.074   5.912  0.3695 -0.9488  0.7087
   25MOL   C34716715   6.508   2.158   5.797  0.7346 -0.0541  0.0065
   25MOL   C34816716   6.646   2.218   5.835 -0.0948  0.2398 -0.8297
   25MOL   C34916717   6.723   2.273   5.713 -0.3071  0.5689 -0.1297
   25MOL   C35016718   6.862   2.325   5.753 -0.9009  0.1483  0.4870
   25MOL   C35116719   6.955   2.380   5.638  0.3107 -0.1531 -0.4034
   25MOL   C35216720   7.051   2.270   5.577 -0.0915 -0.1034  0.3488
   25MOL   C35316721   7.154   2.320   5.476 -0.8785  1.6125  0.0716
   25MOL   O35416722   7.224   2.421   5.501 -0.1782 -0.4356  0.2650
   25MOL   H35516723   6.167   2.253   6.182  0.3398  1.0918 -0.9285
   25MOL   H35616724   6.447   2.242   6.262 -0.4634  1.5254 -0.5611
   25MOL   H35716725   6.314   2.156   6.360 -0.6507 -1.1075 -0.2760
   25MOL   H35816726   6.257   2.046   6.120 -1.2167  1.2354  0.5870
   25MOL   H35916727   6.423   2.025   6.156  0.7547 -0.3790 -3.2486
   25MOL   H36016728   6.316   2.242   5.985 -0.1928  0.2630 -0.4332
   25MOL   H36116729   6.473   2.240   6.040 -0.2480  0.0630  0.8272
   25MOL   H36216730   6.380   2.010   5.863 -0.3622  2.0335 -2.2443
   25MOL   H36316731   6.540   2.019   5.953  1.1071 -0.0794  0.3427
   25MOL   H36416732   6.442   2.239   5.767 -0.5480 -0.9695  0.3168
   25MOL   H36516733   6.528   2.094   5.711 -3.1666  0.9529 -1.7720
   25MOL   H36616734   6.645   2.293   5.913  0.1071 -0.8920  0.2821
   25MOL   H36716735   6.710   2.145   5.884 -0.4570  0.1674 -0.4584
   25MOL   H36816736   6.660   2.343   5.658  0.6453  0.8645 -0.8647
   25MOL   H36916737   6.746   2.187   5.650  0.8317 -0.1048  1.1974
   25MOL   H37016738   6.850   2.403   5.829  1.7235 -0.6490  1.8144
   25MOL   H37116739   6.913   2.246   5.809 -1.2289 -0.0552  0.4960
   25MOL   H37216740   7.028   2.452   5.675 -1.8220  1.8150  0.0801
   25MOL   H37316741   6.904   2.444   5.567  0.9431  0.2817 -0.4719
   25MOL   H37416742   6.983   2.193   5.542  0.5859 -0.7418  0.4174
   25MOL   H37516743   7.122   2.231   5.650  0.2758 -1.5854 -0.7797
   25MOL   N37616744   7.163   2.251   5.358 -0.0745 -0.1111  0.1238
   25MOL   C37716745   7.257   2.273   5.245 -0.0212 -0.1286 -0.5249
   25MOL   C37816746   7.210   2.193   5.120 -0.0923  0.3651 -0.3921
   25MOL   C37916747   7.270   2.256   4.996  0.1480 -0.2684 -0.0987
   25MOL   C38016748   7.424   2.228   4.973  0.3619  0.6916 -0.0254
   25MOL   C38116749   7.504   2.322   4.883  0.0881  0.2811 -0.2537
   25MOL   C38216750   7.503   2.470   4.924 -0.2397  0.1826 -0.0697
   25MOL   C38316751   7.534   2.505   5.067  0.2869 -0.5473  0.2661
   25MOL   C38416752   7.482   2.641   5.103 -0.0462 -0.0063 -0.3605
   25MOL   C38516753   7.512   2.696   5.247 -0.1916 -0.0584  0.1790
   25MOL   C38616754   7.416   2.651   5.355 -0.1808 -0.4963 -0.3558
   25MOL   C38716755   7.277   2.721   5.341  0.4016 -0.1337  0.5368
   25MOL   O38816756   7.270   2.824   5.280 -0.3157  0.4473 -0.2233
   25MOL   H38916757   7.112   2.164   5.354 -0.1330  0.0078 -2.6030
   25MOL   H39016758   7.252   2.378   5.217 -2.3357 -0.4533 -1.4519
   25MOL   H39116759   7.359   2.247   5.273  0.9635  2.5327 -1.5254
   25MOL   H39216760   7.102   2.197   5.109 -0.0395  0.7878 -0.7709
   25MOL   H39316761   7.238   2.088   5.117 -0.4539  0.3164 -2.3439
   25MOL   H39416762   7.220   2.206   4.913 -0.2413 -1.1237  0.6465
   25MOL   H39516763   7.248   2.363   5.000  1.4075 -0.0747  2.3378
   25MOL   H39616764   7.429   2.131   4.925 -0.7370 -0.1635  1.5470
   25MOL   H39716765   7.477   2.223   5.068  0.0132  1.4034  0.2084
   25MOL   H39816766   7.487   2.304   4.777 -3.1557 -1.8529  0.5508
   25MOL   H39916767   7.605   2.285   4.899 -0.1722 -0.1086  0.4788
   25MOL   H40016768   7.571   2.525   4.860 -1.7887  0.0698 -1.8587
   25MOL   H40116769   7.410   2.515   4.889  0.5144 -0.9579 -3.8179
   25MOL   H40216770   7.642   2.510   5.080  0.2609 -0.2442  0.3644
   25MOL   H40316771   7.505   2.434   5.144 -1.2872 -0.3365 -0.1036
   25MOL   H40416772   7.541   2.700   5.034  1.1995 -2.0317 -1.0569
   25MOL   H40516773   7.375   2.651   5.084 -0.1076  0.2022  0.0801
   25MOL   H40616774   7.493   2.803   5.243  0.0499 -0.0469 -0.8352
   25MOL   H40716775   7.617   2.686   5.274  0.1341  1.3638 -0.5005
   25MOL   H40816776   7.455   2.681   5.452  1.4037 -1.4263 -0.6698
   25MOL   H40916777   7.402   2.543   5.353  0.8260 -0.6125 -2.5979
   25MOL   N41016778   7.168   2.650   5.383 -0.1672  0.7672  0.6825
   25MOL   C41116779   7.038   2.708   5.393  0.3314 -0.4281  0.1362
   25MOL   C41216780   6.962   2.707   5.254 -0.1610  0.3092  0.0344
   25MOL   C41316781   6.945   2.572   5.186 -0.2939  0.0487  0.0164
   25MOL   C41416782   6.860   2.474   5.258 -0.4199  0.7014 -0.0362
   25MOL   C41516783   6.810   2.370   5.158  1.0097 -0.8909 -0.3065
   25MOL   C41616784   6.707   2.270   5.209 -0.1924 -0.2687  0.2042
   25MOL   C41716785   6.665   2.158   5.105 -0.0556 -0.4430 -0.8875
   25MOL   C41816786   6.572   2.046   5.169  0.5013  0.0020  0.1978
   25MOL   C41916787   6.512   1.956   5.057 -0.0900 -0.4528 -0.1391
   25MOL   C42016788   6.481   1.806   5.090  0.2409  0.8731 -0.1244
   25MOL   C42116789   6.599   1.712   5.083  0.5938  0.4681 -0.0000
   25MOL   O42216790   6.648   1.673   5.186 -0.0461  0.2169 -0.5523
   25MOL   H42316791   7.171   2.569   5.443  0.9452  1.1290  1.1366
   25MOL   H42416792   6.986   2.654   5.472 -0.7063  0.2305 -0.0943
   25MOL   H42516793   7.056   2.808   5.432 -0.4794 -0.0195 -0.5223
   25MOL   H42616794   7.009   2.777   5.185 -0.7378 -0.4153 -1.1128
   25MOL   H42716795   6.861   2.742   5.274 -0.6517 -0.8560 -0.3793
   25MOL   H42816796   6.905   2.588   5.087 -0.3321 -0.4332 -0.0483
   25MOL   H42916797   7.043   2.527   5.170 -0.7577 -2.1209  2.8224
   25MOL   H43016798   6.770   2.524   5.295 -1.9418 -0.9242 -1.4572
   25MOL   H43116799   6.906   2.436   5.349  0.0648  0.2706 -0.4600
   25MOL   H43216800   6.889   2.314   5.108 -0.1011 -1.9041 -0.9633
   25MOL   H43316801   6.770   2.422   5.071 -0.6908 -1.2430  0.2615
   25MOL   H43416802   6.739   2.228   5.304 -2.1076 -1.2968  0.4122
   25MOL   H43516803   6.622   2.332   5.236 -0.9829 -1.3214  0.1419
   25MOL   H43616804   6.750   2.109   5.056  2.1299  0.9574  1.4090
   25MOL   H43716805   6.611   2.203   5.021 -0.5457 -2.7670 -1.8625
   25MOL   H43816806   6.631   1.995   5.245 -0.9224 -2.5430 -0.3836
   25MOL   H43916807   6.486   2.090   5.220  1.2919  1.8673 -0.0227
   25MOL   H44016808   6.571   1.961   4.965 -0.5188  1.2508 -0.3368
   25MOL   H44116809   6.422   2.009   5.027 -0.2748  1.0436  2.8885
   25MOL   H44216810   6.403   1.767   5.024 -0.5128  1.4448  0.4097
   25MOL   H44316811   6.441   1.793   5.191  0.4104  0.5883 -0.0932
   25MOL   N44416812   6.642   1.680   4.959 -0.5287  0.0315 -0.0314
   25MOL   C44516813   6.764   1.601   4.952  0.8365  0.1745 -0.5472
   25MOL   C44616814   6.742   1.479   4.875  0.1248  1.1697  0.2395
   25MOL   C44716815   6.865   1.390   4.845 -0.3577 -0.1893 -0.3859
   25MOL   C44816816   6.829   1.255   4.791  0.1343 -0.4488 -0.0542
   25MOL   C44916817   6.941   1.156   4.765 -0.9375 -0.0161  0.0950
   25MOL   C45016818   7.013   1.190   4.632  0.7253  0.2318 -0.3876
   25MOL   C45116819   7.039   1.066   4.546 -0.1051 -0.5675  0.1781
   25MOL   C45216820   7.115   0.957   4.604 -1.0359  0.1112 -0.1116
   25MOL   C45316821   7.131   0.836   4.498 -0.4552  0.2504 -0.3505
   25MOL   C45416822   7.216   0.714   4.538 -0.2498 -0.3265  0.9044
   25MOL   C45516823   7.369   0.740   4.569  0.1620  0.7266 -0.2108
   25MOL   O45616824   7.428   0.811   4.489  0.3375  0.1191 -0.1730
   25MOL   H45716825   6.582   1.700   4.880  0.0650  0.8894 -0.2718
   25MOL   H45816826   6.846   1.660   4.910  0.6225  0.1174 -1.0419
   25MOL   H45916827   6.814   1.572   5.045  0.8171  2.8257  0.3520
   25MOL   H46016828   6.704   1.510   4.777 -0.1601  0.4077  0.1059
   25MOL   H46116829   6.662   1.427   4.928 -1.1766  1.1708 -1.6388
   25MOL   H46216830   6.928   1.440   4.771  2.2753 -1.2894  1.0499
   25MOL   H46316831   6.915   1.388   4.942 -0.2093 -0.5268 -0.4690
   25MOL   H46416832   6.755   1.277   4.714 -0.3976 -1.0840  0.2617
   25MOL   H46516833   6.778   1.196   4.868  0.8200 -1.3067 -0.2476
   25MOL   H46616834   6.890   1.061   4.749 -1.5145  0.5170 -1.3369
   25MOL   H46716835   7.014   1.144   4.846 -0.7003  0.6577 -0.0171
   25MOL   H46816836   6.954   1.259   4.572 -0.5875 -1.4021 -1.0272
   25MOL   H46916837   7.108   1.242   4.644  0.5320  0.8057 -1.3391
   25MOL   H47016838   7.088   1.098   4.454  0.9074 -1.9129  0.2245
   25MOL   H47116839   6.944   1.023   4.514  1.0512 -1.6806 -1.8817
   25MOL   H47216840   7.215   0.997   4.627 -0.6024 -1.4140  0.7079
   25MOL   H47316841   7.079   0.925   4.702  1.9027  0.0774  1.0255
   25MOL   H47416842   7.178   0.879   4.410 -0.4501  1.5636  0.2827
   25MOL   H47516843   7.037   0.794   4.464 -0.7417 -0.3572  1.1401
   25MOL   H47616844   7.210   0.643   4.457 -2.1866 -0.7664  1.4163
   25MOL   H47716845   7.171   0.674   4.629  0.1586  2.2799  2.3014
   25MOL   N47816846   7.425   0.687   4.677  0.1036 -0.1181  0.6972
   25MOL   C47916847   7.556   0.718   4.728  0.5833  0.3796  0.2582
   25MOL   C48016848   7.557   0.717   4.881 -0.0806  0.3761  0.6548
   25MOL   C48116849   7.686   0.777   4.937  0.1495 -0.2078 -0.8899
   25MOL   C48216850   7.688   0.774   5.090 -0.1496  0.3226 -0.0426
   25MOL   C48316851   7.629   0.895   5.161 -0.1504  0.8085 -0.3321
   25MOL   C48416852   7.665   0.902   5.313 -0.8812  0.3077  0.6364
   25MOL   C48516853   7.595   1.024   5.377 -0.6364  0.3541  0.6969
   25MOL   C48616854   7.624   1.043   5.523 -0.8518 -0.2356  0.2793
   25MOL   C48716855   0.053   1.079   5.555  0.4604 -0.6793  0.4212
   25MOL   C48816856   0.074   1.076   5.704 -0.3658  0.1656  0.2234
   25MOL   C48916857   0.065   1.212   5.773 -0.3838 -0.7027 -0.2945
   25MOL   O49016858   0.005   1.305   5.718 -0.4639  0.1860  0.1191
   25MOL   H49116859   7.371   0.626   4.736  1.9645 -2.5054  0.0022
   25MOL   H49216860   7.637   0.657   4.688 -0.9233  1.2253 -4.3778
   25MOL   H49316861   7.586   0.819   4.701  2.8579 -0.3204  0.0075
   25MOL   H49416862   7.538   0.618   4.924 -2.9590  0.8432  0.5689
   25MOL   H49516863   7.480   0.788   4.911 -1.7106 -0.7597 -0.7447
   25MOL   H49616864   0.059   0.724   4.905  1.8052  1.3779  0.9569
   25MOL   H49716865   7.705   0.879   4.903 -0.4828  0.2234  0.0118
   25MOL   H49816866   0.076   0.757   5.120  0.3653  2.1281 -0.6985
   25MOL   H49916867   7.631   0.690   5.129 -1.2205  0.3375 -1.5342
   25MOL   H50016868   7.522   0.895   5.141 -0.6560 -0.0581  2.1674
   25MOL   H50116869   7.662   0.990   5.120  1.8709 -0.1191 -0.8832
   25MOL   H50216870   7.624   0.813   5.361  1.1022 -0.5349  0.8113
   25MOL   H50316871   0.057   0.900   5.333 -1.1402  0.2767  2.0818
   25MOL   H50416872   7.486   1.021   5.375 -0.6565  0.9338  0.7796
   25MOL   H50516873   7.630   1.115   5.328  0.9715 -0.0845  1.0081
   25MOL   H50616874   7.565   1.125   5.562 -0.7330  0.6148 -1.3028
   25MOL   H50716875   7.587   0.951   5.569 -4.1529 -0.2988 -2.2878
   25MOL   H50816876   0.075   1.177   5.512 -2.5263 -0.7720 -1.4627
   25MOL   H50916877   0.123   1.010   5.510  1.7744  0.7341  0.2520
   25MOL   H51016878   0.175   1.042   5.727 -1.2878 -2.9848 -0.0985
   25MOL   H51116879   0.005   1.010   5.757 -0.2185 -0.0355  0.1668
   25MOL   N51216880   0.104   1.217   5.896 -0.3359 -0.3118 -0.1543
   25MOL   C51316881   0.093   1.341   5.979  0.7279 -0.1430  0.2317
   25MOL   C51416882   0.200   1.342   6.088  0.3032  0.1268  0.3005
   25MOL   C51516883   0.180   1.243   6.205 -0.0557 -0.4081  0.4234
   25MOL   C51616884   0.296   1.258   6.307  0.1157  0.1014  0.3239
   25MOL   C51716885   0.274   1.163   6.427  0.4586  0.0412  0.0643
   25MOL   C51816886   0.392   1.149   6.519  0.0329  0.5641 -0.3470
   25MOL   C51916887   0.364   1.071   6.644  0.4839 -1.2906  0.6292
   25MOL   C52016888   0.303   0.931   6.623 -0.6546  0.4718  0.3001
   25MOL   C52116889   0.388   0.855   6.523  0.3924  0.0243 -0.2680
   25MOL   C52216890   0.334   0.715   6.490 -0.1509 -0.1479  0.7646
   25MOL   C52316891   0.215   0.712   6.395  0.0480  0.1967  0.6478
   25MOL   O52416892   0.231   0.674   6.279  0.0398 -0.0161  0.2152
   25MOL   H52516893   0.157   1.143   5.940  0.7125  0.7634  0.4244
   25MOL   H52616894   0.120   1.431   5.922 -0.1954 -0.3482 -0.5432
   25MOL   H52716895   7.709   1.352   6.021  0.6616  0.0600  0.0211
   25MOL   H52816896   0.206   1.440   6.135  0.1912  0.2052  0.1518
   25MOL   H52916897   0.301   1.324   6.053  0.3133  0.9200 -0.1032
   25MOL   H53016898   0.087   1.279   6.250  0.4686 -1.6003  2.5026
   25MOL   H53116899   0.166   1.137   6.186 -2.9234 -0.0875  0.5157
   25MOL   H53216900   0.307   1.361   6.338 -0.7954  0.7866 -1.5677
   25MOL   H53316901   0.385   1.231   6.250  0.0440 -1.6649  1.0243
   25MOL   H53416902   0.250   1.064   6.388  0.2547  0.6811 -1.5013
   25MOL   H53516903   0.178   1.190   6.470 -1.2454 -4.0734 -0.9167
   25MOL   H53616904   0.476   1.116   6.458  0.1217 -3.8214  2.0017
   25MOL   H53716905   0.432   1.247   6.545 -2.1598  0.7963  2.3443
   25MOL   H53816906   0.287   1.123   6.700  0.2685  0.8499 -1.5600
   25MOL   H53916907   0.454   1.064   6.706  0.9804  1.4129  0.3105
   25MOL   H54016908   0.291   0.885   6.721 -2.2097  2.9511  1.3430
   25MOL   H54116909   0.202   0.951   6.587  0.3723  0.1411 -2.9727
   25MOL   H54216910   0.488   0.867   6.563 -0.1774  1.3777  0.8058
   25MOL   H54316911   0.400   0.905   6.426  2.8216  0.2998  0.1446
   25MOL   H54416912   0.311   0.658   6.580 -0.5515 -1.7222 -0.3177
   25MOL   H54516913   0.418   0.659   6.448 -1.9167 -2.4654  0.2610
   25MOL   N54616914   0.091   0.725   6.449 -1.0093 -0.1726  0.4147
   25MOL   C54716915   7.691   0.685   6.377 -0.4435  0.3483 -0.1889
   25MOL   C54816916   7.574   0.688   6.477  0.5461  0.1020  0.4477
   25MOL   C54916917   7.446   0.677   6.391  0.0351  0.5048  0.3128
   25MOL   C55016918   7.317   0.686   6.473  0.5663  0.1226  0.0292
   25MOL   C55116919   7.294   0.804   6.559 -0.0492 -0.2708 -0.4270
   25MOL   C55216920   7.148   0.810   6.608  0.6485 -0.4933 -0.2424
   25MOL   C55316921   7.110   0.916   6.712  0.1863  0.3011 -0.7064
   25MOL   C55416922   6.966   0.879   6.753  0.3131  0.7574  0.2454
   25MOL   C55516923   6.862   0.935   6.658  0.0791  0.7618 -0.0853
   25MOL   C55616924   6.729   0.867   6.671 -0.3463  0.7384 -0.1013
   25MOL   C55716925   6.652   0.875   6.807  0.1688  0.1787  0.4717
   25MOL   O55816926   6.687   0.954   6.894 -0.4549  0.1833  0.3057
   25MOL   H55916927   0.087   0.742   6.548  1.5754 -0.5500  0.6280
   25MOL   H56016928   7.662   0.748   6.293  0.0336 -1.1507 -1.4967
   25MOL   H56116929   7.710   0.590   6.327  1.3049  0.1047  0.8760
   25MOL   H56216930   7.569   0.780   6.535  0.9081  0.9930 -0.9049
   25MOL   H56316931   7.572   0.607   6.550  0.0529 -1.6361 -1.4517
   25MOL   H56416932   7.451   0.759   6.319  2.2454 -0.0918 -0.2532
   25MOL   H56516933   7.446   0.581   6.339  0.0292  0.9266 -0.4859
   25MOL   H56616934   7.305   0.591   6.526  0.6900  0.5939  0.8952
   25MOL   H56716935   7.233   0.690   6.402 -1.6173 -0.1610  2.5110
   25MOL   H56816936   7.319   0.893   6.502 -0.7014  0.3053  0.1699
   25MOL   H56916937   7.369   0.808   6.638 -0.3386  1.4732 -0.2276
   25MOL   H57016938   7.079   0.817   6.523 -0.3389 -2.4655  0.3627
   25MOL   H57116939   7.126   0.719   6.663 -1.2184 -0.7143 -1.2914
   25MOL   H57216940   7.116   1.017   6.670 -1.5381  1.0049  0.6810
   25MOL   H57316941   7.185   0.908   6.790  1.9675 -1.1679 -2.5137
   25MOL   H57416942   6.949   0.772   6.756  0.5435  0.5499 -3.1539
   25MOL   H57516943   6.943   0.917   6.852 -1.0357  0.3841  0.0950
   25MOL   H57616944   6.885   0.933   6.551  1.5179  0.6045  0.2269
   25MOL   H57716945   6.836   1.039   6.675  3.9580  1.6407  0.9205
   25MOL   H57816946   6.753   0.761   6.656  1.5469  1.3014 -1.2479
   25MOL   H57916947   6.649   0.889   6.600 -0.3187  1.8993  0.2257
   25MOL   N58016948   6.540   0.794   6.818 -0.2708  0.0608  0.4192
   25MOL   C58116949   6.453   0.798   6.935  1.2694 -0.2790 -0.3744
   25MOL   C58216950   6.463   0.676   7.022 -0.1037  0.9717  0.5425
   25MOL   C58316951   6.365   0.672   7.136 -0.3065 -0.6408  0.4499
   25MOL   C58416952   6.366   0.530   7.199 -0.0707 -0.1454 -0.7621
   25MOL   C58516953   6.269   0.516   7.312 -0.4036  0.2262  0.1281
   25MOL   C58616954   6.313   0.577   7.444 -0.3645 -0.2834 -0.0937
   25MOL   C58716955   6.208   0.593   7.553 -0.1486 -0.0669  0.1753
   25MOL   C58816956   6.252   0.670   7.684 -0.6755 -0.3823 -0.0477
   25MOL   C58916957   6.296   0.575   0.078 -0.3901  0.9043  0.0297
   25MOL   C59016958   6.282   0.647   0.214 -0.8497  0.0135  0.5605
   25MOL   C59116959   6.401   0.733   0.261  0.1367  0.2737 -0.4884
   25MOL   O59216960   6.472   0.767   0.170 -0.3557  0.5336 -0.4197
   25MOL   H59316961   6.527   0.734   6.738 -2.0826  1.3227 -0.2519
   25MOL   H59416962   6.470   0.889   6.994 -2.2267 -0.0045  0.2716
   25MOL   H59516963   6.356   0.829   6.897  2.1776  2.5470 -0.5526
   25MOL   H59616964   6.564   0.653   7.058  0.1796 -0.1287 -0.8880
   25MOL   H59716965   6.435   0.590   6.961 -2.0465  2.9404 -1.4397
   25MOL   H59816966   6.384   0.749   7.210 -2.1272 -0.9854  1.3192
   25MOL   H59916967   6.262   0.683   7.102 -0.5317 -1.5264  0.8166
   25MOL   H60016968   6.465   0.517   7.243 -0.6678  0.4559  0.7999
   25MOL   H60116969   6.344   0.456   7.123 -1.5620 -1.3534  0.8010
   25MOL   H60216970   6.263   0.410   7.332 -0.3394  0.1070 -0.4671
   25MOL   H60316971   6.171   0.550   7.276 -1.4210 -2.0912  0.6229
   25MOL   H60416972   6.407   0.533   7.474  0.0804  0.7282  0.0152
   25MOL   H60516973   6.349   0.675   7.413 -1.7383  0.4861  0.6706
   25MOL   H60616974   6.180   0.492   7.583 -0.1785  0.1006  0.7151
   25MOL   H60716975   6.113   0.621   7.509 -1.6649 -1.9516  2.1164
   25MOL   H60816976   6.329   0.745   7.669 -1.6002  0.8168  1.0956
   25MOL   H60916977   6.163   0.725   7.713 -0.4506  0.2875 -0.6349
   25MOL   H61016978   6.398   0.538   0.070  0.0649  2.4331 -1.7443
   25MOL   H61116979   6.230   0.489   0.072  2.2697 -1.1912  0.0022
   25MOL   H61216980   6.260   0.585   0.301 -0.7536 -0.2711  0.3824
   25MOL   H61316981   6.196   0.714   0.215 -2.0115 -1.4656  0.1439
   25MOL   N61416982   6.429   0.761   0.393 -0.5283  0.2299  0.5563
   25MOL   C61516983   6.548   0.825   0.442  0.5650  0.1993  0.5412
   25MOL   C61616984   6.661   0.725   0.472  0.0490  0.5398  0.7495
   25MOL   C61716985   6.796   0.776   0.517 -0.0840  0.3938  0.3286
   25MOL   C61816986   6.849   0.869   0.403  0.5153  0.2663 -0.4714
   25MOL   C61916987   6.981   0.946   0.432 -0.3574 -0.2121 -0.5035
   25MOL   C62016988   6.968   1.051   0.536 -0.1150 -0.0021  0.4455
   25MOL   C62116989   7.088   1.144   0.554 -0.4339  0.3107 -0.3854
   25MOL   C62216990   7.056   1.274   0.625  0.1393  0.2420 -0.3675
   25MOL   C62316991   7.167   1.378   0.634 -0.0799  0.6151  0.8382
   25MOL   C62416992   7.141   1.477   0.756  0.2497  0.4627  0.1032
   25MOL   C62516993   7.175   1.413   0.895  0.0069 -0.0012  0.2107
   25MOL   O62616994   7.288   1.368   0.918  0.4714  0.8397  0.1514
   25MOL   H62716995   6.363   0.724   0.459  0.8229  0.1991  1.9030
   25MOL   H62816996   6.517   0.882   0.529  4.0669  1.1239  1.2564
   25MOL   H62916997   6.591   0.900   0.376  2.7565 -0.6987  0.9030
   25MOL   H63016998   6.674   0.670   0.379  1.7544  1.1671  0.5998
   25MOL   H63116999   6.630   0.646   0.540 -1.6847 -1.0914 -1.8405
   25MOL   H63217000   6.786   0.832   0.610 -0.0248 -1.2420  1.3267
   25MOL   H63317001   6.856   0.690   0.544 -2.5266 -1.5695 -0.3641
   25MOL   H63417002   6.779   0.945   0.369  0.3396  0.0125 -0.6767
   25MOL   H63517003   6.873   0.806   0.317 -0.7605  0.5465 -1.0341
   25MOL   H63617004   7.018   0.992   0.340 -0.0878  1.0550  0.2374
   25MOL   H63717005   7.061   0.877   0.458  0.6804  1.5829  1.1353
   25MOL   H63817006   6.881   1.110   0.509  0.1749 -0.2037 -1.0141
   25MOL   H63917007   6.958   0.989   0.625 -1.7022  1.8931  1.6253
   25MOL   H64017008   7.124   1.187   0.461  0.0264  2.1437  0.6048
   25MOL   H64117009   7.175   1.091   0.593 -1.0951 -0.1969  0.4217
   25MOL   H64217010   6.963   1.318   0.589 -1.1144  1.2562  3.8483
   25MOL   H64317011   7.023   1.248   0.726 -0.0723  1.2337 -0.1779
   25MOL   H64417012   7.182   1.425   0.536 -0.2336 -0.9780  0.0370
   25MOL   H64517013   7.261   1.324   0.646 -1.0012 -1.2919 -0.2204
   25MOL   H64617014   7.041   1.519   0.756 -1.0215 -2.4484  0.3452
   25MOL   H64717015   7.204   1.564   0.737  1.8075 -0.8675 -0.9683
   25MOL   N64817016   7.075   1.391   0.980 -0.0584 -0.1625  0.5933
   25MOL   C64917017   7.072   1.336   1.106  0.4065 -0.4346 -0.2121
   25MOL   C65017018   7.120   1.183   1.110  0.0054 -0.0749  0.1970
   25MOL   C65117019   7.038   1.090   1.020 -0.0148 -0.1982  0.0856
   25MOL   C65217020   7.084   0.940   1.034  0.1459 -0.5096  0.6867
   25MOL   C65317021   7.015   0.842   0.932  0.0681  1.0393 -0.2116
   25MOL   C65417022   7.053   0.700   0.948  0.0107  0.5549 -0.4849
   25MOL   C65517023   6.967   0.598   0.869 -0.0630 -0.2512 -0.3996
   25MOL   C65617024   6.819   0.588   0.882  0.4018 -0.1079 -0.0553
   25MOL   C65717025   6.775   0.474   0.781 -0.5650 -0.6833  0.0394
   25MOL   C65817026   6.618   0.472   0.757 -0.0514  0.8452 -0.1707
   25MOL   C65917027   6.534   0.456   0.878  0.4753 -0.2148 -1.0024
   25MOL   O66017028   6.515   0.550   0.956 -0.4369  0.2481  0.1484
   25MOL   H66117029   6.986   1.427   0.947  0.1540  0.5252  0.7680
   25MOL   H66217030   6.975   1.343   1.154 -0.8152  0.9358 -2.7541
   25MOL   H66317031   7.134   1.404   1.164 -0.9027  0.7146 -0.1221
   25MOL   H66417032   7.112   1.148   1.213 -2.8149 -1.7967 -0.5459
   25MOL   H66517033   7.223   1.168   1.077 -1.0883 -1.5532 -2.6633
   25MOL   H66617034   6.932   1.102   1.041  0.0592 -0.8222  0.8598
   25MOL   H66717035   7.056   1.123   0.918 -0.0743 -1.1771 -0.2475
   25MOL   H66817036   7.054   0.902   1.131 -3.0957  1.0169  0.3544
   25MOL   H66917037   7.191   0.928   1.014  0.3133  1.4174  0.3501
   25MOL   H67017038   7.015   0.876   0.828  1.7251  1.7613  0.0085
   25MOL   H67117039   6.907   0.845   0.948  0.1323  1.7622  0.0959
   25MOL   H67217040   7.156   0.676   0.922  1.0996  3.0073  1.3352
   25MOL   H67317041   7.041   0.677   1.054  2.9406 -1.3331 -0.5116
   25MOL   H67417042   7.005   0.498   0.887  0.2327 -0.1666 -0.5402
   25MOL   H67517043   6.986   0.624   0.765 -2.8328  1.2616 -0.5906
   25MOL   H67617044   6.789   0.536   0.973  1.4499 -0.9848 -0.1985
   25MOL   H67717045   6.772   0.683   0.857  2.3212  1.0614  0.7645
   25MOL   H67817046   6.829   0.384   0.810 -0.8586 -0.8272  0.1412
   25MOL   H67917047   6.807   0.508   0.682 -1.7866 -2.6090 -1.0598
   25MOL   H68017048   6.587   0.396   0.686  0.2119 -0.0457  0.6520
   25MOL   H68117049   6.586   0.568   0.717 -1.6113  0.8614  1.0418
   25MOL   H68217050   6.484   0.359   0.886  0.5249 -0.1708 -0.0577
   26MOL     N117051   1.316   7.181   6.825 -0.2250 -0.6783 -0.2404
   26MOL     C217052   1.447   7.234   6.863  0.4511  0.1745 -0.1106
   26MOL     C317053   1.557   7.132   6.836  0.3735 -0.1466 -0.0578
   26MOL     C417054   1.702   7.152   6.888  0.2744 -0.0529 -0.0617
   26MOL     C517055   1.700   7.192   7.036 -0.2752  0.5946 -0.0232
   26MOL     C617056   1.843   7.236   7.085  0.6386 -0.1328 -0.5861
   26MOL     C717057   1.853   7.246   7.242  0.6026  0.4065  0.0919
   26MOL     C817058   1.780   7.376   7.293 -0.6623  0.2177 -0.2737
   26MOL     C917059   1.819   7.424   7.442 -0.0669  1.2716  0.0622
   26MOL    C1017060   1.722   7.522   7.495  0.2968 -0.2738  0.4617
   26MOL    C1117061   1.692   7.649   7.417 -0.1025 -0.0092  0.9873
   26MOL    C1217062   1.818   0.015   7.373 -0.0979  0.1337 -0.6970
   26MOL    O1317063   1.928   7.704   7.420 -0.1744  0.0571  0.6341
   26MOL    H1417064   1.234   7.240   6.834  0.4608 -0.2491  4.5035
   26MOL    H1517065   1.440   7.254   6.970 -0.1671  0.7099 -0.2434
   26MOL    H1617066   1.462   7.335   6.824  0.8886  0.8036  1.6368
   26MOL    H1717067   1.565   7.123   6.728 -1.7196  0.0328 -0.2365
   26MOL    H1817068   1.524   7.035   6.873  0.6932 -0.0375  0.5353
   26MOL    H1917069   1.757   7.059   6.869 -1.9114 -1.5883  0.9013
   26MOL    H2017070   1.754   7.228   6.830  0.4859 -1.0570 -1.2073
   26MOL    H2117071   1.660   7.112   7.098  2.6181 -1.0658 -0.2258
   26MOL    H2217072   1.633   7.277   7.048 -0.7727  0.2962 -0.6178
   26MOL    H2317073   1.895   7.316   7.033  2.6886 -0.6962  0.5214
   26MOL    H2417074   1.908   7.152   7.059 -0.1680 -0.3582 -1.9018
   26MOL    H2517075   1.793   7.164   7.282  1.0782 -1.0903 -2.1611
   26MOL    H2617076   1.956   7.233   7.274  0.5558  0.5115  0.2834
   26MOL    H2717077   1.672   7.371   7.284 -1.0080  0.8018  2.7779
   26MOL    H2817078   1.816   7.456   7.228  0.4552 -1.0496 -1.2458
   26MOL    H2917079   1.820   7.332   7.500  3.3247  1.4191  0.3184
   26MOL    H3017080   1.920   7.464   7.441 -0.0553  1.2591 -2.2787
   26MOL    H3117081   1.752   7.541   7.598 -1.5744 -0.8871  1.1276
   26MOL    H3217082   1.626   7.475   7.514  1.5350 -2.1608  2.3280
   26MOL    H3317083   1.622   0.002   7.464 -0.3467  2.9506 -3.3974
   26MOL    H3417084   1.639   7.620   7.326 -0.1352 -0.1199  1.0420
   26MOL    H3517085   1.299   7.104   6.889  0.0712  0.6084  1.4112
   26MOL    N3617086   1.792   0.119   7.294 -0.3737 -1.0012 -0.8755
   26MOL    C3717087   1.880   0.230   7.251  0.0155 -0.2637  0.2165
   26MOL    C3817088   1.878   0.344   7.354  0.3648 -0.4694  1.1230
   26MOL    C3917089   1.966   0.467   7.303 -0.3640  0.6607  0.0711
   26MOL    C4017090   1.968   0.587   7.393 -0.3178 -0.6652  0.5579
   26MOL    C4117091   2.054   0.699   7.339  0.7194  0.7419 -0.7353
   26MOL    C4217092   2.027   0.832   7.403 -0.3029  0.0337 -0.4120
   26MOL    C4317093   2.038   0.847   7.556 -0.1432 -0.5035 -0.1652
   26MOL    C4417094   1.966   0.980   7.611  0.5059  0.5932 -0.8530
   26MOL    C4517095   1.992   1.020   0.040 -0.2633  0.4020  0.0562
   26MOL    C4617096   1.948   0.914   0.149  0.4945  0.3654  0.2852
   26MOL    C4717097   1.802   0.891   0.137 -0.3862 -0.7874 -0.2360
   26MOL    O4817098   1.723   0.989   0.132 -0.2897 -0.6301 -0.1558
   26MOL    H4917099   1.696   0.139   7.269  0.0473  0.8458 -1.0776
   26MOL    H5017100   1.983   0.196   7.243  0.3742  0.7929  0.2661
   26MOL    H5117101   1.849   0.271   7.155  0.1030  1.1629  0.7773
   26MOL    H5217102   1.914   0.302   7.448 -0.2008 -0.6720  1.2527
   26MOL    H5317103   1.782   0.380   7.392  0.3075 -1.9658  2.4723
   26MOL    H5417104   2.068   0.430   7.293 -0.7248 -0.5269  0.7189
   26MOL    H5517105   1.918   0.504   7.213  1.4576  3.7935  0.3150
   26MOL    H5617106   1.998   0.554   7.493 -3.5121 -0.3353  1.6609
   26MOL    H5717107   1.864   0.618   7.396 -0.4812 -1.2896  1.8982
   26MOL    H5817108   2.044   0.714   7.232  1.6130 -0.1557 -0.9491
   26MOL    H5917109   2.154   0.659   7.360 -1.0135 -1.9605  2.8306
   26MOL    H6017110   2.098   0.906   7.365 -0.2073  1.0532  1.6397
   26MOL    H6117111   1.929   0.867   7.369  0.4086 -0.7539 -3.3462
   26MOL    H6217112   2.144   0.836   7.579  0.1461 -0.4385 -1.4711
   26MOL    H6317113   1.989   0.758   7.596  1.5009 -1.7200 -0.8073
   26MOL    H6417114   2.001   1.061   7.547 -1.8284  2.8523  0.6346
   26MOL    H6517115   1.860   0.966   7.590  0.0634  0.5076  1.3875
   26MOL    H6617116   1.934   1.109   0.062  2.0521  1.8586  0.5013
   26MOL    H6717117   2.094   1.058   0.053  0.2346 -1.9111  3.3626
   26MOL    H6817118   1.970   0.955   0.247 -1.0151  3.1515 -0.4855
   26MOL    H6917119   2.001   0.819   0.140 -0.4509 -0.3557  2.2284
   26MOL    N7017120   1.756   0.763   0.137 -0.4292 -0.2065 -0.5780
   26MOL    C7117121   1.614   0.717   0.117 -0.3022  0.3877 -0.2411
   26MOL    C7217122   1.584   0.702   7.684 -0.4438 -0.0266 -0.4642
   26MOL    C7317123   1.441   0.655   7.652 -0.7129  0.2753 -0.1448
   26MOL    C7417124   1.355   0.784   7.656  0.3100 -0.3235  0.4868
   26MOL    C7517125   1.203   0.759   7.663 -0.5313  0.4114  0.1161
   26MOL    C7617126   1.152   0.717   0.091 -0.2601 -0.2516  0.4638
   26MOL    C7717127   1.001   0.722   0.109  0.6035  0.1404 -0.2232
   26MOL    C7817128   0.958   0.695   0.250  0.2055 -0.4766 -0.4555
   26MOL    C7917129   0.987   0.809   0.343  0.9027 -0.0980  1.0431
   26MOL    C8017130   0.933   0.788   0.487 -0.7956  0.1704  0.5872
   26MOL    C8117131   0.780   0.799   0.510 -0.4888  0.2351 -0.4400
   26MOL    O8217132   0.704   0.709   0.480  0.8141 -0.5309 -0.0635
   26MOL    H8317133   1.823   0.688   0.127 -0.3070 -0.2829  0.8118
   26MOL    H8417134   1.589   0.625   0.169  0.3223 -0.2062 -0.9846
   26MOL    H8517135   1.554   0.794   0.166 -0.4894 -1.4707  2.5556
   26MOL    H8617136   1.656   0.630   7.646 -1.0022  0.5116 -2.6296
   26MOL    H8717137   1.606   0.797   7.635 -0.7070 -0.1848 -0.8823
   26MOL    H8817138   1.433   0.627   7.547 -0.0590 -0.1722 -0.0733
   26MOL    H8917139   1.406   0.570   7.710  1.5793 -0.6368 -0.0881
   26MOL    H9017140   1.368   0.849   7.569  2.7911 -0.4368  0.7397
   26MOL    H9117141   1.377   0.844   0.028 -1.0383  2.1715 -0.8053
   26MOL    H9217142   1.169   0.688   7.588  0.4106  2.1868 -2.0328
   26MOL    H9317143   1.161   0.858   7.646 -1.0636  0.7067  2.9089
   26MOL    H9417144   1.192   0.620   0.119 -0.8852 -0.8145 -0.5149
   26MOL    H9517145   1.198   0.786   0.161  0.3313 -1.2972  1.1199
   26MOL    H9617146   0.955   0.639   0.056  0.1688 -0.2409  0.7369
   26MOL    H9717147   0.957   0.814   0.072 -1.9493 -1.1780 -0.5808
   26MOL    H9817148   0.850   0.683   0.251 -0.0685  1.5651 -1.8229
   26MOL    H9917149   1.004   0.602   0.283 -2.2640 -1.3051  0.8007
   26MOL   H10017150   0.930   0.894   0.304 -1.3993 -2.6175 -1.3014
   26MOL   H10117151   1.095   0.826   0.345  0.7615  1.0105  0.1382
   26MOL   H10217152   0.984   0.848   0.563  0.2029  0.2424 -0.1357
   26MOL   H10317153   0.960   0.684   0.509 -0.8270  0.4124  1.8416
   26MOL   N10417154   0.734   0.900   0.578 -0.0730 -0.0385  0.4664
   26MOL   C10517155   0.592   0.917   0.617  0.7256  0.1308  0.6650
   26MOL   C10617156   0.554   0.830   0.741  0.1859 -0.7702 -0.4579
   26MOL   C10717157   0.406   0.840   0.768  0.5545  0.5304 -0.2475
   26MOL   C10817158   0.361   0.733   0.875 -0.2801 -0.0388 -0.1671
   26MOL   C10917159   0.227   0.763   0.947 -0.3833  0.2348  0.2413
   26MOL   C11017160   0.200   0.663   1.060  0.4281  0.7897 -0.0578
   26MOL   C11117161   0.163   0.524   0.997 -0.3835 -0.4483  0.3095
   26MOL   C11217162   0.097   0.424   1.091  0.2354 -0.1909 -0.3246
   26MOL   C11317163   0.033   0.302   1.022  0.3057  0.3545  0.7641
   26MOL   C11417164   0.113   0.167   1.023  0.2502 -0.2240  0.0115
   26MOL   C11517165   0.227   0.157   0.923  0.9325  0.6579 -0.2848
   26MOL   O11617166   0.248   0.244   0.841 -0.0069 -0.1612  0.4917
   26MOL   H11717167   0.801   0.967   0.613 -0.2165  0.5345 -0.3265
   26MOL   H11817168   0.584   1.023   0.638  0.0980  0.1061  0.5637
   26MOL   H11917169   0.527   0.883   0.536  0.4393 -0.2419  1.0484
   26MOL   H12017170   0.620   0.857   0.823  0.5525 -1.3650 -0.5580
   26MOL   H12117171   0.588   0.728   0.725 -1.2080 -1.2226 -0.6458
   26MOL   H12217172   0.382   0.941   0.801  0.8609  1.3688 -2.5180
   26MOL   H12317173   0.346   0.824   0.678 -0.7105  1.6012  0.3855
   26MOL   H12417174   0.434   0.743   0.955  0.0899 -2.9383 -0.0902
   26MOL   H12517175   0.371   0.635   0.827  0.6208  0.5074 -1.1014
   26MOL   H12617176   0.146   0.763   0.873 -0.3835 -0.2657  0.2429
   26MOL   H12717177   0.234   0.863   0.989 -2.5594  0.1856  0.7889
   26MOL   H12817178   0.283   0.663   1.130 -0.8151  1.5550  1.4654
   26MOL   H12917179   0.124   0.701   1.129  0.4040  1.5128 -0.4703
   26MOL   H13017180   0.255   0.480   0.958 -0.1254  0.0896  0.2963
   26MOL   H13117181   0.089   0.545   0.920  1.4833  1.1617 -1.1099
   26MOL   H13217182   0.167   0.388   1.166  0.3636  0.3467 -0.1843
   26MOL   H13317183   0.019   0.466   1.155  0.7388  1.3523 -0.7051
   26MOL   H13417184   7.711   0.326   0.922 -2.3216 -1.7045  1.1852
   26MOL   H13517185   7.659   0.266   1.074 -0.5049 -0.3731 -1.1054
   26MOL   H13617186   0.055   0.078   1.001 -0.3529  0.4635 -1.2014
   26MOL   H13717187   0.143   0.151   1.127 -0.2517 -2.0799 -0.1270
   26MOL   N13817188   0.295   0.041   0.924 -0.4067  0.1410 -0.4791
   26MOL   C13917189   0.382   7.713   0.816  0.0254  0.2493  0.0564
   26MOL   C14017190   0.310   7.602   0.741  0.4044  1.6530  1.1142
   26MOL   C14117191   0.387   7.561   0.618  0.4884 -0.3548 -0.5445
   26MOL   C14217192   0.337   7.424   0.559  0.4907 -0.2526 -1.1311
   26MOL   C14317193   0.410   7.374   0.428  0.1645  0.3432  0.1465
   26MOL   C14417194   0.379   7.236   0.369  0.0906 -0.2881  0.6751
   26MOL   C14517195   0.438   7.128   0.455  0.0338  0.0516 -0.4162
   26MOL   C14617196   0.590   7.115   0.471 -0.0576 -0.5892 -0.4915
   26MOL   C14717197   0.634   6.973   0.496 -0.5362  0.3744  0.6890
   26MOL   C14817198   0.786   6.953   0.529  0.2440 -0.1120 -0.3549
   26MOL   C14917199   0.823   6.954   0.675  0.2045 -0.0874 -0.2256
   26MOL   O15017200   0.757   7.027   0.743  0.1602 -0.3296  0.5824
   26MOL   H15117201   0.271   7.693   0.998 -0.1766 -1.8706 -2.0811
   26MOL   H15217202   0.420   0.082   0.759  0.9151 -1.5563 -2.1489
   26MOL   H15317203   0.469   7.674   0.868  0.6534  1.5604  0.0153
   26MOL   H15417204   0.214   7.638   0.704  1.0830  0.4069 -1.9999
   26MOL   H15517205   0.300   7.526   0.818 -1.3357  0.9677  0.2431
   26MOL   H15617206   0.401   7.642   0.547 -1.8223  1.4093  0.9288
   26MOL   H15717207   0.484   7.522   0.647 -0.2979 -1.8216  0.2000
   26MOL   H15817208   0.233   7.446   0.536 -0.3706 -0.3071  2.3066
   26MOL   H15917209   0.347   7.348   0.637 -1.0517 -0.5150 -1.1643
   26MOL   H16017210   0.517   7.372   0.451 -0.4473 -1.3936  3.1995
   26MOL   H16117211   0.393   7.449   0.351 -0.7088 -0.9963 -0.9866
   26MOL   H16217212   0.270   7.229   0.365  0.3439 -5.8161  0.6069
   26MOL   H16317213   0.428   7.217   0.274  1.2644  1.1537  0.9659
   26MOL   H16417214   0.400   7.040   0.404 -1.8649  0.3134  0.5071
   26MOL   H16517215   0.388   7.123   0.551 -1.8736  1.1097 -1.3176
   26MOL   H16617216   0.642   7.137   0.377  2.8278 -0.7020  1.0021
   26MOL   H16717217   0.630   7.188   0.542  0.4779 -1.2991 -0.0527
   26MOL   H16817218   0.618   6.910   0.408  0.4141  0.3198  0.5520
   26MOL   H16917219   0.579   6.935   0.582 -0.4951 -1.3768 -0.0257
   26MOL   H17017220   0.854   7.016   0.472 -1.7055  0.8376 -1.7007
   26MOL   H17117221   0.799   6.853   0.490  2.4541 -0.7456  1.8593
   26MOL   N17217222   0.925   6.878   0.719 -0.4580  0.2036 -0.0350
   26MOL   C17317223   1.004   6.772   0.656 -0.1582  0.7551  0.3919
   26MOL   C17417224   0.946   6.636   0.683  0.5770  0.1484  0.0875
   26MOL   C17517225   0.820   6.598   0.595  0.3673 -1.0792  0.2759
   26MOL   C17617226   0.780   6.454   0.588  0.2276 -0.2086 -0.2936
   26MOL   C17717227   0.772   6.390   0.727  0.3431  0.1175  1.0814
   26MOL   C17817228   0.648   6.427   0.805  0.0817 -0.1928  0.5505
   26MOL   C17917229   0.640   6.365   0.945  0.2181 -0.3063 -0.1183
   26MOL   C18017230   0.754   6.409   1.035  0.0839  0.1976 -0.0981
   26MOL   C18117231   0.738   6.384   1.186 -0.2831  0.2547 -0.0480
   26MOL   C18217232   0.700   6.232   1.224  0.0872  0.0592 -0.3171
   26MOL   C18317233   0.653   6.223   1.377  0.7305  0.1279  0.3021
   26MOL   O18417234   0.681   6.314   1.455  0.2685 -0.0629 -0.3460
   26MOL   H18517235   0.955   6.895   0.814  1.7143 -0.6781 -0.5432
   26MOL   H18617236   1.014   6.793   0.550  1.2918 -2.9469 -0.2778
   26MOL   H18717237   1.103   6.770   0.703  0.3896 -0.7548 -0.7609
   26MOL   H18817238   0.911   6.636   0.786  0.6966  1.4175  0.1339
   26MOL   H18917239   1.021   6.560   0.660 -2.2895 -2.6431 -0.4332
   26MOL   H19017240   0.743   6.671   0.620  0.6778  0.1143 -2.1537
   26MOL   H19117241   0.853   6.629   0.496 -0.2222 -0.3965  0.2893
   26MOL   H19217242   0.866   6.407   0.541  0.3065 -1.5156  1.0995
   26MOL   H19317243   0.700   6.434   0.517  0.6720 -1.4111 -0.4548
   26MOL   H19417244   0.860   6.425   0.782  1.5402  2.4658 -2.1422
   26MOL   H19517245   0.771   6.281   0.725  1.7493  0.1097 -2.7908
   26MOL   H19617246   0.640   6.535   0.803  1.8487 -0.0604 -0.7498
   26MOL   H19717247   0.571   6.384   0.741  1.9102  1.1426 -2.6710
   26MOL   H19817248   0.633   6.257   0.930  0.7253 -0.0025 -2.8699
   26MOL   H19917249   0.542   6.384   0.988  0.3494  0.3966 -0.1256
   26MOL   H20017250   0.841   6.358   0.994 -0.2033 -1.3417  1.1160
   26MOL   H20117251   0.776   6.515   1.023 -0.5841  0.1888 -1.4678
   26MOL   H20217252   0.665   6.453   1.228 -0.9631  0.1135 -0.9670
   26MOL   H20317253   0.832   6.396   1.239 -0.2527  2.0132 -0.4950
   26MOL   H20417254   0.788   6.168   1.212  0.3301  0.0313  1.4731
   26MOL   H20517255   0.622   6.205   1.153 -1.4289 -0.9891  1.7058
   26MOL   N20617256   0.591   6.118   1.418  0.1484  0.6124 -0.3219
   26MOL   C20717257   0.580   6.088   1.565  0.6669  0.1435  0.0858
   26MOL   C20817258   0.568   5.932   1.570 -0.7758 -0.1532 -0.5764
   26MOL   C20917259   0.425   5.871   1.559  0.2453 -0.3110 -0.2521
   26MOL   C21017260   0.347   5.914   1.439 -0.3411 -0.3988  0.2263
   26MOL   C21117261   0.397   5.880   1.300 -0.3707 -0.5265  0.2731
   26MOL   C21217262   0.350   5.998   1.208 -0.6149  0.4082  0.5918
   26MOL   C21317263   0.389   5.962   1.070  0.7354 -0.1198  0.2037
   26MOL   C21417264   0.346   6.071   0.969  0.3733 -0.2488  0.1589
   26MOL   C21517265   0.375   6.035   0.824 -0.2847  0.3476 -0.2173
   26MOL   C21617266   0.282   6.114   0.727  0.1232  0.0670 -0.5967
   26MOL   C21717267   0.133   6.072   0.729  0.0600 -0.1844  0.5388
   26MOL   O21817268   0.105   5.949   0.730  0.9900  0.0495  0.6365
   26MOL   H21917269   0.567   6.038   1.361  0.4555 -1.9777  3.0973
   26MOL   H22017270   0.506   6.148   1.617 -0.4843 -0.0290 -1.3186
   26MOL   H22117271   0.676   6.118   1.607  2.2381 -1.6504 -2.0653
   26MOL   H22217272   0.608   5.906   1.668  1.5488 -0.4481 -1.5578
   26MOL   H22317273   0.629   5.880   1.496 -1.6941 -1.6227 -0.3240
   26MOL   H22417274   0.420   5.762   1.554 -0.6888 -0.2130 -1.8497
   26MOL   H22517275   0.367   5.898   1.648 -0.1543  0.1332 -0.6422
   26MOL   H22617276   0.343   6.023   1.451 -1.9482 -0.6959  2.7623
   26MOL   H22717277   0.244   5.879   1.442 -0.0089 -1.5531 -1.3561
   26MOL   H22817278   0.348   5.785   1.274 -0.1916 -0.9864  1.5980
   26MOL   H22917279   0.504   5.864   1.288 -0.1674  0.7077  0.4512
   26MOL   H23017280   0.241   5.998   1.210 -0.6144  0.3493  0.6430
   26MOL   H23117281   0.397   6.088   1.247  0.9767  0.4569 -1.3770
   26MOL   H23217282   0.337   5.873   1.034 -0.0546  0.3870  0.0653
   26MOL   H23317283   0.493   5.932   1.065  0.6443 -0.3846 -0.1811
   26MOL   H23417284   0.240   6.092   0.988  0.7058 -0.4244  2.3324
   26MOL   H23517285   0.407   6.158   0.993  1.8867 -1.3835  0.4466
   26MOL   H23617286   0.358   5.928   0.815 -1.5422  0.6324 -1.3739
   26MOL   H23717287   0.479   6.055   0.798 -0.1205  1.1064  0.9723
   26MOL   H23817288   0.309   6.104   0.623  0.8454  0.3489 -0.4366
   26MOL   H23917289   0.294   6.222   0.730  0.8756 -0.0513  2.3487
   26MOL   N24017290   0.044   6.174   0.735 -0.9586  0.4182  0.5893
   26MOL   C24117291   7.622   6.171   0.744 -0.4006  0.4321 -0.6195
   26MOL   C24217292   7.540   6.267   0.653 -0.6762  0.6275  0.2252
   26MOL   C24317293   7.577   6.418   0.671 -0.4345  0.2006  0.3925
   26MOL   C24417294   7.503   6.518   0.574 -0.3073  0.1508 -0.2950
   26MOL   C24517295   7.384   6.589   0.638  0.3369 -0.4163 -0.0865
   26MOL   C24617296   7.318   6.704   0.559 -1.1297 -0.4728 -0.1266
   26MOL   C24717297   7.205   6.776   0.627 -0.2705 -0.6694  0.0945
   26MOL   C24817298   7.247   6.884   0.726 -0.5101 -0.6770 -0.6097
   26MOL   C24917299   7.126   6.903   0.815  0.1734  0.3983  0.2613
   26MOL   C25017300   7.163   6.996   0.938  0.1687  0.2758  0.0954
   26MOL   C25117301   7.051   6.997   1.038 -0.0529  0.1818  0.2515
   26MOL   O25217302   6.932   6.999   1.012 -0.0635  0.1097 -0.6248
   26MOL   H25317303   0.088   6.264   0.751  0.3952 -0.2479  0.6908
   26MOL   H25417304   7.588   6.181   0.847  0.2099 -0.8725 -0.2784
   26MOL   H25517305   7.584   6.071   0.722  2.0198 -0.7710  0.4855
   26MOL   H25617306   7.434   6.240   0.649 -0.8682  1.2693  0.8291
   26MOL   H25717307   7.564   6.240   0.550  1.8568  1.0386  0.6867
   26MOL   H25817308   7.580   6.460   0.771 -3.5880  0.5848  0.3986
   26MOL   H25917309   7.682   6.438   0.649 -0.7256  1.2218 -0.1168
   26MOL   H26017310   7.475   6.473   0.479 -0.0948  1.6861 -1.1017
   26MOL   H26117311   7.573   6.597   0.549 -0.8077  0.2757 -1.3247
   26MOL   H26217312   7.411   6.630   0.736 -1.8077 -0.9495  0.7552
   26MOL   H26317313   7.313   6.516   0.676  1.0663 -1.5266 -0.8619
   26MOL   H26417314   7.392   6.781   0.539 -1.6311  0.1057  0.2393
   26MOL   H26517315   7.284   6.676   0.459  1.0196  1.0755 -1.3297
   26MOL   H26617316   7.150   6.693   0.672 -0.3206  0.0348  1.3727
   26MOL   H26717317   7.135   6.829   0.563 -2.9427 -1.1887  2.4663
   26MOL   H26817318   7.330   6.846   0.786  0.7622  2.2770 -0.4406
   26MOL   H26917319   7.279   6.971   0.670  1.2724  0.4422  2.0553
   26MOL   H27017320   7.089   6.805   0.845 -0.4814  1.0165  1.5275
   26MOL   H27117321   7.046   6.958   0.766  1.7209  0.7891 -1.8902
   26MOL   H27217322   7.181   7.100   0.911  0.6807  0.3369  0.6493
   26MOL   H27317323   7.250   6.953   0.988 -0.1886 -2.1817 -1.3003
   26MOL   N27417324   7.090   7.022   1.164 -0.1663 -0.3061 -0.6478
   26MOL   C27517325   7.005   7.045   1.280 -0.0406 -0.0391 -0.5538
   26MOL   C27617326   7.075   6.994   1.407  0.2452  0.3332 -0.5964
   26MOL   C27717327   7.135   6.849   1.402 -0.0366 -0.1307  0.2617
   26MOL   C27817328   7.179   6.811   1.549 -0.3553  0.2351 -0.6267
   26MOL   C27917329   7.293   6.896   1.609  0.5465 -0.1244  0.7122
   26MOL   C28017330   7.344   6.850   1.754  0.2299  0.4736  0.3452
   26MOL   C28117331   7.448   6.945   1.805 -0.8876  0.2675 -0.0064
   26MOL   C28217332   7.513   6.879   1.927  0.0614 -0.8581 -0.1351
   26MOL   C28317333   7.430   6.908   2.058  0.2918 -0.1318  0.4577
   26MOL   C28417334   7.476   6.853   2.195 -0.8244  0.1203  0.5752
   26MOL   C28517335   7.609   6.926   2.228 -0.2916  0.3594 -0.4734
   26MOL   O28617336   7.613   7.050   2.239  0.0787 -0.1094  0.2389
   26MOL   H28717337   7.186   7.049   1.180 -0.0266 -1.0509 -0.2008
   26MOL   H28817338   6.913   6.990   1.260  0.6013 -1.8083  1.2578
   26MOL   H28917339   6.992   7.153   1.288  0.0873 -0.1926  2.0953
   26MOL   H29017340   7.002   6.984   1.486  0.2013 -0.4262 -0.7255
   26MOL   H29117341   7.151   7.066   1.436  1.4628 -1.8777  1.9652
   26MOL   H29217342   7.060   6.777   1.369 -0.9236  0.3803  1.1330
   26MOL   H29317343   7.214   6.850   1.326  0.8838  0.6117  1.2167
   26MOL   H29417344   7.197   6.704   1.546  0.9568  0.4402 -0.3048
   26MOL   H29517345   7.098   6.823   1.621 -1.6251 -2.1162 -1.6111
   26MOL   H29617346   7.251   6.997   1.610  2.2397  0.6378 -1.6797
   26MOL   H29717347   7.371   6.903   1.534 -0.3075  0.0404 -0.1706
   26MOL   H29817348   7.255   6.851   1.818 -1.2327 -0.2624 -1.6284
   26MOL   H29917349   7.388   6.751   1.751  2.8646  1.4642  3.0592
   26MOL   H30017350   7.408   7.046   1.815  1.4170  1.2097  0.0939
   26MOL   H30117351   7.520   6.961   1.724  0.3881 -0.4876  0.9636
   26MOL   H30217352   7.529   6.774   1.904 -0.9482 -0.9433 -0.4934
   26MOL   H30317353   7.609   6.924   1.952 -1.5938  1.4351  2.3711
   26MOL   H30417354   7.327   6.873   2.053 -0.2665  1.7098 -1.9404
   26MOL   H30517355   7.409   7.015   2.052  0.5684  0.1199  3.5969
   26MOL   H30617356   7.489   6.745   2.202  3.7817  0.4887 -1.1316
   26MOL   H30717357   7.414   6.877   2.282 -2.3187 -2.1621  0.1917
   26MOL   N30817358   0.002   6.848   2.240 -0.0400 -0.1201 -0.1526
   26MOL   C30917359   0.140   6.889   2.226 -0.2250  0.1289 -0.2288
   26MOL   C31017360   0.186   6.857   2.080 -0.2379 -0.0502 -0.1470
   26MOL   C31117361   0.340   6.888   2.084 -0.1427 -0.1288 -0.1529
   26MOL   C31217362   0.401   6.860   1.952  0.1158 -0.0420 -1.1379
   26MOL   C31317363   0.552   6.825   1.950 -0.5677 -0.1543  0.5308
   26MOL   C31417364   0.635   6.937   2.028 -0.0556  0.0145  0.0070
   26MOL   C31517365   0.651   6.912   2.177 -0.0589  0.3229 -0.0800
   26MOL   C31617366   0.737   7.017   2.242 -0.1408  0.6599  0.9386
   26MOL   C31717367   0.738   7.003   2.390 -0.3398 -0.1520 -0.0193
   26MOL   C31817368   0.831   7.097   2.476  0.8184 -0.5784 -0.4290
   26MOL   C31917369   0.784   7.244   2.491  0.1490  1.0081 -0.0266
   26MOL   O32017370   0.848   7.334   2.438  0.6669 -0.1030  0.4728
   26MOL   H32117371   7.698   6.750   2.254  1.5192 -0.1186  2.3930
   26MOL   H32217372   0.201   6.840   2.302 -0.7406 -0.6289 -0.2983
   26MOL   H32317373   0.163   6.991   2.257 -1.1703  0.0559  0.7187
   26MOL   H32417374   0.135   6.908   1.998 -2.3942 -0.7594  0.6988
   26MOL   H32517375   0.168   6.750   2.070  1.0842 -0.3131  0.1947
   26MOL   H32617376   0.360   6.989   2.122 -0.8753  0.3079 -0.9095
   26MOL   H32717377   0.382   6.816   2.154 -2.1797  2.8294  4.4162
   26MOL   H32817378   0.386   6.941   1.882 -1.9002  0.6400  0.0306
   26MOL   H32917379   0.341   6.779   1.910 -1.1586  1.5037 -2.3361
   26MOL   H33017380   0.589   6.819   1.848  2.9822 -2.2583  1.8519
   26MOL   H33117381   0.578   6.732   2.001 -0.4994 -0.0919  0.6103
   26MOL   H33217382   0.727   6.936   1.968  0.6118 -2.1795  1.0080
   26MOL   H33317383   0.587   7.035   2.025  1.0948  0.7112  2.8157
   26MOL   H33417384   0.703   6.818   2.197  0.1835  0.0796 -1.7485
   26MOL   H33517385   0.556   6.928   2.227  1.4307  4.2036  1.7377
   26MOL   H33617386   0.840   7.011   2.205 -0.6851  1.0613 -0.7130
   26MOL   H33717387   0.691   7.112   2.215  1.1769  0.9053 -0.5134
   26MOL   H33817388   0.743   6.902   2.430 -0.4744  0.1879  0.8729
   26MOL   H33917389   0.637   7.021   2.427 -0.6460  0.5601 -1.1772
   26MOL   H34017390   0.931   7.109   2.433 -0.2049  1.5972 -2.3654
   26MOL   H34117391   0.837   7.066   2.580  0.1217  0.6290 -0.0236
   26MOL   N34217392   0.660   7.266   2.550  0.1977  0.1597  0.8029
   26MOL   C34317393   0.617   7.397   2.600  0.3888  0.5231 -0.4767
   26MOL   C34417394   0.674   7.445   2.737  0.4835  0.3246 -0.0614
   26MOL   C34517395   0.646   7.589   2.777  1.7945 -0.4610  0.2972
   26MOL   C34617396   0.704   7.630   2.912  0.0578  0.0498  0.2056
   26MOL   C34717397   0.710   0.066   2.948  0.5244  0.5704  0.1745
   26MOL   C34817398   0.763   0.110   3.082 -0.3339 -0.4466 -0.0352
   26MOL   C34917399   0.783   0.262   3.090 -0.0246  0.2992  0.1694
   26MOL   C35017400   0.786   0.328   3.225  0.7095 -0.7881  0.4086
   26MOL   C35117401   0.886   0.265   3.329 -0.3074 -0.2684  0.6757
   26MOL   C35217402   0.887   0.328   3.474  0.0457 -0.3128 -0.0267
   26MOL   C35317403   0.760   0.275   3.546  0.2397 -0.1171 -0.8715
   26MOL   O35417404   0.713   0.166   3.517  0.6993 -0.0473  0.1600
   26MOL   H35517405   0.608   7.182   2.568  1.1594 -1.0651 -1.8344
   26MOL   H35617406   0.628   7.472   2.522 -0.1912  2.3660  1.1781
   26MOL   H35717407   0.508   7.406   2.607  0.5953  3.1672 -0.3473
   26MOL   H35817408   0.783   7.435   2.738  0.5222  0.7088 -0.1474
   26MOL   H35917409   0.641   7.369   2.807 -0.4206  0.8694  0.1029
   26MOL   H36017410   0.678   7.659   2.699  3.7421  0.1967  1.6593
   26MOL   H36117411   0.538   7.601   2.784  1.6282 -1.4162 -0.4908
   26MOL   H36217412   0.808   7.594   2.910 -0.3193 -1.0539 -1.3320
   26MOL   H36317413   0.644   7.588   2.992  0.2496  0.3783  0.5195
   26MOL   H36417414   0.609   0.107   2.949 -0.3240 -1.4734 -0.4269
   26MOL   H36517415   0.767   0.107   2.865 -0.5779  0.9816 -0.3905
   26MOL   H36617416   0.693   0.080   3.160  1.0793  0.5039  1.6353
   26MOL   H36717417   0.855   0.051   3.093 -1.2820 -1.4680  2.8102
   26MOL   H36817418   0.703   0.300   3.026 -0.6857 -2.0452 -0.4486
   26MOL   H36917419   0.876   0.287   3.039 -0.6170  2.2087 -0.0229
   26MOL   H37017420   0.808   0.434   3.210 -0.5121 -0.3685  1.4706
   26MOL   H37117421   0.682   0.314   3.254 -0.2724 -3.3451 -3.8715
   26MOL   H37217422   0.984   0.284   3.285 -1.3854 -0.3130 -1.8124
   26MOL   H37317423   0.892   0.156   3.326 -1.4694 -0.3179 -0.4385
   26MOL   H37417424   0.868   0.435   3.469 -0.2824 -0.4007 -0.8729
   26MOL   H37517425   0.981   0.303   3.523 -0.2958  0.3563  0.9758
   26MOL   N37617426   0.713   0.351   3.645  0.2330 -0.3453  0.7387
   26MOL   C37717427   0.580   0.338   3.708  0.1993  0.5197  0.1102
   26MOL   C37817428   0.470   0.332   3.599  0.1872 -0.5996  0.1720
   26MOL   C37917429   0.472   0.442   3.487 -0.1365  0.1616  0.0122
   26MOL   C38017430   0.344   0.454   3.400  0.3067 -0.4719 -0.1612
   26MOL   C38117431   0.332   0.339   3.298 -0.1099  0.4204  0.0208
   26MOL   C38217432   0.240   0.375   3.180  0.0485 -0.0589 -0.4306
   26MOL   C38317433   0.208   0.246   3.094  0.4404 -0.2706 -0.1716
   26MOL   C38417434   0.328   0.191   3.017 -0.3028  0.8775 -0.7875
   26MOL   C38517435   0.308   0.053   2.958 -0.9557  0.3396  0.0262
   26MOL   C38617436   0.292   7.654   3.066 -0.1084  0.4110  0.3617
   26MOL   C38717437   0.294   7.512   3.007 -0.1623 -0.4464  0.0635
   26MOL   O38817438   0.266   7.493   2.891 -0.1454  0.0962  0.1978
   26MOL   H38917439   0.760   0.438   3.667 -1.0227  0.7124 -0.6533
   26MOL   H39017440   0.583   0.244   3.764  1.1110  0.1898 -0.4805
   26MOL   H39117441   0.551   0.424   3.768  0.3374  0.5041  0.1992
   26MOL   H39217442   0.373   0.339   3.648 -0.9445 -0.9167 -1.9634
   26MOL   H39317443   0.464   0.228   3.566 -1.8471 -0.4149 -0.1119
   26MOL   H39417444   0.473   0.533   3.546  0.3860  0.6643 -0.7684
   26MOL   H39517445   0.556   0.440   3.417 -0.2974 -0.9171 -0.1671
   26MOL   H39617446   0.351   0.548   3.347 -0.2406  0.8502  2.0357
   26MOL   H39717447   0.254   0.461   3.462 -0.3519 -1.5012 -0.9753
   26MOL   H39817448   0.290   0.246   3.336  1.6293 -0.5716 -0.4313
   26MOL   H39917449   0.430   0.309   3.262 -0.0132  0.1632  0.5023
   26MOL   H40017450   0.146   0.425   3.206  0.0611  1.0221 -2.3249
   26MOL   H40117451   0.294   0.443   3.114 -2.0730  0.1764 -1.9868
   26MOL   H40217452   0.129   0.274   3.025  1.5048  0.5864 -1.0622
   26MOL   H40317453   0.170   0.172   3.164  0.8357 -0.0376  0.2960
   26MOL   H40417454   0.351   0.258   2.935  0.5707 -0.9695 -2.1063
   26MOL   H40517455   0.414   0.199   3.083 -0.8319 -1.7390  0.2742
   26MOL   H40617456   0.396   0.041   2.895 -0.3131  1.6328  0.6512
   26MOL   H40717457   0.230   0.060   2.883  1.3713  1.3929 -2.4151
   26MOL   H40817458   0.193   7.670   3.107 -0.8228  0.5745 -1.4106
   26MOL   H40917459   0.370   7.658   3.142  1.4141 -1.8204 -0.9978
   26MOL   N41017460   0.325   7.412   3.092 -0.3277  0.1021 -0.1797
   26MOL   C41117461   0.355   7.276   3.057  0.0545  0.6648  0.5046
   26MOL   C41217462   0.451   7.236   3.171 -0.0014  0.5007 -0.3236
   26MOL   C41317463   0.476   7.079   3.171 -0.3456  0.9922 -0.1359
   26MOL   C41417464   0.544   7.037   3.307 -0.1355  0.2330  0.2013
   26MOL   C41517465   0.546   6.879   3.334  0.0520 -0.1164 -0.6196
   26MOL   C41617466   0.639   6.803   3.242 -0.2996  0.7732  0.5690
   26MOL   C41717467   0.604   6.651   3.259 -0.5220 -0.9460  0.6106
   26MOL   C41817468   0.698   6.562   3.168  0.3169  0.6379  0.4018
   26MOL   C41917469   0.844   6.541   3.217  0.0945  1.1184  0.2256
   26MOL   C42017470   0.913   6.453   3.112  0.5496  0.1740 -0.3769
   26MOL   C42117471   1.041   6.399   3.173  0.2003 -0.0288  0.4894
   26MOL   O42217472   1.044   6.327   3.267 -0.1665  0.4072  0.1102
   26MOL   H42317473   0.335   7.440   3.188  1.5331  3.5697 -1.2805
   26MOL   H42417474   0.266   7.214   3.062  0.1732  0.5951  1.8904
   26MOL   H42517475   0.408   7.266   2.962 -2.1820  0.9927 -0.8191
   26MOL   H42617476   0.418   7.273   3.269  1.0329  1.6021 -0.3808
   26MOL   H42717477   0.544   7.292   3.161  1.3193 -0.9845  2.7990
   26MOL   H42817478   0.388   7.017   3.155  0.3284  0.0608 -0.3418
   26MOL   H42917479   0.539   7.056   3.085 -0.1293  1.1919 -0.0324
   26MOL   H43017480   0.492   7.084   3.390 -0.3768  1.8580 -0.8648
   26MOL   H43117481   0.639   7.091   3.305  0.3138 -0.6089 -1.9260
   26MOL   H43217482   0.446   6.836   3.326  1.4115 -3.5656  0.3697
   26MOL   H43317483   0.584   6.868   3.435  0.7606 -0.0121 -0.8709
   26MOL   H43417484   0.618   6.823   3.138  1.3536 -2.7302 -0.5125
   26MOL   H43517485   0.743   6.828   3.264  0.3178  0.3033 -1.7475
   26MOL   H43617486   0.500   6.628   3.237 -0.3165  1.2438 -3.1453
   26MOL   H43717487   0.616   6.634   3.366 -1.9589  3.3888  1.6001
   26MOL   H43817488   0.656   6.461   3.174  0.3512  0.5583 -0.5426
   26MOL   H43917489   0.699   6.589   3.063 -3.3374 -0.9235 -0.1463
   26MOL   H44017490   0.854   6.497   3.316 -0.4172 -0.0872 -0.2497
   26MOL   H44117491   0.899   6.635   3.225  0.0867  1.2704 -1.2066
   26MOL   H44217492   0.932   6.510   3.022 -2.0692  1.0745 -0.3994
   26MOL   H44317493   0.855   6.363   3.087 -0.8272  1.0880 -0.5476
   26MOL   N44417494   1.157   6.431   3.113  0.0046  0.7809  0.3534
   26MOL   C44517495   1.283   6.422   3.177 -0.0640  0.6980  0.1380
   26MOL   C44617496   1.390   6.355   3.092 -0.1075  0.5181 -0.1457
   26MOL   C44717497   1.373   6.204   3.081  0.5425 -0.4547  0.6308
   26MOL   C44817498   1.491   6.141   3.013  0.1188 -0.9667 -0.4310
   26MOL   C44917499   1.513   5.995   3.066  0.4975  0.7634 -0.2197
   26MOL   C45017500   1.587   5.981   3.199 -0.4984  0.3094 -0.0260
   26MOL   C45117501   1.733   6.029   3.193 -0.0162 -0.4775  0.6958
   26MOL   C45217502   1.816   5.984   3.313 -0.3356 -0.5097  0.6680
   26MOL   C45317503   1.769   6.036   3.450  0.6421 -0.9446 -0.1181
   26MOL   C45417504   1.872   6.015   3.557  0.1383 -0.2352  0.5682
   26MOL   C45517505   1.843   6.081   3.691  0.3786  0.2650 -0.0755
   26MOL   O45617506   1.746   6.047   3.758  0.0628  0.2865 -0.9369
   26MOL   H45717507   1.152   6.512   3.053 -0.3202  0.7111  0.2845
   26MOL   H45817508   1.310   6.527   3.174 -0.3039  0.7219 -2.0028
   26MOL   H45917509   1.301   6.370   3.271  1.2055  0.1897 -0.3615
   26MOL   H46017510   1.485   6.369   3.145  0.2588  0.6572 -0.8372
   26MOL   H46117511   1.394   6.394   2.991  1.3307  0.5595 -0.0889
   26MOL   H46217512   1.367   6.166   3.184  1.5340 -0.6823  0.6016
   26MOL   H46317513   1.278   6.180   3.033 -0.2164  0.8850  1.4373
   26MOL   H46417514   1.589   6.186   3.032 -0.5475  0.8986 -1.3683
   26MOL   H46517515   1.466   6.135   2.907 -2.2541  0.7379 -0.0029
   26MOL   H46617516   1.562   5.931   2.993 -3.2567 -1.2062 -1.1711
   26MOL   H46717517   1.418   5.943   3.079  1.1124 -0.6140 -1.0829
   26MOL   H46817518   1.536   6.039   3.277  1.6901  2.9476 -0.4890
   26MOL   H46917519   1.591   5.880   3.239  1.0071  0.8818  1.3246
   26MOL   H47017520   1.732   6.138   3.188  1.9138 -0.5240 -1.9712
   26MOL   H47117521   1.780   5.993   3.101  1.0179  0.0211  1.0183
   26MOL   H47217522   1.815   5.875   3.316 -0.6196 -0.4702  2.3777
   26MOL   H47317523   1.916   6.021   3.292 -0.3320  0.2830  2.0346
   26MOL   H47417524   1.667   6.013   3.480 -1.0393  3.1270 -2.2891
   26MOL   H47517525   1.753   6.143   3.435 -0.1380 -1.1658 -0.9174
   26MOL   H47617526   1.975   6.020   3.522 -0.8818  0.0879 -2.6175
   26MOL   H47717527   1.860   5.909   3.581  0.7566 -1.2253 -3.1447
   26MOL   N47817528   1.938   6.160   3.732 -0.1895 -0.4129  0.0025
   26MOL   C47917529   1.928   6.219   3.868 -0.3076 -0.0437  0.1567
   26MOL   C48017530   2.022   6.339   3.905 -0.1387 -0.3071  0.3242
   26MOL   C48117531   2.005   6.404   4.040 -0.1786 -0.0563  0.0353
   26MOL   C48217532   2.089   6.536   4.058 -0.4955  0.1803 -0.3716
   26MOL   C48317533   2.068   6.613   4.190 -0.0705  0.5127  0.4151
   26MOL   C48417534   2.163   6.729   4.214 -0.4656 -0.5932  0.5351
   26MOL   C48517535   2.125   6.831   4.323 -0.3616  0.5110  0.1662
   26MOL   C48617536   2.100   6.759   4.454 -0.7109  0.1641  0.3304
   26MOL   C48717537   2.122   6.851   4.574  0.0761  0.2991  0.0249
   26MOL   C48817538   2.041   6.813   4.699 -0.3428 -0.0228 -0.9967
   26MOL   C48917539   2.111   6.707   4.791 -0.1283  0.3689  0.2792
   26MOL   O49017540   2.137   6.593   4.744 -0.3211 -0.5496 -0.0356
   26MOL   H49117541   2.011   6.177   3.664 -1.1217 -1.4198 -1.2785
   26MOL   H49217542   1.829   6.258   3.892 -1.4139 -1.2125 -2.3531
   26MOL   H49317543   1.948   6.142   3.942  1.8488  3.0214  2.9379
   26MOL   H49417544   2.004   6.409   3.824  0.0603 -1.8461 -1.0705
   26MOL   H49517545   2.122   6.296   3.892  1.1423  2.3568  1.1735
   26MOL   H49617546   1.905   6.441   4.063  0.7437  1.4987  1.6981
   26MOL   H49717547   2.021   6.326   4.115  1.1696 -0.3432 -0.5317
   26MOL   H49817548   2.083   6.604   3.973 -1.1170  0.9447  0.2813
   26MOL   H49917549   2.194   6.506   4.062 -0.0095  1.9110  0.1989
   26MOL   H50017550   2.076   6.555   4.282 -0.4512 -2.1334 -1.1989
   26MOL   H50117551   1.964   6.646   4.197 -0.8504 -1.5492 -1.0254
   26MOL   H50217552   2.263   6.695   4.243  0.3414  0.3610 -1.0249
   26MOL   H50317553   2.160   6.789   4.123 -1.3288  1.2682  1.7639
   26MOL   H50417554   2.032   6.883   4.301  0.1130  0.8434 -1.1208
   26MOL   H50517555   2.191   6.915   4.340 -1.8888  1.9161 -0.7484
   26MOL   H50617556   1.998   6.720   4.444  0.0446 -1.1596 -2.8479
   26MOL   H50717557   2.154   6.665   4.456  0.4727  0.8437  1.6810
   26MOL   H50817558   2.090   6.953   4.555 -0.9030 -0.0743 -0.3644
   26MOL   H50917559   2.230   6.852   4.592  0.1443 -0.4771 -0.3082
   26MOL   H51017560   1.938   6.784   4.680 -0.9083  0.1633  1.6048
   26MOL   H51117561   2.032   6.904   4.759 -1.1499  0.1161 -1.3351
   26MOL   N51217562   2.117   6.744   4.914  0.2411 -0.2796  0.0352
   26MOL   C51317563   2.148   6.653   5.017  0.2819  0.5510 -0.0006
   26MOL   C51417564   2.302   6.669   5.052  0.3225  0.8749 -0.4194
   26MOL   C51517565   2.347   6.577   5.160  0.9158 -0.4527 -0.0530
   26MOL   C51617566   2.502   6.568   5.200 -0.2011  0.2159 -0.1548
   26MOL   C51717567   2.521   6.454   5.306 -0.7725  0.5491 -0.2214
   26MOL   C51817568   2.668   6.412   5.327  0.5539  0.4802 -0.5594
   26MOL   C51917569   2.695   6.289   5.416  0.1009  0.0319  0.1179
   26MOL   C52017570   2.839   6.258   5.464  0.3273  0.0957 -0.6184
   26MOL   C52117571   2.851   6.175   5.589  0.1328  1.0882 -0.5925
   26MOL   C52217572   2.990   6.142   5.639  0.0117 -0.1467 -0.3038
   26MOL   C52317573   3.062   6.048   5.544 -0.5225  0.0216 -0.5400
   26MOL   O52417574   3.121   6.093   5.449  0.0760 -0.5364 -0.2025
   26MOL   H52517575   2.084   6.831   4.952  1.2533 -1.4174  3.7178
   26MOL   H52617576   2.072   6.663   5.094 -0.3801 -0.3255 -0.5298
   26MOL   H52717577   2.134   6.550   4.985 -0.3847  0.2362  1.2553
   26MOL   H52817578   2.319   6.771   5.087  0.5105  0.6956  0.0223
   26MOL   H52917579   2.362   6.666   4.961 -1.8782 -0.4748 -1.8572
   26MOL   H53017580   2.299   6.615   5.250  0.3162  1.3073 -1.0987
   26MOL   H53117581   2.298   6.481   5.147 -2.0834  1.1247 -0.6648
   26MOL   H53217582   2.537   6.667   5.226  1.5096 -0.8985  1.9721
   26MOL   H53317583   2.568   6.538   5.119 -0.2316  0.3695 -0.2350
   26MOL   H53417584   2.470   6.371   5.258 -0.6773 -0.9249  2.1574
   26MOL   H53517585   2.480   6.484   5.402  0.5676  2.1976 -0.1383
   26MOL   H53617586   2.722   6.394   5.235  0.0262  3.7561 -1.5682
   26MOL   H53717587   2.707   6.501   5.377 -1.7568  0.8508  0.6520
   26MOL   H53817588   2.661   6.199   5.365 -0.8870  1.1658 -1.2938
   26MOL   H53917589   2.639   6.309   5.507 -0.2890  1.8249 -0.4944
   26MOL   H54017590   2.895   6.219   5.379  1.8831  0.1522  0.3803
   26MOL   H54117591   2.880   6.356   5.489  0.4227  0.2460 -1.3540
   26MOL   H54217592   2.797   6.082   5.576  1.4639  0.0737  0.9617
   26MOL   H54317593   2.791   6.230   5.662  2.3306 -0.1759  2.2563
   26MOL   H54417594   2.995   6.078   5.728  0.1918  0.7105  0.3069
   26MOL   H54517595   3.046   6.233   5.662  1.3294 -1.0685  0.2041
   26MOL   N54617596   3.041   5.915   5.555 -0.0427  0.7281  0.0336
   26MOL   C54717597   3.099   5.814   5.471  0.8465 -0.7181  0.1165
   26MOL   C54817598   3.230   5.759   5.531 -0.1159  0.0852  0.6953
   26MOL   C54917599   3.246   5.764   5.685 -0.2902  0.1991 -0.2610
   26MOL   C55017600   3.384   5.704   5.741  0.1107 -0.0722  0.6719
   26MOL   C55117601   3.433   5.746   5.880 -0.1068  0.3521  1.1374
   26MOL   C55217602   3.574   5.703   5.928  0.7683  0.0878  0.2903
   26MOL   C55317603   3.685   5.800   5.882 -0.1621  0.3565 -0.4086
   26MOL   C55417604   3.827   5.751   5.927 -0.4106 -0.4691  0.1459
   26MOL   C55517605   3.942   5.846   5.888  0.1358 -0.6250 -0.0383
   26MOL   C55617606   4.074   5.819   5.955 -0.4747  0.3036  0.2922
   26MOL   C55717607   4.186   5.892   5.879  0.6817  0.2271 -0.9565
   26MOL   O55817608   4.247   5.835   5.785  0.8198  0.0356 -0.3444
   26MOL   H55917609   2.994   5.879   5.637 -0.3681 -0.5278 -0.6886
   26MOL   H56017610   3.022   5.739   5.451  2.8606 -2.8145 -0.0460
   26MOL   H56117611   3.134   5.868   5.383 -0.9275  1.7520  0.8717
   26MOL   H56217612   3.315   5.817   5.493  0.5578 -1.0766  0.3892
   26MOL   H56317613   3.241   5.662   5.485  1.3036  1.0254 -1.0053
   26MOL   H56417614   3.235   5.867   5.720  1.8693 -0.6257  3.0275
   26MOL   H56517615   3.157   5.707   5.713 -0.4833  0.5562 -0.1416
   26MOL   H56617616   3.461   5.741   5.674 -0.2215  0.9330  0.8449
   26MOL   H56717617   3.391   5.596   5.730 -0.9829 -0.3715  2.7027
   26MOL   H56817618   3.361   5.708   5.952 -0.2650 -2.5837 -0.4978
   26MOL   H56917619   3.432   5.854   5.891  1.3775  0.9374 -3.4090
   26MOL   H57017620   3.577   5.696   6.037  0.4596  0.2377  0.3102
   26MOL   H57117621   3.583   5.599   5.899 -0.1303  0.4922 -1.5225
   26MOL   H57217622   3.666   5.895   5.934  0.8148  0.3560 -0.0327
   26MOL   H57317623   3.683   5.831   5.778  1.4935  1.2855 -0.1884
   26MOL   H57417624   3.836   5.733   6.034 -3.6587  1.3487  0.7691
   26MOL   H57517625   3.852   5.655   5.881 -0.1219  0.0069 -0.7065
   26MOL   H57617626   3.907   5.947   5.908 -0.7756 -0.7619 -0.8772
   26MOL   H57717627   3.959   5.830   5.781  0.2561 -0.6373 -0.0170
   26MOL   H57817628   4.099   5.714   5.944 -0.3453  0.4863 -1.2188
   26MOL   H57917629   4.081   5.852   6.059 -2.6001 -2.5587  1.4062
   26MOL   N58017630   4.199   6.018   5.914 -0.4050  0.4001  0.2091
   26MOL   C58117631   4.303   6.106   5.864 -0.1947  0.6486 -0.2887
   26MOL   C58217632   4.417   6.103   5.970 -0.4764 -0.5004  0.9792
   26MOL   C58317633   4.529   6.202   5.936 -0.4053  0.2466  1.5875
   26MOL   C58417634   4.655   6.171   6.008  0.3330 -0.1860  0.5154
   26MOL   C58517635   4.771   6.267   5.973  0.8039 -0.1011 -0.3119
   26MOL   C58617636   4.897   6.228   6.055 -0.4469 -0.6052 -0.2158
   26MOL   C58717637   5.026   6.311   6.030 -0.1296  0.2171  0.5866
   26MOL   C58817638   5.072   6.311   5.884 -0.1800 -0.1103 -0.7817
   26MOL   C58917639   5.169   6.432   5.873  0.0513  0.6905 -0.0400
   26MOL   C59017640   5.260   6.420   5.746 -0.8803 -0.1493 -0.2224
   26MOL   C59117641   5.176   6.425   5.617 -0.0986  0.0791  0.4254
   26MOL   O59217642   5.122   6.532   5.582 -0.0813  0.8369 -0.0196
   26MOL   H59317643   4.138   6.042   5.991 -1.1100  0.7609 -0.4539
   26MOL   H59417644   4.337   6.080   5.764 -1.4551  1.2165 -0.8721
   26MOL   H59517645   4.257   6.204   5.854 -0.8068  0.1570 -2.6397
   26MOL   H59617646   4.457   6.003   5.982 -1.6150 -0.8598  1.9219
   26MOL   H59717647   4.360   6.128   6.060 -0.3937  0.2603  0.8256
   26MOL   H59817648   4.545   6.188   5.829  0.2855  0.1727  1.6952
   26MOL   H59917649   4.505   6.307   5.954  0.2874  0.3826  1.7339
   26MOL   H60017650   4.690   6.071   5.983  1.1573 -0.0666  1.1837
   26MOL   H60117651   4.634   6.189   6.114 -0.0849 -0.5116  0.4896
   26MOL   H60217652   4.746   6.372   5.991  1.5292 -0.0842  0.6098
   26MOL   H60317653   4.780   6.255   5.865  0.8995 -2.4366 -0.0606
   26MOL   H60417654   4.879   6.242   6.162  0.8445 -0.1456 -0.0380
   26MOL   H60517655   4.924   6.124   6.042  1.6717  0.1160 -1.9269
   26MOL   H60617656   5.107   6.270   6.090  1.1749  1.3598 -0.3652
   26MOL   H60717657   4.997   6.405   6.078  1.0896  1.0389 -0.2724
   26MOL   H60817658   5.125   6.222   5.850 -0.6907 -1.0361  0.7959
   26MOL   H60917659   4.984   6.327   5.821 -0.7166  0.7690  0.1800
   26MOL   H61017660   5.229   6.451   5.962 -1.0613 -1.7402  1.2896
   26MOL   H61117661   5.102   6.517   5.869 -1.1880 -0.3346 -1.8340
   26MOL   H61217662   5.300   6.319   5.753  1.6706  0.8414  0.2443
   26MOL   H61317663   5.340   6.495   5.753 -1.5202  0.4472  0.7876
   26MOL   N61417664   5.179   6.314   5.538  0.1573  0.1523  0.5729
   26MOL   C61517665   5.105   6.305   5.409  0.8191 -0.4928 -0.9056
   26MOL   C61617666   5.207   6.341   5.300  0.5860  0.1105  0.0344
   26MOL   C61717667   5.148   6.345   5.159 -0.5566  0.0453 -0.2767
   26MOL   C61817668   5.237   6.424   5.056  0.3722 -0.3093  0.1915
   26MOL   C61917669   5.225   6.367   4.916 -0.1480  0.3993  0.1036
   26MOL   C62017670   5.263   6.461   4.804 -0.3293  0.0279  0.1408
   26MOL   C62117671   5.414   6.458   4.779  0.0426 -0.6424 -0.0628
   26MOL   C62217672   5.470   6.558   4.670 -0.7931  0.0118  0.3654
   26MOL   C62317673   5.623   6.543   4.638  0.2776  0.3658 -0.5061
   26MOL   C62417674   5.703   6.672   4.586  0.3339 -0.5349  1.0658
   26MOL   C62517675   5.692   6.691   4.433 -0.6576  0.2627 -1.5515
   26MOL   O62617676   5.580   6.695   4.388  0.5458 -0.1727  0.1149
   26MOL   H62717677   5.244   6.240   5.559  2.8761  2.8806  2.2981
   26MOL   H62817678   5.011   6.360   5.420  1.6047  0.5795  0.6779
   26MOL   H62917679   5.080   6.201   5.390 -1.4817  0.1307 -1.5399
   26MOL   H63017680   5.286   6.265   5.301 -0.6106 -1.1867 -1.3343
   26MOL   H63117681   5.238   6.442   5.327 -0.5839  0.1340  1.2986
   26MOL   H63217682   5.111   6.250   5.120 -1.2959  0.2708 -0.1390
   26MOL   H63317683   5.058   6.404   5.175 -0.4674 -0.2721  1.4874
   26MOL   H63417684   5.338   6.448   5.088  0.2334  2.0705 -1.0345
   26MOL   H63517685   5.203   6.528   5.054  0.2586 -0.2977  1.9674
   26MOL   H63617686   5.127   6.332   4.880 -0.4914  1.2704  0.1899
   26MOL   H63717687   5.292   6.281   4.921  1.4740  1.7239  1.3287
   26MOL   H63817688   5.231   6.429   4.705  0.1639  1.5528 -0.5289
   26MOL   H63917689   5.241   6.559   4.846 -1.5917 -1.1119  2.1965
   26MOL   H64017690   5.440   6.354   4.758 -1.9117 -1.2572  0.4655
   26MOL   H64117691   5.466   6.480   4.872 -0.7182 -2.1252  0.7287
   26MOL   H64217692   5.407   6.542   4.583 -1.3170 -0.0491  0.7483
   26MOL   H64317693   5.462   6.663   4.698 -0.2754  0.0579  0.3413
   26MOL   H64417694   5.635   6.462   4.566  0.1000  0.2421 -0.3960
   26MOL   H64517695   5.667   6.509   4.731 -1.5387  1.1175  0.6696
   26MOL   H64617696   5.811   6.658   4.597  0.9536  0.7378 -2.6238
   26MOL   H64717697   5.685   6.759   4.648 -1.4391  0.4139 -0.7461
   26MOL   N64817698   5.802   6.731   4.365  0.4991  0.1098 -0.2690
   26MOL   C64917699   5.819   6.758   4.223 -0.1536 -0.2264  0.0599
   26MOL   C65017700   5.958   6.714   4.169  0.4111  0.1337 -0.6154
   26MOL   C65117701   5.970   6.753   4.025 -0.0195  0.3948 -0.2144
   26MOL   C65217702   6.084   6.682   3.944 -0.1199  0.4451 -0.4363
   26MOL   C65317703   6.076   6.525   3.947 -0.5947  0.2962  0.8871
   26MOL   C65417704   5.939   6.465   3.899 -0.1880  0.4605 -0.4889
   26MOL   C65517705   5.966   6.317   3.865  0.2896  0.2172  0.3041
   26MOL   C65617706   5.847   6.239   3.814 -0.3768 -1.1848 -0.2511
   26MOL   C65717707   5.883   6.103   3.756  0.5945 -0.4166  0.2454
   26MOL   C65817708   5.761   6.014   3.720 -0.1520 -0.4302  0.0606
   26MOL   C65917709   5.776   5.866   3.697 -0.2410  0.1513 -0.1063
   26MOL   O66017710   5.825   5.823   3.596  0.2098  0.0144  0.8160
   26MOL   H66117711   5.881   6.760   4.422 -1.2142  0.4911  1.9925
   26MOL   H66217712   5.817   6.867   4.222 -1.1004 -0.1911  2.6460
   26MOL   H66317713   5.738   6.711   4.166 -0.0885 -1.0702  0.6555
   26MOL   H66417714   5.951   6.606   4.183 -0.9042  0.3438  0.5233
   26MOL   H66517715   6.039   6.767   4.221 -0.6838  2.3660 -1.0954
   26MOL   H66617716   5.880   6.726   3.970  0.3399  0.9272 -1.0799
   26MOL   H66717717   5.984   6.860   4.014  2.1351  0.4336  2.5109
   26MOL   H66817718   6.176   6.709   3.996 -0.5187 -2.3813  1.8883
   26MOL   H66917719   6.078   6.719   3.842 -1.3645 -0.4552 -0.7021
   26MOL   H67017720   6.098   6.486   4.046  0.2473  0.7217  0.8770
   26MOL   H67117721   6.160   6.495   3.884 -1.3803 -3.8755  1.7452
   26MOL   H67217722   5.866   6.478   3.978  2.5286  0.5696  2.1001
   26MOL   H67317723   5.891   6.505   3.809 -1.4164  0.4502  0.1642
   26MOL   H67417724   6.018   6.266   3.946  1.8403  0.9861 -0.1739
   26MOL   H67517725   6.038   6.312   3.783  1.0934 -2.1624  1.1144
   26MOL   H67617726   5.774   6.225   3.894  0.9776 -1.0837  1.0289
   26MOL   H67717727   5.800   6.294   3.733 -0.4614 -1.8742 -0.6709
   26MOL   H67817728   5.943   6.043   3.825  1.6157  0.2495 -0.0516
   26MOL   H67917729   5.942   6.127   3.668 -0.7162 -0.7858 -0.7419
   26MOL   H68017730   5.715   6.062   3.634  0.2276  2.0524  1.1932
   26MOL   H68117731   5.688   6.015   3.801 -1.7743  0.0795 -1.3863
   26MOL   H68217732   5.734   5.797   3.770 -0.7003  2.0611  1.4599
   27MOL     N117733   2.985   0.914   6.018 -0.8805  0.5447  0.6771
   27MOL     C217734   3.132   0.897   6.025 -0.8286 -0.1563  0.2294
   27MOL     C317735   3.199   1.002   6.116 -0.5422 -0.1141 -0.7458
   27MOL     C417736   3.138   0.996   6.246  0.1729 -0.4415 -0.3096
   27MOL     C517737   3.202   1.097   6.345 -0.3188 -0.2405 -0.3244
   27MOL     C617738   3.143   1.103   6.486  0.0942 -0.7204  0.5149
   27MOL     C717739   3.238   1.189   6.580  0.1938 -0.1811  0.5266
   27MOL     C817740   3.260   1.323   6.512 -0.2285 -0.0762 -0.0145
   27MOL     C917741   3.313   1.435   6.601 -0.4788  0.2396 -0.2983
   27MOL    C1017742   3.311   1.573   6.548 -0.0788 -0.2974  0.3790
   27MOL    C1117743   3.332   1.684   6.653 -0.8755 -0.4836  0.0706
   27MOL    C1217744   3.477   1.725   6.692 -0.3633  0.3033 -0.1860
   27MOL    O1317745   3.572   1.649   6.691 -0.0632  0.4267 -0.8434
   27MOL    H1417746   2.951   0.886   6.109  0.9905 -0.9620  0.9613
   27MOL    H1517747   3.179   0.903   5.927 -0.6579 -1.0996  0.2434
   27MOL    H1617748   3.141   0.789   6.040  2.3056  0.1544  1.0202
   27MOL    H1717749   3.168   1.096   6.070  1.2206 -0.0230 -1.7762
   27MOL    H1817750   3.307   0.989   6.114 -0.7476 -2.5455  1.3917
   27MOL    H1917751   3.030   1.014   6.243  0.4386  2.6296  3.6327
   27MOL    H2017752   3.155   0.894   6.278  0.5636 -1.1704 -2.7460
   27MOL    H2117753   3.190   1.194   6.297 -1.6085 -0.9618 -1.4978
   27MOL    H2217754   3.307   1.071   6.362  0.2472  1.2585 -1.3712
   27MOL    H2317755   3.134   1.004   6.531 -0.7770  0.0493  2.0521
   27MOL    H2417756   3.043   1.146   6.486 -0.2894 -1.5848 -0.6866
   27MOL    H2517757   3.180   1.215   6.668  0.8694  0.5717  0.7502
   27MOL    H2617758   3.332   1.146   6.612 -1.2829 -2.5382  1.8536
   27MOL    H2717759   3.173   1.359   6.458 -1.5000  0.1811  2.1774
   27MOL    H2817760   3.325   1.312   6.425 -0.8937 -1.3079 -0.3640
   27MOL    H2917761   3.239   1.432   6.682 -0.2356  1.1655 -0.0400
   27MOL    H3017762   3.406   1.405   6.650 -1.5852 -0.0090  1.6904
   27MOL    H3117763   3.212   1.598   6.510  1.6557  2.9282 -2.2165
   27MOL    H3217764   3.384   1.589   6.468  2.6700 -1.0517  2.6691
   27MOL    H3317765   3.274   1.669   6.744 -1.5435  0.2859 -0.2262
   27MOL    H3417766   3.279   1.769   6.610 -0.2287  0.0277  0.2686
   27MOL    H3517767   2.947   0.845   5.955 -2.1955 -1.0633  3.1478
   27MOL    N3617768   3.494   1.849   6.732 -0.1844 -0.1892 -0.0143
   27MOL    C3717769   3.613   1.931   6.750 -0.2552  0.8796  0.0356
   27MOL    C3817770   3.603   2.063   6.661  0.8704  0.1278 -0.1892
   27MOL    C3917771   3.591   2.041   6.506  0.6543 -0.2443  0.2196
   27MOL    C4017772   3.546   2.172   6.444 -0.6013  0.1014  0.8345
   27MOL    C4117773   3.575   2.181   6.294  0.8984 -0.7110  0.0317
   27MOL    C4217774   3.528   2.313   6.225 -0.0477  0.3921  0.4657
   27MOL    C4317775   3.606   2.444   6.250 -0.0031 -0.2153 -0.3394
   27MOL    C4417776   3.749   2.436   6.187 -0.0116  0.0669  0.1477
   27MOL    C4517777   3.860   2.492   6.275 -0.2685  0.0905  0.1000
   27MOL    C4617778   3.997   2.451   6.232  0.5113 -0.5407 -0.5257
   27MOL    C4717779   4.050   2.543   6.122  0.5652 -0.3590 -0.2372
   27MOL    O4817780   4.079   2.661   6.149  0.2503  0.5403  0.0158
   27MOL    H4917781   3.408   1.902   6.734  1.1328  2.2285 -2.6109
   27MOL    H5017782   3.612   1.958   6.855  0.7848 -0.0192  0.2806
   27MOL    H5117783   3.707   1.880   6.729 -0.1843  0.4431  1.4180
   27MOL    H5217784   3.695   2.112   6.691  0.5256  0.3736  0.4805
   27MOL    H5317785   3.519   2.125   6.693  1.3581  0.2092  0.9414
   27MOL    H5417786   3.687   2.001   6.472  0.9481  0.6760 -0.0443
   27MOL    H5517787   3.524   1.960   6.478 -1.6376  1.9248 -0.7241
   27MOL    H5617788   3.601   2.252   6.495 -2.2543  1.0823  1.1041
   27MOL    H5717789   3.445   2.200   6.474  0.2113  3.7844  0.4208
   27MOL    H5817790   3.529   2.099   6.238  0.1823 -0.1348 -0.2452
   27MOL    H5917791   3.682   2.171   6.279  0.6207 -4.2105 -0.0971
   27MOL    H6017792   3.532   2.290   6.118 -2.3061 -1.6583  0.7738
   27MOL    H6117793   3.422   2.327   6.243 -0.3823  0.2756 -1.3148
   27MOL    H6217794   3.604   2.466   6.357  0.2202  1.3500 -0.6521
   27MOL    H6317795   3.551   2.524   6.201  1.1990  1.0415  0.3336
   27MOL    H6417796   3.781   2.335   6.159  1.1490 -0.2546  2.4271
   27MOL    H6517797   3.749   2.490   6.092 -2.5336 -1.6498 -0.8810
   27MOL    H6617798   3.852   2.468   6.381  3.4773 -0.8279  0.2502
   27MOL    H6717799   3.856   2.601   6.284  1.3055 -0.0061  2.3147
   27MOL    H6817800   4.003   2.345   6.207  0.5991 -0.8005  0.5456
   27MOL    H6917801   4.071   2.464   6.311  0.5108  1.5321 -0.8468
   27MOL    N7017802   4.067   2.489   6.003 -0.2682  0.2933  0.1344
   27MOL    C7117803   4.126   2.573   5.894  0.2128  0.5471 -0.5296
   27MOL    C7217804   4.025   2.611   5.782  0.1115 -0.3754  0.1435
   27MOL    C7317805   3.926   2.708   5.833  0.0932  0.0621 -0.8648
   27MOL    C7417806   3.833   2.751   5.723 -0.0930 -0.1691  0.5105
   27MOL    C7517807   3.715   2.824   5.790  0.2452  0.0286 -0.2418
   27MOL    C7617808   3.754   2.951   5.876 -0.0432  0.6787 -0.0428
   27MOL    C7717809   3.797   3.068   5.790 -0.2523  0.4781 -0.6963
   27MOL    C7817810   3.826   3.186   5.889 -0.4245  0.2312  0.1987
   27MOL    C7917811   3.871   3.322   5.829 -0.3129  0.2920  0.4838
   27MOL    C8017812   3.861   3.439   5.933  0.2715  0.0937 -0.3449
   27MOL    C8117813   3.981   3.453   6.025 -0.4080 -0.4835 -0.8152
   27MOL    O8217814   4.088   3.490   5.984 -0.2596 -0.2078  0.1625
   27MOL    H8317815   4.026   2.400   5.980 -2.1343  0.7891  1.4324
   27MOL    H8417816   4.183   2.662   5.922 -0.3998  1.3123 -1.6846
   27MOL    H8517817   4.199   2.510   5.843  1.3436 -0.3204  2.0716
   27MOL    H8617818   3.969   2.525   5.745 -1.4895  0.2518  1.0834
   27MOL    H8717819   4.064   2.655   5.690 -0.7962  0.2981  0.0796
   27MOL    H8817820   3.869   2.677   5.921  1.8141 -0.4222  0.0984
   27MOL    H8917821   3.988   2.789   5.870 -0.1437  0.2909 -0.9681
   27MOL    H9017822   3.795   2.659   5.679  0.8866 -1.1155  1.5774
   27MOL    H9117823   3.876   2.814   5.646 -0.7434 -0.1107  0.1912
   27MOL    H9217824   3.655   2.758   5.854  0.7533  2.7810  3.2713
   27MOL    H9317825   3.654   2.855   5.706  0.7583  2.1324  0.1308
   27MOL    H9417826   3.667   2.981   5.935  0.3001  0.5605  0.5172
   27MOL    H9517827   3.840   2.922   5.935  0.5037 -0.7755 -1.5323
   27MOL    H9617828   3.710   3.097   5.732 -0.0584  0.6459 -0.9042
   27MOL    H9717829   3.880   3.039   5.726  0.0611  0.7988 -0.4374
   27MOL    H9817830   3.731   3.193   5.944 -1.0011 -1.5693 -0.5243
   27MOL    H9917831   3.895   3.160   5.969 -0.7647 -0.0333  0.4105
   27MOL   H10017832   3.819   3.336   5.734 -0.5779  0.0898  0.5977
   27MOL   H10117833   3.974   3.317   5.795 -0.3140 -3.7358  0.8755
   27MOL   H10217834   3.775   3.431   6.001  0.6047 -1.1012 -0.0485
   27MOL   H10317835   3.846   3.536   5.886  0.9846 -0.1103 -0.9802
   27MOL   N10417836   3.964   3.426   6.156 -0.2453  0.1754 -0.1525
   27MOL   C10517837   4.067   3.416   6.261 -0.1319 -0.0948 -0.3884
   27MOL   C10617838   4.008   3.449   6.392  0.1412 -0.1188 -0.3341
   27MOL   C10717839   4.114   3.426   6.503  0.4794 -0.0692  0.7404
   27MOL   C10817840   4.052   3.460   6.640 -0.1237  0.6274  0.7998
   27MOL   C10917841   4.125   3.395   6.756  0.3812  0.1723 -0.2311
   27MOL   C11017842   4.065   3.415   6.898  0.4089  0.4129  0.2526
   27MOL   C11117843   4.069   3.563   6.952 -0.1330 -0.7438  0.5145
   27MOL   C11217844   4.203   3.622   6.993  0.4220 -0.4566  0.1942
   27MOL   C11317845   4.227   3.626   7.147  0.5445  0.1343  0.3359
   27MOL   C11417846   4.373   3.665   7.183  0.0793 -0.2804 -0.1025
   27MOL   C11517847   4.397   3.656   7.335 -0.4226 -0.7575  0.5566
   27MOL   O11617848   4.320   3.694   7.422  0.3533 -0.2883  0.0544
   27MOL   H11717849   3.869   3.399   6.178 -0.5560  1.8761  0.7411
   27MOL   H11817850   4.120   3.321   6.251 -0.7127 -0.2201 -2.5773
   27MOL   H11917851   4.147   3.485   6.231  0.2704 -0.9817 -1.3862
   27MOL   H12017852   3.927   3.383   6.420 -0.2584 -0.6048 -2.5517
   27MOL   H12117853   3.984   3.555   6.397  2.9507  0.4335  3.1979
   27MOL   H12217854   4.146   3.322   6.493  0.4132  0.1569 -2.3710
   27MOL   H12317855   4.193   3.500   6.490 -2.0223  3.0162  2.5120
   27MOL   H12417856   3.947   3.433   6.652  0.3870 -1.9363 -0.2399
   27MOL   H12517857   4.068   3.567   6.652  0.7718  0.8862 -2.1740
   27MOL   H12617858   4.230   3.425   6.762  0.4192 -0.0905  0.4016
   27MOL   H12717859   4.124   3.288   6.739  2.0175 -0.0276  0.8686
   27MOL   H12817860   3.965   3.374   6.911  0.9845 -0.6311  1.5337
   27MOL   H12917861   4.123   3.365   6.976 -1.3917 -3.6232 -0.8454
   27MOL   H13017862   3.999   3.583   7.034 -0.5087  0.2251 -0.0357
   27MOL   H13117863   4.025   3.625   6.874 -3.1500  0.9986  3.4486
   27MOL   H13217864   4.286   3.581   6.936 -1.0447 -1.2587 -1.4296
   27MOL   H13317865   4.195   3.725   6.961  1.0486 -0.1897  0.8800
   27MOL   H13417866   4.213   3.523   7.181  1.1627  1.1522  3.7898
   27MOL   H13517867   4.150   3.684   7.197  0.5445 -0.4833  1.0500
   27MOL   H13617868   4.390   3.770   7.161 -3.0988  0.2541 -0.2299
   27MOL   H13717869   4.444   3.601   7.131  0.1794 -0.4272  0.2153
   27MOL   N13817870   4.520   3.612   7.362  0.0183  0.0416 -1.0087
   27MOL   C13917871   4.579   3.589   7.497  0.1702  0.0473 -0.1734
   27MOL   C14017872   4.660   3.713   7.536  0.2381 -0.4821 -0.4873
   27MOL   C14117873   4.697   3.705   7.681  0.4761 -0.3543 -0.2861
   27MOL   C14217874   4.590   3.722   0.079  0.0568 -0.0719  0.4442
   27MOL   C14317875   4.536   3.866   0.107 -0.0502  0.6207 -0.3998
   27MOL   C14417876   4.449   3.921   7.713 -0.0964 -0.6761 -0.6853
   27MOL   C14517877   4.362   4.037   0.036 -0.3782 -0.0252  0.1023
   27MOL   C14617878   4.268   4.095   7.649  0.7027 -0.0212 -0.1749
   27MOL   C14717879   4.179   4.201   7.714 -0.4585  0.2238  0.5583
   27MOL   C14817880   4.089   4.270   7.606  1.0286 -0.5022 -0.0535
   27MOL   C14917881   3.975   4.340   7.672  0.2394  0.2889 -0.6740
   27MOL   O15017882   4.001   4.417   0.051  1.0886 -0.0650 -0.8140
   27MOL   H15117883   4.579   3.568   7.293  0.6513 -0.5756 -0.0917
   27MOL   H15217884   4.507   3.547   7.568 -1.1206  0.5098 -1.1775
   27MOL   H15317885   4.647   3.505   7.481 -0.5210 -0.9551  1.9355
   27MOL   H15417886   4.605   3.803   7.506  0.0032 -0.6081 -0.4343
   27MOL   H15517887   4.745   3.720   7.468 -0.7273  1.1222 -1.5760
   27MOL   H15617888   4.750   3.610   7.693 -1.2330 -1.3928 -0.7600
   27MOL   H15717889   4.778   3.773   7.707  1.9529 -1.4372 -1.8932
   27MOL   H15817890   4.630   3.679   0.170  1.1600  0.3432  0.1686
   27MOL   H15917891   4.506   3.655   0.062  0.0858 -0.2303  0.9325
   27MOL   H16017892   4.617   3.934   0.131 -0.6659  0.7685  1.3502
   27MOL   H16117893   4.473   3.860   0.196 -0.7954 -2.1412 -1.0582
   27MOL   H16217894   4.526   3.951   7.641 -0.6214  0.8783 -0.6211
   27MOL   H16317895   4.394   3.840   7.666  0.4150  0.1893 -2.8772
   27MOL   H16417896   4.411   4.118   0.090 -0.7607  0.2885 -0.0183
   27MOL   H16517897   4.286   4.009   0.108 -0.1444 -1.5948 -0.2447
   27MOL   H16617898   4.329   4.134   7.567 -0.5206  1.4877 -0.4037
   27MOL   H16717899   4.212   4.017   7.597 -1.2920  0.7255  0.8046
   27MOL   H16817900   4.239   4.272   0.056 -1.4154  0.5782  1.1460
   27MOL   H16917901   4.112   4.153   0.070 -1.7640  0.5305 -0.4441
   27MOL   H17017902   4.047   4.201   7.533  1.7421 -2.0841  0.9790
   27MOL   H17117903   4.153   4.339   7.551  0.5602  0.7589  0.9655
   27MOL   N17217904   3.855   4.307   7.625  0.0667 -0.3901 -0.2133
   27MOL   C17317905   3.731   4.368   7.673 -0.4574 -1.0454  0.3928
   27MOL   C17417906   3.616   4.274   7.656  0.0106  0.2017 -0.0570
   27MOL   C17517907   3.598   4.171   0.048 -0.5298 -0.4151 -0.0487
   27MOL   C17617908   3.538   4.221   0.180 -0.0529  0.0912 -0.1186
   27MOL   C17717909   3.473   4.119   0.272  0.1531  0.3130 -0.2928
   27MOL   C17817910   3.378   4.184   0.375  0.0318 -0.3905  0.4073
   27MOL   C17917911   3.326   4.077   0.473  0.0462  0.2916  0.2645
   27MOL   C18017912   3.196   4.122   0.554  0.5578  0.4008  0.1620
   27MOL   C18117913   3.231   4.215   0.676  0.3764  0.5974  0.3723
   27MOL   C18217914   3.252   4.138   0.813  1.1725  0.0477  0.2857
   27MOL   C18317915   3.278   4.239   0.931 -0.5658  1.0433  0.2650
   27MOL   O18417916   3.232   4.347   0.930  0.0116 -0.0761 -0.3771
   27MOL   H18517917   3.862   4.271   7.531  0.9657  1.7390 -1.0044
   27MOL   H18617918   3.728   4.400   0.061  1.1336 -1.1616  0.4874
   27MOL   H18717919   3.716   4.466   7.626  0.7798 -1.2559 -0.4929
   27MOL   H18817920   3.613   4.221   7.561 -2.8151  0.8854 -0.3806
   27MOL   H18917921   3.530   4.339   7.647  0.4075  0.5727 -1.3954
   27MOL   H19017922   3.544   4.088   0.002  0.1806  0.3629 -2.3615
   27MOL   H19117923   3.698   4.128   0.055 -0.4277 -0.1533  0.1090
   27MOL   H19217924   3.458   4.295   0.169 -0.3325 -0.1102  0.5370
   27MOL   H19317925   3.611   4.276   0.239 -0.8608 -0.6481  1.5961
   27MOL   H19417926   3.558   4.065   0.315 -1.2219 -0.0254  2.1008
   27MOL   H19517927   3.419   4.044   0.215  0.4342 -1.2176  1.4063
   27MOL   H19617928   3.442   4.250   0.434  1.5812 -2.5890  1.2680
   27MOL   H19717929   3.295   4.237   0.330 -1.9492 -2.1358  1.9414
   27MOL   H19817930   3.399   4.058   0.552 -1.2137  0.3620  1.4432
   27MOL   H19917931   3.306   3.985   0.418 -1.4936  0.2451  0.8837
   27MOL   H20017932   3.138   4.173   0.478  0.0755 -0.2622  0.0866
   27MOL   H20117933   3.138   4.036   0.588  0.3029  0.1000 -1.0199
   27MOL   H20217934   3.148   4.284   0.689  1.0844  1.1894  1.8327
   27MOL   H20317935   3.318   4.276   0.651  1.0493 -0.3880  0.2814
   27MOL   H20417936   3.338   4.071   0.809  0.6677 -0.5487 -0.9579
   27MOL   H20517937   3.160   4.084   0.836  1.4161  0.0703  1.3331
   27MOL   N20617938   3.365   4.202   1.018  0.0598 -0.2657 -0.3365
   27MOL   C20717939   3.417   4.294   1.126  0.2194  0.2943 -0.6607
   27MOL   C20817940   3.572   4.295   1.125  0.6726  0.1380  0.7420
   27MOL   C20917941   3.626   4.365   1.249  0.0305  0.0578  0.0556
   27MOL   C21017942   3.772   4.392   1.238 -0.1637  0.4850 -0.2620
   27MOL   C21117943   3.844   4.455   1.361  0.1877  0.6037  0.0970
   27MOL   C21217944   3.993   4.479   1.337  0.0923 -0.5067  0.8209
   27MOL   C21317945   4.021   4.584   1.228 -0.4243 -0.0652 -0.1057
   27MOL   C21417946   4.171   4.574   1.180 -0.0963 -0.3832  0.0884
   27MOL   C21517947   4.188   4.651   1.045 -0.7847  0.0818 -0.4150
   27MOL   C21617948   4.174   4.807   1.050 -0.1642 -0.7150 -0.1093
   27MOL   C21717949   4.104   4.862   0.921  0.2915  0.1052 -0.0899
   27MOL   O21817950   3.999   4.809   0.878  0.0289  0.4321  0.7552
   27MOL   H21917951   3.413   4.117   0.993 -0.1019 -0.6065  0.4883
   27MOL   H22017952   3.393   4.249   1.222 -0.0968 -0.0255 -0.8923
   27MOL   H22117953   3.365   4.390   1.124 -0.5857 -0.0700  1.5411
   27MOL   H22217954   3.612   4.347   1.039 -1.5541  0.0733 -0.3771
   27MOL   H22317955   3.617   4.196   1.117 -0.9708 -0.5426 -0.4197
   27MOL   H22417956   3.580   4.462   1.266 -0.7438  0.2557 -2.8626
   27MOL   H22517957   3.598   4.297   1.329 -2.7720  2.1833  0.9592
   27MOL   H22617958   3.793   4.448   1.147 -1.1405  2.7554  0.8773
   27MOL   H22717959   3.816   4.292   1.232 -0.7963  0.0738  1.7728
   27MOL   H22817960   3.831   4.386   1.444 -0.3065  0.3941 -0.1527
   27MOL   H22917961   3.786   4.542   1.392 -1.5069 -0.9696  1.4518
   27MOL   H23017962   4.045   4.496   1.431 -0.2364 -0.6344  1.0247
   27MOL   H23117963   4.034   4.384   1.303 -0.1098 -0.5929  0.8235
   27MOL   H23217964   3.986   4.682   1.261  0.0291  0.8198 -2.1580
   27MOL   H23317965   3.959   4.557   1.143  0.5107 -2.7216  0.0375
   27MOL   H23417966   4.225   4.622   1.262 -0.7388  0.2304  0.1545
   27MOL   H23517967   4.184   4.467   1.163  2.8962  0.0914 -0.9141
   27MOL   H23617968   4.124   4.596   0.976 -0.0776 -2.1476  0.6481
   27MOL   H23717969   4.292   4.645   1.012 -0.7368 -0.8020 -0.1238
   27MOL   H23817970   4.272   4.852   1.065 -0.3075  0.4537 -2.5224
   27MOL   H23917971   4.116   4.844   1.135  0.0363 -0.5329 -0.0522
   27MOL   N24017972   4.139   4.977   0.864  0.0418 -0.4029 -0.4766
   27MOL   C24117973   4.083   5.041   0.742 -0.3987  0.0943 -0.3028
   27MOL   C24217974   4.069   5.195   0.767  0.1997  0.4243  0.5427
   27MOL   C24317975   4.006   5.230   0.903  0.3688 -0.2756  0.2595
   27MOL   C24417976   4.002   5.383   0.937 -0.5432  0.4363 -0.1243
   27MOL   C24517977   3.952   5.420   1.072  0.5531 -0.0557 -0.0938
   27MOL   C24617978   3.952   5.563   1.112 -0.2094  0.2580 -0.1259
   27MOL   C24717979   4.072   5.646   1.060 -0.0965 -0.0369  0.8468
   27MOL   C24817980   4.202   5.591   1.116  0.5077  0.2701 -0.0840
   27MOL   C24917981   4.328   5.666   1.062 -1.0904  0.3228  0.5207
   27MOL   C25017982   4.442   5.649   1.168 -0.3794  0.9642  0.3724
   27MOL   C25117983   4.584   5.668   1.105 -0.0042  0.4204  0.5003
   27MOL   O25217984   4.603   5.618   0.989 -0.1062 -0.3769  0.4073
   27MOL   H25317985   4.202   5.035   0.919 -1.7801  1.2617 -0.0776
   27MOL   H25417986   3.987   4.996   0.718 -1.2666  1.3289  0.7899
   27MOL   H25517987   4.147   5.016   0.657 -1.1318  2.0118 -1.4548
   27MOL   H25617988   4.022   5.247   0.684 -1.3943 -2.5087 -0.4242
   27MOL   H25717989   4.167   5.243   0.773 -0.1928  1.5152 -1.3699
   27MOL   H25817990   3.910   5.179   0.915  0.1421  0.1504  0.2719
   27MOL   H25917991   4.070   5.187   0.980  1.0178  0.2155 -0.0091
   27MOL   H26017992   3.927   5.424   0.869 -0.2510  0.1537 -0.6144
   27MOL   H26117993   4.099   5.420   0.905 -1.3493  0.8761 -2.1700
   27MOL   H26217994   4.018   5.367   1.141  0.4848 -0.2937 -0.2107
   27MOL   H26317995   3.853   5.375   1.068  1.3481 -1.9325  0.5236
   27MOL   H26417996   3.867   5.606   1.058  0.0397  0.9154 -0.0030
   27MOL   H26517997   3.950   5.574   1.221  0.6362  3.4062 -0.3684
   27MOL   H26617998   4.053   5.747   1.096 -1.5287 -0.4209  1.1857
   27MOL   H26717999   4.072   5.663   0.952 -0.5343 -0.5424  0.7646
   27MOL   H26818000   4.201   5.609   1.224  2.8897 -1.9513  0.3669
   27MOL   H26918001   4.213   5.483   1.107  1.1574  0.4441 -1.4583
   27MOL   H27018002   4.303   5.770   1.046 -0.8962  0.0689 -1.5048
   27MOL   H27118003   4.354   5.625   0.964  0.7856  0.2662  1.0206
   27MOL   H27218004   4.447   5.554   1.221  1.1168  1.5422  1.3096
   27MOL   H27318005   4.425   5.707   1.259 -4.1647 -0.1673  0.4702
   27MOL   N27418006   4.682   5.735   1.175  0.2038  0.7111 -0.3099
   27MOL   C27518007   4.813   5.772   1.125 -0.3676  0.1293 -0.7347
   27MOL   C27618008   4.917   5.794   1.236 -0.1049 -0.1767  0.4537
   27MOL   C27718009   5.059   5.812   1.184 -0.0056  0.4206 -0.0061
   27MOL   C27818010   5.163   5.854   1.299  0.0509  0.6138 -0.1918
   27MOL   C27918011   5.305   5.879   1.240  0.5592 -0.0634 -0.6582
   27MOL   C28018012   5.405   5.931   1.345 -0.2832 -0.2609  0.0971
   27MOL   C28118013   5.371   6.075   1.409 -0.1727 -0.0326  0.3938
   27MOL   C28218014   5.484   6.178   1.419 -0.0071 -0.3056 -0.3175
   27MOL   C28318015   5.426   6.316   1.432 -0.2621 -0.3734 -0.2461
   27MOL   C28418016   5.503   6.435   1.493 -0.1413  0.1132 -0.1435
   27MOL   C28518017   5.627   6.476   1.412  0.0477  0.6180  0.2152
   27MOL   O28618018   5.644   6.431   1.297 -0.1460  0.2656 -0.0522
   27MOL   H28718019   4.650   5.763   1.267  0.1638  0.0067 -0.1023
   27MOL   H28818020   4.787   5.866   1.077  0.0359 -0.3351 -1.8817
   27MOL   H28918021   4.837   5.707   1.041 -0.5976  0.0725 -0.7570
   27MOL   H29018022   4.910   5.709   1.303  2.1660  0.5956  1.7355
   27MOL   H29118023   4.887   5.885   1.288 -0.5031  0.8066 -1.4351
   27MOL   H29218024   5.089   5.716   1.143  0.9025  0.1262  1.3023
   27MOL   H29318025   5.078   5.884   1.105  0.4113  0.4655  0.1318
   27MOL   H29418026   5.171   5.771   1.369  0.1060  1.2863  0.6038
   27MOL   H29518027   5.120   5.941   1.350  0.4266  0.6836  0.0120
   27MOL   H29618028   5.295   5.965   1.174  0.4014 -0.2170 -0.8365
   27MOL   H29718029   5.339   5.796   1.179 -0.0763 -1.3146  0.6600
   27MOL   H29818030   5.433   5.851   1.413  1.5642 -0.4882 -0.9246
   27MOL   H29918031   5.502   5.938   1.297  0.9689 -0.2539  2.5299
   27MOL   H30018032   5.308   6.052   1.496 -1.5845 -0.9699 -0.8541
   27MOL   H30118033   5.303   6.117   1.336 -0.5642 -0.7880  0.3220
   27MOL   H30218034   5.549   6.166   1.506  0.2657 -0.0718 -0.4884
   27MOL   H30318035   5.547   6.174   1.331  0.1963 -0.9542 -0.1400
   27MOL   H30418036   5.341   6.305   1.500  0.0489  0.6565  0.3112
   27MOL   H30518037   5.382   6.339   1.335  1.0693 -0.9791 -0.9986
   27MOL   H30618038   5.536   6.396   1.589  0.0642 -1.2843 -0.7664
   27MOL   H30718039   5.442   6.526   1.501  0.1127  0.3579 -0.9140
   27MOL   N30818040   5.712   6.560   1.465  0.6040 -0.2834 -0.1784
   27MOL   C30918041   5.830   6.620   1.398  0.0084  0.4611  0.4081
   27MOL   C31018042   5.805   6.761   1.338  0.2910 -0.3472  0.0800
   27MOL   C31118043   5.773   6.871   1.447  0.0231 -0.1455  0.3252
   27MOL   C31218044   5.881   6.915   1.538 -0.2414  0.1284  0.4000
   27MOL   C31318045   5.829   7.011   1.644 -0.0299 -0.6366 -0.2536
   27MOL   C31418046   5.928   7.044   1.759  0.3596  0.0828  0.5910
   27MOL   C31518047   5.904   7.193   1.809 -0.4108 -0.0037 -0.2540
   27MOL   C31618048   5.992   7.227   1.928 -0.6430 -0.2040  0.6965
   27MOL   C31718049   5.988   7.372   1.974 -0.2859  0.1925  0.1674
   27MOL   C31818050   6.020   7.358   2.127  0.5699 -0.2650  0.0544
   27MOL   C31918051   5.887   7.345   2.204  1.1296 -0.7489 -0.3501
   27MOL   O32018052   5.809   7.441   2.196  0.0908 -0.0108 -0.2586
   27MOL   H32118053   5.693   6.596   1.558 -0.6940  0.0495 -0.5724
   27MOL   H32218054   5.859   6.546   1.324 -0.3478  0.3792  0.3519
   27MOL   H32318055   5.911   6.630   1.471  0.6435  0.2072 -0.2559
   27MOL   H32418056   5.739   6.767   1.252 -1.0452  0.3006  1.1304
   27MOL   H32518057   5.905   6.780   1.298  0.2021 -0.9708 -0.4413
   27MOL   H32618058   5.746   6.959   1.390  0.8989 -0.1147 -0.0464
   27MOL   H32718059   5.684   6.843   1.504  0.2759 -0.2494  0.6701
   27MOL   H32818060   5.973   6.947   1.489  0.3262  0.4675  1.6625
   27MOL   H32918061   5.915   6.833   1.601 -0.2159  0.5062  0.8811
   27MOL   H33018062   5.737   6.960   1.672  0.9349 -1.5871  1.2425
   27MOL   H33118063   5.798   7.107   1.601 -0.8416 -0.3635  0.9186
   27MOL   H33218064   5.914   6.976   1.843  0.3793  0.3287  0.7972
   27MOL   H33318065   6.028   7.025   1.719  0.9751  3.7842  0.1366
   27MOL   H33418066   5.799   7.202   1.837  0.0141  0.7286  1.1418
   27MOL   H33518067   5.929   7.258   1.726 -0.7282  0.1405 -0.2374
   27MOL   H33618068   5.962   7.154   2.003 -0.7084 -0.3425  0.5367
   27MOL   H33718069   6.095   7.207   1.897 -1.2670 -0.5519 -1.1900
   27MOL   H33818070   5.891   7.419   1.956 -0.8258 -0.1039  2.2528
   27MOL   H33918071   6.068   7.426   1.924  0.0264 -0.9919 -0.6426
   27MOL   H34018072   6.061   7.453   2.161  1.1107 -0.0341 -1.1996
   27MOL   H34118073   6.090   7.277   2.146  1.6494  0.8840  1.0180
   27MOL   N34218074   5.866   7.238   2.285 -0.7089  0.2042  0.1651
   27MOL   C34318075   5.747   7.208   2.371  0.0388  0.7199  0.5646
   27MOL   C34418076   5.772   7.276   2.507 -0.0929  0.5541  0.7419
   27MOL   C34518077   5.704   7.198   2.622 -1.4327  0.0067 -0.9213
   27MOL   C34618078   5.735   7.255   2.757  0.4562 -0.8654 -0.1798
   27MOL   C34718079   5.669   7.171   2.872 -0.1844 -0.0521  0.2576
   27MOL   C34818080   5.722   7.208   3.015 -0.0630  0.0628 -0.7237
   27MOL   C34918081   5.725   7.359   3.042 -0.2451 -0.4723  0.4139
   27MOL   C35018082   5.734   7.391   3.190 -0.6476 -0.3766 -1.0311
   27MOL   C35118083   5.876   7.369   3.256 -1.0871  0.2628  0.5288
   27MOL   C35218084   5.933   7.224   3.275 -0.0873  1.1734  0.4442
   27MOL   C35318085   6.065   7.215   3.350 -0.2647 -0.7770  0.4651
   27MOL   O35418086   6.069   7.247   3.470 -0.0940  0.0116  0.1741
   27MOL   H35518087   5.938   7.168   2.293 -0.0741  1.0325  2.1340
   27MOL   H35618088   5.653   7.248   2.334  0.2745  1.6769  0.9949
   27MOL   H35718089   5.723   7.102   2.377 -0.3316  0.6912 -1.1668
   27MOL   H35818090   5.738   7.380   2.506 -0.8901  0.3072  1.6024
   27MOL   H35918091   5.881   7.274   2.512 -0.1424  1.1832  2.4700
   27MOL   H36018092   5.596   7.198   2.606 -1.7215  0.8956  1.0145
   27MOL   H36118093   5.737   7.094   2.621 -0.1754  0.3731  0.3586
   27MOL   H36218094   5.707   7.360   2.759  1.9606 -0.4168 -1.8750
   27MOL   H36318095   5.843   7.266   2.766  0.2469  1.6739 -0.6085
   27MOL   H36418096   5.686   7.065   2.853  2.8540  0.3479  0.5414
   27MOL   H36518097   5.561   7.185   2.878 -0.3142 -0.5027 -1.0174
   27MOL   H36618098   5.675   7.144   3.090 -2.2843  2.5283  0.0625
   27MOL   H36718099   5.823   7.168   3.010 -0.4459 -0.9892 -0.0946
   27MOL   H36818100   5.640   7.402   2.990  1.1454  1.5897 -0.2220
   27MOL   H36918101   5.808   7.393   2.980 -0.7805 -1.9079 -1.1251
   27MOL   H37018102   5.706   7.494   3.207 -2.7821 -0.9988 -0.6183
   27MOL   H37118103   5.662   7.325   3.239 -0.5171 -0.2939 -0.7272
   27MOL   H37218104   5.869   7.424   3.350  0.9988  2.5795 -0.6147
   27MOL   H37318105   5.948   7.431   3.201  1.1493 -0.7335  2.2679
   27MOL   H37418106   5.950   7.179   3.177  1.3985 -0.3122  1.3559
   27MOL   H37518107   5.867   7.159   3.332 -0.0708  2.3690  1.8685
   27MOL   N37618108   6.176   7.182   3.286 -0.3570 -0.4735 -0.2569
   27MOL   C37718109   6.314   7.213   3.335  0.8015 -0.0340  0.1183
   27MOL   C37818110   6.340   7.179   3.481  0.5336  0.2869  0.3895
   27MOL   C37918111   6.309   7.034   3.533 -0.2372 -0.3269 -0.7358
   27MOL   C38018112   6.329   7.031   3.677  0.3097 -0.4104 -0.1910
   27MOL   C38118113   6.313   6.887   3.729 -0.3357  0.3846  0.2087
   27MOL   C38218114   6.446   6.797   3.716  0.5447 -0.2680  0.2697
   27MOL   C38318115   6.428   6.660   3.789  0.4847  0.2858  0.4329
   27MOL   C38418116   6.536   6.555   3.759 -0.1838 -0.6238 -0.7138
   27MOL   C38518117   6.675   6.589   3.811  0.2279 -0.0079  0.2953
   27MOL   C38618118   6.687   6.606   3.966 -0.0757  0.2316  1.0306
   27MOL   C38718119   6.654   6.747   4.020  0.1370  0.5906  0.2942
   27MOL   O38818120   6.702   6.847   3.972 -0.5291 -0.2344 -0.4372
   27MOL   H38918121   6.158   7.156   3.190 -3.7450  0.1964  0.1059
   27MOL   H39018122   6.390   7.175   3.267  0.0864 -0.4786 -0.4480
   27MOL   H39118123   6.312   7.322   3.333  0.1635 -0.0217  1.1326
   27MOL   H39218124   6.307   7.257   3.549  1.0856 -0.6686  1.8044
   27MOL   H39318125   6.449   7.183   3.486  0.4632  1.3402  1.2883
   27MOL   H39418126   6.205   7.006   3.517 -0.7897 -0.1826  2.2638
   27MOL   H39518127   6.368   6.958   3.482 -0.0706 -0.0625 -0.9443
   27MOL   H39618128   6.248   7.088   3.722 -1.0255 -3.0570  0.8446
   27MOL   H39718129   6.424   7.076   3.706 -1.4230  2.1353  1.8411
   27MOL   H39818130   6.231   6.838   3.677  1.3472 -0.6948 -1.5315
   27MOL   H39918131   6.280   6.898   3.832 -4.6229 -3.1832 -0.6438
   27MOL   H40018132   6.451   6.783   3.608 -0.5081  0.8747  0.0493
   27MOL   H40118133   6.537   6.849   3.744  0.8577 -0.6531 -0.0360
   27MOL   H40218134   6.332   6.611   3.772  1.6252 -1.9886  0.4326
   27MOL   H40318135   6.443   6.677   3.896  0.6835  0.5524  0.3610
   27MOL   H40418136   6.493   6.470   3.810 -0.8803  0.7220  0.9752
   27MOL   H40518137   6.540   6.538   3.651 -0.1828 -1.7094 -0.5421
   27MOL   H40618138   6.721   6.673   3.760 -0.4454  0.7611  0.9243
   27MOL   H40718139   6.735   6.503   3.782 -0.3887  0.0249 -1.1108
   27MOL   H40818140   6.782   6.571   4.008  0.4451  0.0531 -0.2652
   27MOL   H40918141   6.622   6.537   4.019 -0.4334 -2.5424 -2.7852
   27MOL   N41018142   6.562   6.757   4.116 -0.4394  0.2948  0.3960
   27MOL   C41118143   6.514   6.874   4.191 -0.0441 -0.6106 -0.4309
   27MOL   C41218144   6.385   6.928   4.122 -0.7220  0.5986  0.5362
   27MOL   C41318145   6.333   7.060   4.179  0.2308 -0.3956 -0.2781
   27MOL   C41418146   6.217   7.119   4.106  0.0686  0.9161 -0.3411
   27MOL   C41518147   6.161   7.243   4.183  0.6137  0.6239  0.6549
   27MOL   C41618148   6.016   7.212   4.230  0.8555  0.5675  0.2429
   27MOL   C41718149   5.992   7.108   4.340  0.4972 -0.3153  0.1563
   27MOL   C41818150   6.037   7.168   4.474 -0.7101 -0.9319  0.7400
   27MOL   C41918151   5.988   7.075   4.593  0.0814 -1.1482 -0.1920
   27MOL   C42018152   6.102   6.985   4.642 -0.0036 -0.5308  0.2260
   27MOL   C42118153   6.143   6.864   4.554 -0.0788  0.1731  0.4597
   27MOL   O42218154   6.063   6.815   4.477 -0.1473 -0.6217  0.2035
   27MOL   H42318155   6.531   6.674   4.164 -1.9433 -0.0028 -1.0612
   27MOL   H42418156   6.493   6.834   4.291 -0.4529  1.1025  0.1764
   27MOL   H42518157   6.593   6.945   4.216 -1.1301 -0.1229  1.7839
   27MOL   H42618158   6.313   6.846   4.123  1.4025 -1.3645 -1.3964
   27MOL   H42718159   6.402   6.941   4.015  0.0521 -0.0781  0.5669
   27MOL   H42818160   6.299   7.040   4.281 -0.5818  0.1139 -0.4423
   27MOL   H42918161   6.402   7.143   4.192  0.2683 -0.3718 -0.6213
   27MOL   H43018162   6.144   7.040   4.121  0.0494  0.4946 -2.4726
   27MOL   H43118163   6.230   7.143   4.000  1.7719  2.7306  0.2550
   27MOL   H43218164   6.151   7.327   4.114 -1.5997 -0.2172 -0.1035
   27MOL   H43318165   6.225   7.266   4.268  1.1090  2.9272 -0.3103
   27MOL   H43418166   5.980   7.311   4.259  3.2907  2.1876 -2.0353
   27MOL   H43518167   5.956   7.180   4.145 -0.5236  2.0136  0.6571
   27MOL   H43618168   6.033   7.008   4.333 -0.5584 -0.8089  0.9492
   27MOL   H43718169   5.884   7.100   4.351  0.5590 -0.4476  0.6958
   27MOL   H43818170   6.142   7.196   4.472 -1.1690  0.7863 -0.8312
   27MOL   H43918171   5.977   7.256   4.498 -0.0919 -0.8200  1.8762
   27MOL   H44018172   5.902   7.009   4.578 -0.8004 -0.2426  0.8290
   27MOL   H44118173   5.956   7.140   4.674 -0.2556 -1.5904  0.0336
   27MOL   H44218174   6.075   6.919   4.724 -0.1387 -1.3418 -0.4627
   27MOL   H44318175   6.190   7.046   4.664  0.4583 -0.9897 -0.3076
   27MOL   N44418176   6.256   6.798   4.590  0.5465  0.1980  0.1728
   27MOL   C44518177   6.306   6.684   4.512  0.2598 -0.1495 -0.3418
   27MOL   C44618178   6.260   6.544   4.554 -1.0477 -0.1607  0.0127
   27MOL   C44718179   6.111   6.516   4.557 -0.2324 -0.1354  0.4859
   27MOL   C44818180   6.085   6.375   4.609  0.8532 -0.4801  0.1670
   27MOL   C44918181   5.936   6.337   4.626 -0.4039 -0.2648  0.1688
   27MOL   C45018182   5.923   6.192   4.656  0.6810 -0.1547 -0.3275
   27MOL   C45118183   5.780   6.153   4.677 -0.2524 -0.0136  0.2776
   27MOL   C45218184   5.752   6.006   4.702  0.5672  0.7516  0.0723
   27MOL   C45318185   5.609   5.988   4.752 -0.0072  0.1378  0.6834
   27MOL   C45418186   5.498   6.023   4.656  0.7280  0.0979 -0.2388
   27MOL   C45518187   5.468   5.908   4.556  0.3812 -0.6780  0.3805
   27MOL   O45618188   5.528   5.902   4.447 -0.2886 -0.5529  0.4814
   27MOL   H45718189   6.321   6.851   4.646  0.2969  2.7766 -1.8971
   27MOL   H45818190   6.262   6.696   4.413  1.2794 -0.3648 -0.8228
   27MOL   H45918191   6.414   6.693   4.503  0.4407  1.1460  2.5527
   27MOL   H46018192   6.301   6.521   4.653 -2.0659  1.7094  0.8935
   27MOL   H46118193   6.307   6.464   4.497  0.6453 -0.3491  1.6100
   27MOL   H46218194   6.068   6.586   4.629 -2.7834  1.9151 -2.8454
   27MOL   H46318195   6.065   6.545   4.462 -1.4486  1.5407  1.5458
   27MOL   H46418196   6.145   6.366   4.700  1.2428 -0.7495 -0.1115
   27MOL   H46518197   6.129   6.300   4.543  0.4208 -0.7477  0.1815
   27MOL   H46618198   5.870   6.370   4.546 -0.2811  1.8432  0.9057
   27MOL   H46718199   5.906   6.393   4.715 -1.2935  1.1225 -0.9829
   27MOL   H46818200   5.984   6.153   4.575  1.1608  0.5645 -0.3207
   27MOL   H46918201   5.985   6.170   4.743  0.3504  0.0105 -0.0469
   27MOL   H47018202   5.734   6.186   4.584  3.5132  2.9662 -0.6901
   27MOL   H47118203   5.750   6.222   4.755 -0.5682 -0.5423  0.6219
   27MOL   H47218204   5.752   5.943   4.613  1.4617 -0.3790  0.8663
   27MOL   H47318205   5.823   5.966   4.773  1.8149  1.5412 -0.7038
   27MOL   H47418206   5.593   6.043   4.845 -0.5280 -0.6070  1.0405
   27MOL   H47518207   5.584   5.883   4.772 -0.5875  0.3134  0.8916
   27MOL   H47618208   5.522   6.113   4.599 -0.8236  0.8963  0.3363
   27MOL   H47718209   5.410   6.046   4.716 -0.7027  0.0970 -2.2920
   27MOL   N47818210   5.371   5.822   4.586 -0.7048 -0.2466  0.1398
   27MOL   C47918211   5.326   5.697   4.518  0.8128 -0.0401  0.3121
   27MOL   C48018212   5.201   5.711   4.435  0.6174 -0.5175 -0.7220
   27MOL   C48118213   5.076   5.717   4.521  0.2008 -0.3086 -0.5343
   27MOL   C48218214   4.958   5.700   4.425 -0.0988  0.6739 -0.2417
   27MOL   C48318215   4.823   5.725   4.492 -0.0206  0.3635 -0.0030
   27MOL   C48418216   4.704   5.714   4.391  0.6756 -0.3757  0.5103
   27MOL   C48518217   4.557   5.714   4.449  0.7513 -0.3830 -0.3924
   27MOL   C48618218   4.459   5.695   4.340  0.8177 -0.1491 -0.0620
   27MOL   C48718219   4.324   5.659   4.412  0.7094  0.0575  0.9270
   27MOL   C48818220   4.225   5.594   4.311 -0.8337 -0.9784  0.1967
   27MOL   C48918221   4.154   5.698   4.220 -0.7251  0.9861 -1.4504
   27MOL   O49018222   4.043   5.740   4.250 -0.4066 -0.3321 -0.1763
   27MOL   H49118223   5.325   5.830   4.675 -1.6364 -1.2569 -0.2360
   27MOL   H49218224   5.414   5.668   4.462 -0.9456 -0.9170 -2.0652
   27MOL   H49318225   5.322   5.612   4.586 -1.8902 -1.4637 -1.5185
   27MOL   H49418226   5.184   5.618   4.381  2.1865 -1.7142  0.7730
   27MOL   H49518227   5.209   5.795   4.366  0.7749  1.0848  1.2015
   27MOL   H49618228   5.060   5.641   4.597 -1.4263  3.4983  3.1665
   27MOL   H49718229   5.077   5.816   4.567 -1.1300 -0.8536  0.7243
   27MOL   H49818230   4.973   5.606   4.372 -2.0415  1.5679 -2.4979
   27MOL   H49918231   4.959   5.777   4.347  0.6950  0.9021 -0.0132
   27MOL   H50018232   4.834   5.827   4.528 -1.0910  0.8242 -0.9646
   27MOL   H50118233   4.807   5.654   4.573  0.5524  2.8812  2.3979
   27MOL   H50218234   4.707   5.791   4.314 -1.7124 -2.0883 -1.3843
   27MOL   H50318235   4.715   5.621   4.335 -2.1748  1.1225 -2.7336
   27MOL   H50418236   4.529   5.811   4.491  0.0453 -0.2553 -1.1428
   27MOL   H50518237   4.538   5.640   4.527  1.2306  0.1699  0.2568
   27MOL   H50618238   4.460   5.778   4.270  0.0830 -0.7798 -0.8240
   27MOL   H50718239   4.497   5.610   4.284  1.3176 -0.6541  1.0342
   27MOL   H50818240   4.284   5.752   4.451  2.1491  0.6178  1.0710
   27MOL   H50918241   4.333   5.603   4.505  1.0524  1.2129  1.5941
   27MOL   H51018242   4.151   5.542   4.370 -0.9832 -0.4815  0.4526
   27MOL   H51118243   4.273   5.518   4.250 -1.1852 -1.4362  0.4886
   27MOL   N51218244   4.212   5.730   4.108 -0.6977  0.1714  0.3602
   27MOL   C51318245   4.145   5.820   4.011 -0.3588  0.5849 -0.3290
   27MOL   C51418246   4.200   5.795   3.870 -0.6960 -0.6246 -0.0971
   27MOL   C51518247   4.124   5.887   3.765 -0.2895  0.2045  0.0949
   27MOL   C51618248   4.165   5.861   3.622  0.2759 -0.7489  0.1697
   27MOL   C51718249   4.083   5.948   3.524  0.0920  0.2240 -0.6532
   27MOL   C51818250   4.144   5.945   3.387 -0.4649  0.0250  0.3284
   27MOL   C51918251   4.096   6.063   3.299 -0.4356 -0.2426  0.4411
   27MOL   C52018252   4.159   6.069   3.158  0.0431  0.5014  0.4115
   27MOL   C52118253   4.085   6.156   3.051 -0.3753  0.2703 -0.3075
   27MOL   C52218254   4.120   6.137   2.901  0.1378 -0.8950 -0.8890
   27MOL   C52318255   4.053   6.015   2.843 -0.0864 -0.5781 -0.7253
   27MOL   O52418256   4.092   5.908   2.887 -0.7286  0.0991 -0.3413
   27MOL   H52518257   4.311   5.711   4.103 -0.7988 -0.4775  0.8104
   27MOL   H52618258   4.039   5.798   4.010 -0.5339  1.4271 -1.0501
   27MOL   H52718259   4.161   5.925   4.033 -2.2837  1.0039 -0.8495
   27MOL   H52818260   4.182   5.690   3.846  0.9431 -0.4337 -2.2188
   27MOL   H52918261   4.307   5.813   3.862  0.1339 -2.0039  5.5335
   27MOL   H53018262   4.021   5.855   3.777 -0.5094  0.7204 -0.3672
   27MOL   H53118263   4.137   5.990   3.800  0.8928  0.3417 -0.7053
   27MOL   H53218264   4.137   5.758   3.603  2.0497 -1.1158 -0.6154
   27MOL   H53318265   4.273   5.875   3.607  0.0876  1.4344  0.7293
   27MOL   H53418266   4.095   6.047   3.568 -1.1267  0.7877 -1.5743
   27MOL   H53518267   3.978   5.919   3.524 -0.0001  0.5067  1.6614
   27MOL   H53618268   4.253   5.944   3.385 -0.4239  2.0920 -3.2761
   27MOL   H53718269   4.110   5.851   3.343 -0.8113  0.2552  0.0964
   27MOL   H53818270   4.092   6.158   3.351 -2.5725  0.2287 -0.5114
   27MOL   H53918271   3.989   6.048   3.290 -0.6025  0.8468  0.6371
   27MOL   H54018272   4.256   6.116   3.172 -0.3523  1.0642  1.3243
   27MOL   H54118273   4.175   5.963   3.138  2.9719  0.3845  3.0499
   27MOL   H54218274   4.095   6.260   3.084  1.4235  0.5149 -1.5475
   27MOL   H54318275   3.978   6.137   3.051 -0.3219 -0.1605  1.9225
   27MOL   H54418276   4.227   6.121   2.896  0.3954  0.0853  0.8625
   27MOL   H54518277   4.082   6.218   2.837  2.1335  0.9768  0.2291
   27MOL   N54618278   3.968   6.035   2.741 -0.2587  0.2624  0.8625
   27MOL   C54718279   3.903   5.924   2.673  0.4623 -0.5727 -0.4709
   27MOL   C54818280   3.780   5.877   2.752 -0.1581 -0.5732  0.0097
   27MOL   C54918281   3.670   5.978   2.761 -0.0514 -0.0172 -0.0182
   27MOL   C55018282   3.519   5.926   2.764  0.0038 -0.0743  0.3864
   27MOL   C55118283   3.413   6.030   2.744  0.5356 -0.5868  0.4583
   27MOL   C55218284   3.408   6.136   2.859  0.0099  0.4001  1.0567
   27MOL   C55318285   3.307   6.248   2.842  0.4950  0.2935 -0.4435
   27MOL   C55418286   3.281   6.335   2.967  0.4390  0.5331 -0.3852
   27MOL   C55518287   3.149   6.417   2.967  0.3405 -0.7998 -0.0937
   27MOL   C55618288   3.136   6.482   3.112  1.1459  0.4843 -0.4548
   27MOL   C55718289   3.205   6.616   3.119 -1.2216 -0.0654  0.1007
   27MOL   O55818290   3.326   6.633   3.105 -0.5863  0.1077 -0.5150
   27MOL   H55918291   3.946   6.130   2.716 -1.3038  0.0331  0.8837
   27MOL   H56018292   3.872   5.944   2.571  0.2314 -1.7338 -0.6331
   27MOL   H56118293   3.977   5.847   2.654  2.0254  0.8446 -0.2677
   27MOL   H56218294   3.808   5.830   2.846  0.2371 -0.9876 -0.3146
   27MOL   H56318295   3.749   5.790   2.694 -1.9854 -0.1005  0.2651
   27MOL   H56418296   3.701   6.028   2.853  2.0427  0.2469 -0.8376
   27MOL   H56518297   3.682   6.054   2.685 -1.4000 -0.1821 -0.4023
   27MOL   H56618298   3.507   5.873   2.858  0.0111 -1.3145 -0.3006
   27MOL   H56718299   3.519   5.849   2.687 -0.6389  1.8859 -1.6560
   27MOL   H56818300   3.313   5.988   2.731  0.4299  0.2044 -1.4774
   27MOL   H56918301   3.424   6.085   2.650 -1.1114 -2.6567 -0.9882
   27MOL   H57018302   3.399   6.085   2.955 -1.1719 -0.0195  0.7327
   27MOL   H57118303   3.512   6.167   2.860  0.7849 -2.0523  0.0982
   27MOL   H57218304   3.209   6.213   2.811 -0.2413  0.9057  1.1687
   27MOL   H57318305   3.330   6.321   2.764  2.0214 -2.0296 -2.2414
   27MOL   H57418306   3.277   6.264   3.049  0.0359  1.0513  0.0495
   27MOL   H57518307   3.368   6.399   2.974  1.6662 -1.0794 -0.6995
   27MOL   H57618308   3.063   6.357   2.936 -0.8022 -0.0628  1.5646
   27MOL   H57718309   3.143   6.491   2.888 -0.7188 -0.6235  0.1423
   27MOL   H57818310   3.168   6.410   3.187  0.6490 -2.5305 -3.0217
   27MOL   H57918311   3.029   6.497   3.125  0.9939  0.8655 -2.0235
   27MOL   N58018312   3.131   6.722   3.147 -0.1205 -0.1380 -0.3830
   27MOL   C58118313   3.191   6.860   3.172 -0.1740  0.3342 -0.2263
   27MOL   C58218314   3.144   6.928   3.301  0.0743 -0.6270  0.4788
   27MOL   C58318315   3.232   7.054   3.316 -0.3962  0.3726  0.0442
   27MOL   C58418316   3.197   7.141   3.437  0.0603  0.5541 -0.5496
   27MOL   C58518317   3.229   7.076   3.573  0.1706  0.1880  0.6030
   27MOL   C58618318   3.207   7.187   3.683 -0.4706 -0.1518 -0.5561
   27MOL   C58718319   3.206   7.128   3.826 -0.4444 -0.6493 -0.0437
   27MOL   C58818320   3.252   7.221   3.935  1.2768  0.5343  0.2299
   27MOL   C58918321   3.137   7.314   3.980 -0.2841  0.3179  0.4497
   27MOL   C59018322   3.164   7.386   4.113  0.7086  0.1842  0.2503
   27MOL   C59118323   3.057   7.487   4.140 -0.2851 -0.0645  0.0586
   27MOL   O59218324   2.945   7.482   4.085  0.0159 -0.0042 -0.6904
   27MOL   H59318325   3.030   6.715   3.153 -0.1453  0.3472 -0.1702
   27MOL   H59418326   3.300   6.862   3.172 -0.1636 -0.2263 -0.1635
   27MOL   H59518327   3.161   6.925   3.090  0.9566 -0.2299 -1.0992
   27MOL   H59618328   3.151   6.864   3.389  3.0459  0.2482  0.9532
   27MOL   H59718329   3.039   6.956   3.294  0.7462  1.5511 -1.5152
   27MOL   H59818330   3.339   7.031   3.319 -0.7923 -1.4470  0.8957
   27MOL   H59918331   3.217   7.118   3.229 -2.5663  0.0794  0.1911
   27MOL   H60018332   3.091   7.169   3.430 -0.5975 -0.3424  4.1241
   27MOL   H60118333   3.249   7.237   3.434  2.2076 -0.5819  0.0101
   27MOL   H60218334   3.334   7.045   3.574  0.3201  0.5633 -1.5729
   27MOL   H60318335   3.173   6.983   3.583  2.9178 -1.6770 -0.6950
   27MOL   H60418336   3.288   7.260   3.685 -1.9089  1.4769  0.0615
   27MOL   H60518337   3.111   7.237   3.667  0.4113  2.1677  1.0081
   27MOL   H60618338   3.257   7.031   3.829  0.3852 -0.2785 -1.8853
   27MOL   H60718339   3.101   7.100   3.836 -0.5936 -0.3042 -0.6696
   27MOL   H60818340   3.265   7.170   4.031 -2.5805  0.9153  1.0447
   27MOL   H60918341   3.347   7.272   3.921  0.6886  1.7314  0.5289
   27MOL   H61018342   3.053   7.246   3.999  1.2335 -0.7584  3.6687
   27MOL   H61118343   3.118   7.384   3.899 -1.9124 -0.6134 -0.0012
   27MOL   H61218344   3.266   7.425   4.116  1.2921 -1.3005  0.3670
   27MOL   H61318345   3.164   7.307   4.188 -1.2635  0.0178  0.1087
   27MOL   N61418346   3.084   7.574   4.234  0.6126  0.2115  0.7870
   27MOL   C61518347   2.996   7.682   4.267  0.7497  0.3743 -0.1683
   27MOL   C61618348   2.890   7.630   4.365  0.1773 -0.5387 -0.3749
   27MOL   C61718349   2.827   0.022   4.455  0.1001  0.1677  0.3081
   27MOL   C61818350   2.715   7.697   4.552 -0.3187 -0.6081 -0.0832
   27MOL   C61918351   2.667   0.099   4.624 -0.0983 -0.2548 -0.2116
   27MOL   C62018352   2.549   0.061   4.713  0.0354 -0.3016 -0.1993
   27MOL   C62118353   2.421   0.035   4.635  0.3585  0.3892 -0.2274
   27MOL   C62218354   2.359   0.150   4.556 -0.3902  0.6904 -0.0052
   27MOL   C62318355   2.314   0.278   4.628  0.0104  0.2407  0.4405
   27MOL   C62418356   2.256   0.273   4.777  0.2536 -0.0134  0.0465
   27MOL   C62518357   2.224   0.411   4.837  0.5231  0.0559  0.8762
   27MOL   O62618358   2.226   0.513   4.767  0.1616  0.1383  0.3264
   27MOL   H62718359   3.177   7.563   4.271  0.9035 -3.9411 -0.8523
   27MOL   H62818360   2.950   0.006   4.177  0.1052 -1.1260 -0.5096
   27MOL   H62918361   3.057   0.049   4.301  2.1794 -1.3349  1.5717
   27MOL   H63018362   2.939   7.555   4.428  1.1219  0.5546  0.2144
   27MOL   H63118363   2.814   7.582   4.304 -0.3497  0.9514 -0.9209
   27MOL   H63218364   2.906   0.068   4.514 -2.2805  0.8693  3.0714
   27MOL   H63318365   2.787   0.096   4.385  0.0773 -0.0798  0.0601
   27MOL   H63418366   2.767   7.627   4.618  0.9980  0.1924 -0.2564
   27MOL   H63518367   2.639   7.639   4.499 -0.8996  0.5736 -0.5807
   27MOL   H63618368   2.644   0.186   4.563  0.9718 -0.3503 -0.7519
   27MOL   H63718369   2.747   0.133   4.690 -2.1032  2.9661  0.6481
   27MOL   H63818370   2.572   7.683   4.762  1.0072  0.8029  1.5308
   27MOL   H63918371   2.542   0.123   4.803  2.3669 -1.9024  1.1408
   27MOL   H64018372   2.345   7.709   4.701 -0.1625  0.9605 -0.4641
   27MOL   H64118373   2.445   7.672   4.563  1.1592 -0.7331  1.2299
   27MOL   H64218374   2.436   0.173   4.483  0.7635  0.5782  1.1572
   27MOL   H64318375   2.272   0.116   4.500 -1.1877  2.0797  0.3509
   27MOL   H64418376   2.240   0.323   4.562  1.9959  1.7678 -0.8066
   27MOL   H64518377   2.400   0.345   4.627 -0.2566  0.5779  0.2120
   27MOL   H64618378   2.339   0.237   4.839  1.4026  1.7385 -0.4294
   27MOL   H64718379   2.182   0.193   4.777 -1.2676  1.3593  0.8566
   27MOL   N64818380   2.198   0.412   4.973  0.0736 -0.3148 -0.0506
   27MOL   C64918381   2.142   0.522   5.053  0.0291 -0.0934  0.2369
   27MOL   C65018382   2.241   0.566   5.164 -0.2761  0.4131 -0.3935
   27MOL   C65118383   2.184   0.691   5.224 -0.1969 -0.3714  0.0146
   27MOL   C65218384   2.273   0.759   5.335 -0.0529 -0.9447  0.1994
   27MOL   C65318385   2.199   0.884   5.397 -0.4713 -0.0157 -0.4054
   27MOL   C65418386   2.286   0.945   5.508 -0.4859  0.4538  0.2564
   27MOL   C65518387   2.327   0.861   5.630 -0.3152 -0.3696 -0.1724
   27MOL   C65618388   2.427   0.938   5.715 -0.5906  0.0289  0.2339
   27MOL   C65718389   2.446   0.870   5.855 -0.5368 -0.9218  0.0875
   27MOL   C65818390   2.567   0.923   5.929  0.2478 -0.2236  0.0869
   27MOL   C65918391   2.549   1.048   6.018  0.1241  0.0315  0.2487
   27MOL   O66018392   2.467   1.057   6.103  0.3267  0.6769  0.8017
   27MOL   H66118393   2.199   0.328   5.029  0.9003 -0.5954 -0.4726
   27MOL   H66218394   2.041   0.499   5.086 -0.8421  1.8236 -1.0093
   27MOL   H66318395   2.130   0.606   4.985  0.7404 -1.2632 -1.3631
   27MOL   H66418396   2.339   0.568   5.116  1.6960 -4.9055  3.0375
   27MOL   H66518397   2.249   0.488   5.240  1.4916 -1.3088 -2.2765
   27MOL   H66618398   2.154   0.762   5.147  2.2548 -1.0482 -1.6234
   27MOL   H66718399   2.087   0.670   5.269  0.3186  0.4726  1.5564
   27MOL   H66818400   2.368   0.802   5.305 -0.0625 -1.7224 -0.9703
   27MOL   H66918401   2.280   0.689   5.419  2.2042 -2.0438 -0.8661
   27MOL   H67018402   2.106   0.851   5.443 -0.1587 -0.9667 -0.4556
   27MOL   H67118403   2.184   0.953   5.314  0.5059  0.4091 -0.2419
   27MOL   H67218404   2.368   0.997   5.460 -1.0689  1.1385 -0.0093
   27MOL   H67318405   2.234   1.030   5.552 -0.1054  0.7030  0.2224
   27MOL   H67418406   2.353   0.760   5.601  2.2293  0.5107 -1.1310
   27MOL   H67518407   2.237   0.855   5.691  0.6251 -3.8411  0.9598
   27MOL   H67618408   2.524   0.943   5.665 -0.0660 -1.8865  1.0075
   27MOL   H67718409   2.394   1.039   5.739 -1.2504 -0.8210  3.2043
   27MOL   H67818410   2.451   0.764   5.830  2.5808 -0.3867 -1.8039
   27MOL   H67918411   2.349   0.890   5.900 -1.0219  2.7543 -2.3493
   27MOL   H68018412   2.644   0.950   5.856  0.1980  0.0269  0.1283
   27MOL   H68118413   2.603   0.833   5.979 -0.0134 -0.2243  0.2711
   27MOL   H68218414   2.630   1.121   6.010  2.1265 -2.2188 -0.9409
   28MOL     N118415   2.293   4.588   2.686 -0.1691  0.2023  0.4029
   28MOL     C218416   2.195   4.566   2.584  0.5509 -0.0497  0.4183
   28MOL     C318417   2.210   4.424   2.519  0.1763  0.3495  0.0959
   28MOL     C418418   2.120   4.405   2.401 -0.0522  0.2943  0.3977
   28MOL     C518419   2.169   4.290   2.304  0.1307 -0.3798 -0.1000
   28MOL     C618420   2.292   4.326   2.216 -0.2890 -0.2991  1.0197
   28MOL     C718421   2.316   4.235   2.091 -0.8640  0.0544  0.5009
   28MOL     C818422   2.461   4.174   2.077  0.2122 -0.3088 -0.8503
   28MOL     C918423   2.564   4.285   2.055  0.6156  0.8117 -0.3581
   28MOL    C1018424   2.695   4.235   1.997 -0.3605  0.0187 -0.7851
   28MOL    C1118425   2.771   4.125   2.066 -0.4632  0.1151 -0.4830
   28MOL    C1218426   2.837   4.165   2.196 -0.3185  0.0281 -0.2487
   28MOL    O1318427   2.953   4.208   2.198 -0.2847 -0.8719  0.6931
   28MOL    H1418428   2.280   4.518   2.758 -1.4591 -0.1980 -0.2030
   28MOL    H1518429   2.233   4.636   2.509  1.4045  0.3728  1.2359
   28MOL    H1618430   2.096   4.597   2.618  0.0317 -0.0567 -1.0313
   28MOL    H1718431   2.186   4.347   2.593 -0.3081  1.4085  1.0581
   28MOL    H1818432   2.312   4.405   2.486  0.6640 -0.5832  2.0341
   28MOL    H1918433   2.017   4.385   2.433 -0.0612  0.8376  0.7358
   28MOL    H2018434   2.126   4.502   2.351  2.7768 -0.2838 -0.4477
   28MOL    H2118435   2.083   4.265   2.241  0.1046  0.9630 -0.6122
   28MOL    H2218436   2.189   4.195   2.353 -2.6497 -1.4048 -0.8787
   28MOL    H2318437   2.388   4.328   2.267  0.5310  0.6470 -0.5201
   28MOL    H2418438   2.279   4.427   2.177  2.0590  0.6025  2.4619
   28MOL    H2518439   2.256   4.143   2.091  2.4633 -2.1849  0.9919
   28MOL    H2618440   2.294   4.301   2.006 -1.1202 -1.6932 -0.8196
   28MOL    H2718441   2.453   4.100   1.998 -0.2836 -0.9952 -0.1658
   28MOL    H2818442   2.476   4.120   2.170  0.7353  3.7131  1.5534
   28MOL    H2918443   2.528   4.359   1.984  0.7390  0.6697 -0.5692
   28MOL    H3018444   2.574   4.334   2.152  0.5737  0.1603 -0.0187
   28MOL    H3118445   2.767   4.317   1.995 -0.5211  0.1617 -0.7134
   28MOL    H3218446   2.671   4.219   1.892 -0.2804 -1.4254 -0.5965
   28MOL    H3318447   2.847   4.106   1.991  0.3263  0.9538  0.1070
   28MOL    H3418448   2.715   4.033   2.089  2.2009 -1.2935  0.5879
   28MOL    H3518449   2.381   4.567   2.641 -1.2157  1.1964 -2.2087
   28MOL    N3618450   2.774   4.153   2.311  0.4055  0.3375  0.4160
   28MOL    C3718451   2.827   4.170   2.449 -0.6093 -0.5885 -0.4597
   28MOL    C3818452   2.791   4.313   2.506 -0.6001  0.0861 -0.3914
   28MOL    C3918453   2.639   4.332   2.518  0.1983  0.0921  0.5017
   28MOL    C4018454   2.550   4.247   2.603  1.0908  0.8107  0.4606
   28MOL    C4118455   2.560   4.264   2.754  0.8155 -0.0125  0.7311
   28MOL    C4218456   2.443   4.202   2.831  0.2236 -0.0534 -0.0496
   28MOL    C4318457   2.420   4.266   2.973 -0.7199  0.3814 -0.3523
   28MOL    C4418458   2.281   4.240   3.024 -0.6564  0.3265  0.2143
   28MOL    C4518459   2.252   4.278   3.170 -0.2661  0.4726  0.4086
   28MOL    C4618460   2.125   4.220   3.224  0.5799  0.0531 -0.0130
   28MOL    C4718461   2.132   4.071   3.279  0.3925 -0.1498 -0.2852
   28MOL    O4818462   2.233   4.032   3.322  0.6556 -0.0391 -0.1992
   28MOL    H4918463   2.688   4.100   2.314  0.2264  0.6236  0.2284
   28MOL    H5018464   2.794   4.092   2.516 -1.0632  1.9469  2.3795
   28MOL    H5118465   2.936   4.164   2.442 -0.2606  2.5040  1.4129
   28MOL    H5218466   2.832   4.392   2.444 -2.0748 -1.5622 -3.5952
   28MOL    H5318467   2.832   4.312   2.607 -2.7067  0.2230  0.4938
   28MOL    H5418468   2.612   4.436   2.539 -3.1564 -0.6861  0.2525
   28MOL    H5518469   2.607   4.317   2.415 -0.6577  1.4344  0.5620
   28MOL    H5618470   2.559   4.141   2.578  3.4814  0.7524  1.4839
   28MOL    H5718471   2.450   4.277   2.573 -0.5704 -2.1586  2.7475
   28MOL    H5818472   2.566   4.371   2.777  0.2538 -0.1563  1.5626
   28MOL    H5918473   2.657   4.227   2.786  1.1473  1.5352  1.5639
   28MOL    H6018474   2.363   4.231   2.763  1.8553 -0.8342 -2.3609
   28MOL    H6118475   2.458   4.095   2.843 -1.9129 -0.4666 -0.9678
   28MOL    H6218476   2.461   4.366   2.990 -1.9325  1.0303 -1.2580
   28MOL    H6318477   2.473   4.195   3.038  1.4224  0.8294 -1.5532
   28MOL    H6418478   2.203   4.269   2.955  1.0215  1.2600 -1.3240
   28MOL    H6518479   2.259   4.135   3.005 -0.0121 -0.1935  2.2359
   28MOL    H6618480   2.232   4.385   3.181  0.4046  0.6746 -0.2994
   28MOL    H6718481   2.335   4.242   3.229  0.0843  0.5400 -0.0377
   28MOL    H6818482   2.048   4.241   3.150 -0.4200 -0.7962  0.7581
   28MOL    H6918483   2.115   4.284   3.313 -2.0939  2.3374 -1.8506
   28MOL    N7018484   2.019   3.999   3.270 -0.2937 -0.1111 -0.5834
   28MOL    C7118485   2.011   3.864   3.322  0.0172  0.3322  0.5501
   28MOL    C7218486   1.875   3.794   3.273 -0.4918  0.0324  0.2848
   28MOL    C7318487   1.829   3.669   3.356 -0.1387 -0.7560  0.2096
   28MOL    C7418488   1.723   3.591   3.282  0.3459  0.2815 -0.1021
   28MOL    C7518489   1.668   3.482   3.372 -0.0212  0.1698  0.9129
   28MOL    C7618490   1.564   3.384   3.306 -0.4102 -0.4369  0.6412
   28MOL    C7718491   1.473   3.305   3.406 -0.2294 -0.3069  0.5794
   28MOL    C7818492   1.548   3.248   3.529  0.3835  0.0021  0.3625
   28MOL    C7918493   1.454   3.186   3.635  0.0157 -0.0211  0.3074
   28MOL    C8018494   1.528   3.119   3.755 -0.4752 -0.2549  0.5506
   28MOL    C8118495   1.428   3.068   3.857  0.3399  0.2825 -0.4249
   28MOL    O8218496   1.308   3.104   3.856  0.5230 -0.4390 -0.1228
   28MOL    H8318497   1.937   4.046   3.235  0.8112  1.8306 -0.6524
   28MOL    H8418498   2.095   3.803   3.289  0.7897  1.3560  0.5966
   28MOL    H8518499   2.019   3.870   3.431  0.3496  1.4357  0.4688
   28MOL    H8618500   1.885   3.778   3.166 -2.4593  1.5455 -0.1465
   28MOL    H8718501   1.797   3.869   3.264 -0.9026 -0.5985 -1.5640
   28MOL    H8818502   1.915   3.611   3.391  0.9030  1.8033  2.0708
   28MOL    H8918503   1.799   3.715   3.450  0.7556 -0.9961  0.6251
   28MOL    H9018504   1.768   3.553   3.190  1.2557  1.9051 -0.3597
   28MOL    H9118505   1.633   3.648   3.256  0.6567  0.2966 -1.1860
   28MOL    H9218506   1.611   3.529   3.452 -0.0303 -0.8852  1.5441
   28MOL    H9318507   1.754   3.440   3.424  2.0018  1.9677 -0.8712
   28MOL    H9418508   1.500   3.444   3.241 -0.6503  1.5040  2.6077
   28MOL    H9518509   1.606   3.314   3.235  1.3856  1.1859  0.0572
   28MOL    H9618510   1.423   3.226   3.349 -0.5173  0.0967  0.2669
   28MOL    H9718511   1.390   3.370   3.436 -0.8498 -1.2772  1.0068
   28MOL    H9818512   1.624   3.175   3.500  2.5757  1.8836  1.2407
   28MOL    H9918513   1.598   3.328   3.583 -1.5764 -0.4885  3.0077
   28MOL   H10018514   1.388   3.115   3.585  0.4799 -0.0157 -0.3193
   28MOL   H10118515   1.380   3.261   3.665 -0.9176 -0.8875  0.1936
   28MOL   H10218516   1.610   3.183   3.789  0.6857 -2.0598  1.2273
   28MOL   H10318517   1.583   3.029   3.728  0.2184  0.2521  0.2754
   28MOL   N10418518   1.487   3.008   3.958 -0.4733  0.1745  0.4905
   28MOL   C10518519   1.431   2.944   4.083  0.7891 -0.2812  0.1353
   28MOL   C10618520   1.433   2.788   4.078  0.1201  0.6843  0.1373
   28MOL   C10718521   1.571   2.725   4.037  0.7790  0.6142  0.7958
   28MOL   C10818522   1.553   2.567   4.030  0.2754  0.2015  0.0413
   28MOL   C10918523   1.680   2.496   3.966  0.1398  0.2633  0.3626
   28MOL   C11018524   1.675   2.338   3.996 -0.5299  0.3192 -0.3090
   28MOL   C11118525   1.799   2.261   3.937  0.4006  1.0830  0.4300
   28MOL   C11218526   1.790   2.110   3.951  0.8045 -0.0811 -0.1009
   28MOL   C11318527   1.914   2.030   3.924 -1.0168  0.4488 -0.1419
   28MOL   C11418528   1.896   1.891   3.985  0.2858 -0.1745  0.3102
   28MOL   C11518529   1.987   1.782   3.927  0.8721 -0.0646 -0.4577
   28MOL   O11618530   2.081   1.807   3.858 -0.4827 -0.2635 -0.1335
   28MOL   H11718531   1.588   2.998   3.952 -0.6223 -0.7223 -0.8233
   28MOL   H11818532   1.499   2.970   4.165  1.5750 -0.8839 -0.3174
   28MOL   H11918533   1.336   2.991   4.108  1.7613  2.0450 -0.3629
   28MOL   H12018534   1.365   2.758   3.999 -3.0396  0.4203  2.8362
   28MOL   H12118535   1.386   2.739   4.163  1.3288  0.2668  0.5791
   28MOL   H12218536   1.599   2.761   3.939  0.7561  0.5625  0.7707
   28MOL   H12318537   1.648   2.749   4.110  0.2644 -0.1852  1.6226
   28MOL   H12418538   1.463   2.539   3.976  1.4676 -0.6434 -1.5997
   28MOL   H12518539   1.529   2.518   4.124 -0.5873 -0.4406 -0.5139
   28MOL   H12618540   1.764   2.534   4.023 -0.5609  2.7828 -0.2139
   28MOL   H12718541   1.706   2.514   3.862 -0.2053 -0.8603  0.0843
   28MOL   H12818542   1.663   2.309   4.100 -0.1502  0.7828 -0.1321
   28MOL   H12918543   1.586   2.298   3.947 -1.2060  1.1359  0.2270
   28MOL   H13018544   1.889   2.313   3.971  2.0257 -0.9937 -0.6000
   28MOL   H13118545   1.802   2.287   3.831 -0.6782 -1.7677 -0.3405
   28MOL   H13218546   1.754   2.101   4.054  0.0110  1.7146 -0.2061
   28MOL   H13318547   1.707   2.076   3.889 -0.6030  0.8602  1.2267
   28MOL   H13418548   1.998   2.078   3.973 -0.8029  1.4542 -1.4846
   28MOL   H13518549   1.924   2.021   3.816  2.4098  1.1515  0.0653
   28MOL   H13618550   1.794   1.858   3.968  0.8211 -1.6120 -0.1843
   28MOL   H13718551   1.902   1.884   4.094  1.4593 -0.9841  0.1951
   28MOL   N13818552   1.955   1.654   3.962 -0.2250  0.3601  0.0288
   28MOL   C13918553   2.030   1.532   3.956  0.7896 -0.2338 -0.4139
   28MOL   C14018554   2.107   1.515   4.083  0.1920 -0.3992 -0.1845
   28MOL   C14118555   2.186   1.382   4.093 -0.1076  0.3233 -0.0267
   28MOL   C14218556   2.272   1.403   4.218  0.2037  0.5726  0.1515
   28MOL   C14318557   2.386   1.292   4.234 -0.1126 -0.8066 -0.2478
   28MOL   C14418558   2.493   1.346   4.332  0.4445 -0.5509  0.7212
   28MOL   C14518559   2.590   1.242   4.385  0.8093  0.0255  0.4804
   28MOL   C14618560   2.711   1.312   4.459  0.1355 -0.0395 -0.0348
   28MOL   C14718561   2.820   1.211   4.493 -0.3654 -0.1823 -0.5151
   28MOL   C14818562   2.777   1.097   4.587 -0.2239  0.4378  0.4443
   28MOL   C14918563   2.889   1.007   4.625 -0.0441  0.2977  0.1942
   28MOL   O15018564   3.004   1.048   4.606 -0.2366 -0.3860 -1.0823
   28MOL   H15118565   1.883   1.643   4.032 -1.4075 -0.8749 -1.3454
   28MOL   H15218566   1.963   1.448   3.936 -0.8257  0.7058  0.8566
   28MOL   H15318567   2.101   1.539   3.874  1.0321  2.4624 -0.0121
   28MOL   H15418568   2.026   1.516   4.155  0.1549 -0.5788 -0.2218
   28MOL   H15518569   2.155   1.608   4.112 -0.5396  0.0508 -0.3971
   28MOL   H15618570   2.130   1.289   4.106 -0.3950  0.5562  0.3927
   28MOL   H15718571   2.247   1.364   4.004 -1.5077 -0.0881 -0.9092
   28MOL   H15818572   2.206   1.392   4.303  1.0120 -1.1328  0.5689
   28MOL   H15918573   2.321   1.500   4.217 -2.0226  1.7275 -0.3540
   28MOL   H16018574   2.418   1.275   4.131  2.3266 -0.6931  0.4736
   28MOL   H16118575   2.340   1.196   4.259 -1.5061 -0.0757  0.0753
   28MOL   H16218576   2.544   1.422   4.272  0.7272 -1.3267 -0.0308
   28MOL   H16318577   2.444   1.394   4.416 -2.1741 -0.6760 -0.6786
   28MOL   H16418578   2.626   1.186   4.298 -1.2378 -0.5167 -0.0473
   28MOL   H16518579   2.531   1.183   4.455 -1.5475 -0.8077 -2.0983
   28MOL   H16618580   2.760   1.391   4.403 -0.2816 -0.0994 -0.4912
   28MOL   H16718581   2.673   1.358   4.550 -1.4875  0.5684 -0.9892
   28MOL   H16818582   2.888   1.275   4.549  0.3266 -1.3237 -0.0447
   28MOL   H16918583   2.868   1.181   4.400  0.8745  0.5860 -0.1396
   28MOL   H17018584   2.702   1.032   4.544  1.1437 -0.4752 -0.6004
   28MOL   H17118585   2.730   1.147   4.672  1.6821 -0.5069  2.0950
   28MOL   N17218586   2.856   0.905   4.703  0.5405 -0.2367 -0.9139
   28MOL   C17318587   2.949   0.809   4.763  0.0215 -0.6164 -0.5031
   28MOL   C17418588   2.920   0.679   4.698  0.4755  0.3675 -0.6265
   28MOL   C17518589   3.011   0.573   4.762 -0.2183 -0.1810  0.4127
   28MOL   C17618590   3.007   0.424   4.716 -0.3062 -0.1734  0.5059
   28MOL   C17718591   3.111   0.337   4.789 -0.3046  0.3247 -0.9790
   28MOL   C17818592   3.118   0.194   4.740 -0.0079  0.0610  0.0725
   28MOL   C17918593   3.241   0.115   4.788  0.4229 -0.0773 -0.4344
   28MOL   C18018594   3.261   7.684   4.746  0.5828 -0.5497  0.6510
   28MOL   C18118595   3.269   7.677   4.588  0.5557 -0.2524 -0.0772
   28MOL   C18218596   3.399   0.021   4.530 -0.7141  0.1189 -0.1499
   28MOL   C18318597   3.441   7.681   4.394  0.5196  0.0219 -0.2549
   28MOL   O18418598   3.353   7.645   4.314  0.4723 -0.0225 -0.2217
   28MOL   H18518599   2.761   0.872   4.698  0.7661 -1.6357  2.4615
   28MOL   H18618600   3.050   0.848   4.754 -0.0694 -0.7256 -2.2377
   28MOL   H18718601   2.924   0.813   4.869 -3.4853 -2.6938 -1.1847
   28MOL   H18818602   2.923   0.686   4.589  0.1850 -0.5300 -0.6981
   28MOL   H18918603   2.816   0.647   4.707  0.5179  0.2926 -0.3927
   28MOL   H19018604   3.112   0.609   4.748 -0.3522  0.4578  1.0458
   28MOL   H19118605   2.995   0.560   4.869 -2.5568 -1.1534 -0.0065
   28MOL   H19218606   3.019   0.398   4.611 -0.7256  1.3643  0.0760
   28MOL   H19318607   2.911   0.377   4.737 -1.8203  1.6617 -2.0679
   28MOL   H19418608   3.103   0.349   4.897  3.4644 -1.6742 -0.4042
   28MOL   H19518609   3.205   0.382   4.757  0.9526 -0.9888  0.7221
   28MOL   H19618610   3.023   0.141   4.752 -0.5609  0.5433 -1.9891
   28MOL   H19718611   3.128   0.199   4.631 -1.5797  1.6497 -0.0219
   28MOL   H19818612   3.247   0.130   4.896 -0.3456 -3.1143  0.0830
   28MOL   H19918613   3.331   0.173   4.770 -0.0064  0.7269 -0.0149
   28MOL   H20018614   3.347   7.643   4.797  1.5131 -1.0779 -1.3087
   28MOL   H20118615   3.180   7.615   4.768  1.0079 -0.5865  2.0985
   28MOL   H20218616   3.180   0.006   4.544  0.9337 -1.2557 -1.9323
   28MOL   H20318617   3.267   7.571   4.561 -1.8523 -0.6593  1.6269
   28MOL   H20418618   3.485   0.010   4.597 -1.3451 -1.2190  0.4374
   28MOL   H20518619   3.393   0.130   4.531  0.1235  0.1701 -0.0525
   28MOL   N20618620   3.574   7.677   4.376  0.2813 -0.4216  0.1473
   28MOL   C20718621   3.638   7.613   4.263 -0.2124  0.1305 -0.7434
   28MOL   C20818622   3.650   7.714   4.140  0.4682 -0.0396  0.0616
   28MOL   C20918623   3.707   7.647   4.014 -0.2486 -0.3068 -0.1642
   28MOL   C21018624   3.605   7.561   3.933 -0.0510 -0.7924 -0.3488
   28MOL   C21118625   3.676   7.466   3.835  0.1126  0.0194 -0.5187
   28MOL   C21218626   3.574   7.377   3.765  0.4390  0.0710  1.6671
   28MOL   C21318627   3.624   7.331   3.619 -0.3626 -0.3562 -0.2029
   28MOL   C21418628   3.754   7.249   3.620  1.2398  0.4305 -0.2265
   28MOL   C21518629   3.806   7.202   3.486 -0.2728  0.1169  0.1576
   28MOL   C21618630   3.914   7.098   3.504 -0.1122  0.7248  0.8029
   28MOL   C21718631   4.049   7.145   3.558  0.2152 -0.1476  0.1569
   28MOL   O21818632   4.103   7.238   3.497 -0.2662  0.5882 -0.2758
   28MOL   H21918633   3.636   0.009   4.440  0.2037 -0.0233 -0.0696
   28MOL   H22018634   3.582   7.521   4.246  1.0280 -1.0929  1.5404
   28MOL   H22118635   3.737   7.575   4.289  0.1787  0.7784 -1.2805
   28MOL   H22218636   3.716   0.080   4.170  0.7634 -0.3850  0.3574
   28MOL   H22318637   3.551   0.044   4.127 -0.3789 -1.9167 -0.2838
   28MOL   H22418638   3.751   7.715   3.941  0.7366  1.0117  1.6087
   28MOL   H22518639   3.785   7.580   4.051 -1.3014 -1.0347  0.7480
   28MOL   H22618640   3.529   7.622   3.885 -1.0058 -1.7889 -0.1110
   28MOL   H22718641   3.546   7.493   3.995 -0.9804 -0.1067 -0.4759
   28MOL   H22818642   3.761   7.419   3.884 -1.4961 -1.3586  1.0050
   28MOL   H22918643   3.738   7.525   3.768  1.5433 -2.3088 -1.2959
   28MOL   H23018644   3.549   7.291   3.827  1.7392 -1.7379 -0.2302
   28MOL   H23118645   3.480   7.430   3.754  0.7022  0.3617  0.7273
   28MOL   H23218646   3.635   7.415   3.551 -1.4204  0.2605  0.3721
   28MOL   H23318647   3.550   7.265   3.572 -0.2495 -1.2713  0.8944
   28MOL   H23418648   3.833   7.306   3.670  0.3432 -0.2911  2.0845
   28MOL   H23518649   3.729   7.170   3.691  0.7240 -0.1311 -1.0228
   28MOL   H23618650   3.856   7.284   3.434  1.8196 -0.7894  0.6826
   28MOL   H23718651   3.724   7.161   3.426 -0.4148 -0.1349  0.5254
   28MOL   H23818652   3.945   7.075   3.402 -0.9990 -1.5063  1.0122
   28MOL   H23918653   3.871   7.009   3.549 -3.4407  0.1829 -3.1503
   28MOL   N24018654   4.099   7.090   3.669 -0.2366 -0.6105 -0.3238
   28MOL   C24118655   4.217   7.148   3.732  0.7140  0.5551  0.0207
   28MOL   C24218656   4.337   7.086   3.658  0.3812 -0.2078 -0.1920
   28MOL   C24318657   4.459   7.081   3.756 -0.9672 -0.0027 -0.6276
   28MOL   C24418658   4.587   7.009   3.707 -0.2465 -0.0381 -0.2079
   28MOL   C24518659   4.701   7.002   3.809 -0.2714  0.0197 -0.6003
   28MOL   C24618660   4.815   6.904   3.764 -0.4310  0.5048  0.1469
   28MOL   C24718661   4.932   6.907   3.871  0.7410  0.4650  0.1938
   28MOL   C24818662   5.050   6.808   3.851  0.2636  0.0750 -0.9608
   28MOL   C24918663   5.140   6.864   3.749 -0.1415 -0.4491 -0.0863
   28MOL   C25018664   5.201   6.770   3.644  0.1292 -0.2050 -0.1545
   28MOL   C25118665   5.097   6.732   3.541  0.2113  0.6648 -0.0096
   28MOL   O25218666   5.049   6.811   3.463  0.5026  0.1117  0.0195
   28MOL   H25318667   4.050   7.016   3.717  2.6101 -2.0811  0.4574
   28MOL   H25418668   4.213   7.107   3.833  2.1285 -1.8905 -0.8581
   28MOL   H25518669   4.222   7.257   3.726  0.6777  0.5217 -0.6175
   28MOL   H25618670   4.379   7.139   3.573  0.6616 -1.2609 -0.7162
   28MOL   H25718671   4.304   6.984   3.642 -0.1520 -0.8296  4.1881
   28MOL   H25818672   4.486   7.183   3.783  0.5349 -0.2716 -1.0590
   28MOL   H25918673   4.428   7.034   3.850 -1.5131  1.7509  0.0939
   28MOL   H26018674   4.628   7.055   3.617  0.6686  0.7029  0.5774
   28MOL   H26118675   4.550   6.911   3.678  4.4974 -1.4353 -1.9115
   28MOL   H26218676   4.669   6.961   3.904  0.1875 -1.0385 -0.9025
   28MOL   H26318677   4.734   7.099   3.846  1.1423 -0.4731 -0.5480
   28MOL   H26418678   4.774   6.803   3.764 -1.1118  0.7703 -2.2643
   28MOL   H26518679   4.849   6.929   3.664 -1.5138  0.2296 -0.2977
   28MOL   H26618680   4.894   6.891   3.972 -0.0289  0.5384 -0.0787
   28MOL   H26718681   4.962   7.012   3.871  0.6164  0.5062  0.8274
   28MOL   H26818682   5.101   6.794   3.946 -2.2550 -1.6335  0.1973
   28MOL   H26918683   5.005   6.713   3.822 -0.3905  0.0402  0.1223
   28MOL   H27018684   5.218   6.913   3.806 -0.7348 -0.0391  0.3817
   28MOL   H27118685   5.101   6.952   3.697 -0.4403 -0.0973  0.7127
   28MOL   H27218686   5.239   6.677   3.687 -0.7452 -0.1097  0.8530
   28MOL   H27318687   5.288   6.818   3.600 -1.4141  2.6938 -0.1812
   28MOL   N27418688   5.053   6.602   3.551  0.7043 -0.1258 -0.6943
   28MOL   C27518689   4.945   6.543   3.476  0.1213  0.6675  0.8895
   28MOL   C27618690   4.800   6.558   3.538  0.5161  0.1771 -0.1855
   28MOL   C27718691   4.774   6.470   3.665  0.7364 -0.0819 -0.0829
   28MOL   C27818692   4.632   6.482   3.714  0.8400 -0.1420  0.1436
   28MOL   C27918693   4.595   6.610   3.786 -0.3263  0.4265 -0.0742
   28MOL   C28018694   4.468   6.580   3.874 -0.2689  0.8552 -0.7385
   28MOL   C28118695   4.396   6.699   3.946  0.4114  0.3037  0.4033
   28MOL   C28218696   4.279   6.653   4.033  0.2395  0.7886 -0.6572
   28MOL   C28318697   4.247   6.751   4.150 -0.0022  0.4659 -0.3492
   28MOL   C28418698   4.204   6.893   4.105 -0.1401 -0.2061  0.0712
   28MOL   C28518699   4.075   6.891   4.022  0.8028 -0.5561 -0.1845
   28MOL   O28618700   4.079   6.841   3.906 -0.7849  0.6010 -0.7345
   28MOL   H28718701   5.101   6.549   3.623 -1.1278 -1.5831 -0.5183
   28MOL   H28818702   4.958   6.435   3.468 -0.7311  0.6277  0.0565
   28MOL   H28918703   4.943   6.584   3.375 -0.4088 -0.2805  0.5116
   28MOL   H29018704   4.742   6.521   3.454 -1.1266  0.2206  0.9026
   28MOL   H29118705   4.786   6.665   3.555  0.7853  0.3148 -0.8308
   28MOL   H29218706   4.793   6.366   3.639  2.5429  0.7632 -2.4210
   28MOL   H29318707   4.841   6.509   3.741 -0.6991 -0.8564  1.6062
   28MOL   H29418708   4.606   6.395   3.774 -0.3886  1.3031  1.7655
   28MOL   H29518709   4.565   6.461   3.630  2.8107  2.1221 -2.0826
   28MOL   H29618710   4.564   6.685   3.713 -2.0631  2.1374  2.3531
   28MOL   H29718711   4.678   6.645   3.848 -2.0317  2.1235  1.3042
   28MOL   H29818712   4.391   6.520   3.825  0.9727 -2.1441  0.8126
   28MOL   H29918713   4.514   6.514   3.948  0.7267  0.2505 -1.8853
   28MOL   H30018714   4.355   6.780   3.884 -0.6728  1.6650  2.8453
   28MOL   H30118715   4.460   6.748   4.019  1.3889  0.7493 -0.7186
   28MOL   H30218716   4.196   6.633   3.966  0.9141  0.5453 -1.4281
   28MOL   H30318717   4.309   6.558   4.079  0.2053 -0.6201 -3.3959
   28MOL   H30418718   4.338   6.775   4.207  1.5270 -0.1742 -2.4539
   28MOL   H30518719   4.171   6.708   4.215  0.4055  3.0715  1.9323
   28MOL   H30618720   4.274   6.943   4.038  2.1265 -0.0131  2.5178
   28MOL   H30718721   4.192   6.953   4.195  3.4950 -1.6969  1.6544
   28MOL   N30818722   3.965   6.939   4.078  0.6562  0.3766  0.2671
   28MOL   C30918723   3.837   6.936   4.007 -0.3232  0.0579 -0.3521
   28MOL   C31018724   3.760   7.065   4.034 -0.3296  0.2933 -0.3047
   28MOL   C31118725   3.696   7.070   4.173 -0.7133  0.0482 -0.0137
   28MOL   C31218726   3.602   7.188   4.182  0.0358 -0.2361 -0.0145
   28MOL   C31318727   3.468   7.169   4.247  0.1039  0.6771  0.5503
   28MOL   C31418728   3.479   7.130   4.399 -1.3608 -0.2079 -0.0743
   28MOL   C31518729   3.539   7.231   4.500 -0.1570  0.2639 -0.8367
   28MOL   C31618730   3.517   7.184   4.643 -0.0917 -0.7380 -0.1583
   28MOL   C31718731   3.632   7.084   4.695 -0.0808 -0.1938 -0.4630
   28MOL   C31818732   3.630   7.072   4.848 -0.0085 -0.2974  0.3727
   28MOL   C31918733   3.742   6.983   4.904 -0.1928 -0.0157 -0.4770
   28MOL   O32018734   3.827   6.928   4.829  0.1861  0.0866  0.2073
   28MOL   H32118735   3.984   6.949   4.177 -0.4184  0.5594  0.4592
   28MOL   H32218736   3.767   6.864   4.049 -0.4502  2.3742  3.7524
   28MOL   H32318737   3.840   6.901   3.904 -2.2680 -2.0360  0.2580
   28MOL   H32418738   3.681   7.086   3.962  0.4023  1.2889 -0.8325
   28MOL   H32518739   3.820   7.156   4.025  0.6703 -0.5829 -2.9931
   28MOL   H32618740   3.637   6.979   4.188  0.6624 -0.5807  1.7878
   28MOL   H32718741   3.770   7.074   4.253 -0.1547  2.2413 -0.6255
   28MOL   H32818742   3.586   7.225   4.080 -0.1890  0.7075  0.3574
   28MOL   H32918743   3.637   7.275   4.239 -1.8730 -0.4055  1.4494
   28MOL   H33018744   3.414   7.089   4.196  0.5345  0.6955  0.0684
   28MOL   H33118745   3.399   7.253   4.239  0.6165  1.2601  1.9512
   28MOL   H33218746   3.380   7.098   4.431 -0.1869 -2.9959  0.8968
   28MOL   H33318747   3.533   7.036   4.411 -0.0986  0.3930 -0.9342
   28MOL   H33418748   3.484   7.324   4.485 -1.9816 -1.1150 -3.1240
   28MOL   H33518749   3.642   7.255   4.477  0.9561 -2.8485  0.5781
   28MOL   H33618750   3.522   7.281   4.692 -0.9813  0.5291 -2.5204
   28MOL   H33718751   3.420   7.141   4.665 -0.4688 -0.2165 -0.7964
   28MOL   H33818752   3.729   7.117   4.657  0.2627  0.9197  1.3339
   28MOL   H33918753   3.622   6.983   4.654 -0.3043  0.3252 -1.7158
   28MOL   H34018754   3.539   7.029   4.888 -0.6431  1.9894  1.4573
   28MOL   H34118755   3.641   7.171   4.892 -0.3886  0.3247 -0.8920
   28MOL   N34218756   3.754   6.980   5.041 -0.0262  0.2113  0.1840
   28MOL   C34318757   3.868   6.917   5.114 -0.4605 -0.1366  0.2014
   28MOL   C34418758   3.831   6.795   5.196  0.1051 -0.1195  0.0970
   28MOL   C34518759   3.710   6.809   5.282 -0.4512 -0.0176  0.0786
   28MOL   C34618760   3.721   6.704   5.394  0.0596  0.5687 -0.1488
   28MOL   C34718761   3.608   6.693   5.494 -0.3838  0.0577  0.6421
   28MOL   C34818762   3.607   6.786   5.611  0.5278 -0.1620  0.8086
   28MOL   C34918763   3.517   6.746   5.732  0.0019 -0.0106 -0.0161
   28MOL   C35018764   3.513   6.855   5.839 -0.3248  0.0317  0.2920
   28MOL   C35118765   3.393   6.858   5.922 -0.1541 -0.1720  0.1689
   28MOL   C35218766   3.380   6.980   6.024  0.5827 -0.4519 -0.0158
   28MOL   C35318767   3.359   7.124   5.965 -0.2354 -0.5589  0.7787
   28MOL   O35418768   3.323   7.135   5.846  0.1285  0.1401 -0.5312
   28MOL   H35518769   3.681   7.023   5.096  0.5199  0.5052  0.6805
   28MOL   H35618770   3.954   6.886   5.054  0.1213  1.6571  0.0878
   28MOL   H35718771   3.909   6.997   5.175  0.8231 -0.8239  0.2626
   28MOL   H35818772   3.913   6.772   5.263  0.1853  0.6879  0.2823
   28MOL   H35918773   3.812   6.706   5.136  3.5994  0.1166 -1.4507
   28MOL   H36018774   3.681   6.910   5.310  1.2926  0.5267 -0.0125
   28MOL   H36118775   3.617   6.795   5.227 -0.3849  1.5260 -0.4559
   28MOL   H36218776   3.798   6.740   5.461 -0.0731  0.9400 -0.1923
   28MOL   H36318777   3.739   6.606   5.348 -0.7661  0.5957 -0.5497
   28MOL   H36418778   3.619   6.590   5.529  1.2235  0.5622  1.6637
   28MOL   H36518779   3.512   6.678   5.445  1.4086  0.3554 -3.2174
   28MOL   H36618780   3.710   6.811   5.638  0.8928 -1.1486  0.3445
   28MOL   H36718781   3.565   6.879   5.573 -2.6807 -1.8514  0.0708
   28MOL   H36818782   3.547   6.646   5.763 -0.6212 -0.9402 -2.2878
   28MOL   H36918783   3.415   6.728   5.698  0.4345 -1.6112 -0.4901
   28MOL   H37018784   3.602   6.860   5.902 -0.9535  0.4441  1.1626
   28MOL   H37118785   3.502   6.952   5.791  0.4177 -0.4127 -0.8013
   28MOL   H37218786   3.387   6.770   5.986  1.8192 -0.3931  0.0778
   28MOL   H37318787   3.300   6.869   5.866  0.0709 -1.2170 -0.4305
   28MOL   H37418788   3.467   6.977   6.090  0.4193  1.1756  0.2976
   28MOL   H37518789   3.290   6.975   6.085  0.5766  0.7516  0.0882
   28MOL   N37618790   3.366   7.234   6.044  0.4809  0.4362 -0.0302
   28MOL   C37718791   3.367   7.371   5.993 -0.1397  0.1111 -0.4907
   28MOL   C37818792   3.512   7.416   5.967  1.3840  0.1799 -0.8637
   28MOL   C37918793   3.521   7.562   5.910  0.2305  0.0168  0.1741
   28MOL   C38018794   3.657   7.620   5.937 -0.6129 -0.4134 -0.3992
   28MOL   C38118795   3.758   7.555   5.844 -0.4915  0.7737  0.3140
   28MOL   C38218796   3.889   7.627   5.875 -0.5541  0.3858  0.3359
   28MOL   C38318797   4.012   7.581   5.797  0.2683  0.2032 -0.1389
   28MOL   C38418798   4.143   7.654   5.829 -0.3964  0.2173 -0.7719
   28MOL   C38518799   4.162   0.087   5.795 -0.0971 -0.4337  0.4876
   28MOL   C38618800   4.129   0.124   5.645 -0.0086  0.2690  0.3481
   28MOL   C38718801   4.109   0.271   5.627  0.1188  0.2448  0.2439
   28MOL   O38818802   4.025   0.342   5.686  0.9504 -0.3706 -0.1288
   28MOL   H38918803   3.374   7.212   6.142 -0.4639 -0.0449 -0.0481
   28MOL   H39018804   3.299   7.373   5.908  0.4701  0.1292 -0.9870
   28MOL   H39118805   3.326   7.430   6.075  1.4731  0.6331 -0.0455
   28MOL   H39218806   3.568   7.354   5.897  1.4133  1.9431 -2.4527
   28MOL   H39318807   3.568   7.411   6.061  2.1457 -0.0921 -1.3206
   28MOL   H39418808   3.498   7.570   5.804 -0.4132  1.3778  0.4011
   28MOL   H39518809   3.448   7.620   5.967  0.1481 -0.5981  0.6995
   28MOL   H39618810   3.685   7.604   6.041 -0.9630 -2.7526 -0.6413
   28MOL   H39718811   3.657   0.013   5.927  1.7642 -0.3090  0.4365
   28MOL   H39818812   3.731   7.573   5.741  1.8191  2.8100  0.0281
   28MOL   H39918813   3.764   7.447   5.860  2.3287  0.7629 -0.6648
   28MOL   H40018814   3.866   0.018   5.868  1.3631  0.8995  1.5983
   28MOL   H40118815   3.912   7.627   5.981  0.5041 -0.2107  0.1195
   28MOL   H40218816   3.997   7.593   5.690 -2.5844 -0.4127  0.1474
   28MOL   H40318817   4.028   7.475   5.815  1.3095  0.3670 -0.0876
   28MOL   H40418818   4.162   7.640   5.935  0.2584  2.6255 -0.5387
   28MOL   H40518819   4.227   7.599   5.788  1.4000  0.4253  2.4553
   28MOL   H40618820   4.263   0.123   5.816  0.0625 -0.3342 -0.4529
   28MOL   H40718821   4.099   0.152   5.856 -0.6055  2.5262 -3.0453
   28MOL   H40818822   4.040   0.070   5.612 -0.5492  1.1616  0.3412
   28MOL   H40918823   4.206   0.092   5.576 -0.9054 -1.2583  0.0134
   28MOL   N41018824   4.211   0.331   5.564  0.4533  0.5887 -0.4535
   28MOL   C41118825   4.226   0.474   5.547 -0.7618  0.3413  0.2886
   28MOL   C41218826   4.349   0.514   5.460 -0.6377 -1.2192  0.8224
   28MOL   C41318827   4.361   0.671   5.450 -0.2617  0.0060 -0.2937
   28MOL   C41418828   4.497   0.717   5.400  0.4540  0.2378  0.0528
   28MOL   C41518829   4.522   0.868   5.381 -0.0015 -0.3223 -0.0886
   28MOL   C41618830   4.671   0.880   5.339  0.6094  0.2790 -0.0970
   28MOL   C41718831   4.715   1.027   5.323  0.2945 -0.0348  0.2667
   28MOL   C41818832   4.867   1.030   5.297 -0.0399 -0.3656  0.7472
   28MOL   C41918833   4.928   0.948   5.178  0.2547  0.1686 -0.1559
   28MOL   C42018834   5.085   0.946   5.166 -0.6802 -0.4272  0.3899
   28MOL   C42118835   5.147   0.859   5.281 -0.2178 -0.2781  0.3774
   28MOL   O42218836   5.141   0.738   5.278 -0.4328 -0.1774  0.5418
   28MOL   H42318837   4.277   0.269   5.520 -0.9651 -1.2084 -0.0840
   28MOL   H42418838   4.136   0.507   5.496 -0.4812  0.4696 -0.1242
   28MOL   H42518839   4.225   0.514   5.649  0.9701  1.2669 -0.0363
   28MOL   H42618840   4.346   0.467   5.361  0.3785 -0.2661  0.3262
   28MOL   H42718841   4.443   0.481   5.504 -1.2933 -1.1280  2.3226
   28MOL   H42818842   4.282   0.726   5.398 -1.4762 -1.1907  0.2552
   28MOL   H42918843   4.353   0.707   5.552  0.3555  1.8010 -0.8602
   28MOL   H43018844   4.523   0.660   5.310 -1.6386 -0.8283  0.0912
   28MOL   H43118845   4.571   0.684   5.473 -1.5912 -0.5694  1.7852
   28MOL   H43218846   4.508   0.924   5.472 -1.3711  1.4844 -1.3773
   28MOL   H43318847   4.457   0.911   5.305 -0.7749  1.2098  1.4107
   28MOL   H43418848   4.734   0.835   5.416  1.3242  0.5754 -0.5143
   28MOL   H43518849   4.696   0.827   5.248 -1.1107  0.1416 -0.5126
   28MOL   H43618850   4.695   1.090   5.410 -0.6799 -0.6464  0.4867
   28MOL   H43718851   4.661   1.073   5.241  0.6640 -2.6598 -1.5041
   28MOL   H43818852   4.907   1.132   5.291  0.4209 -0.5980 -0.3052
   28MOL   H43918853   4.915   0.999   5.390 -0.1210  1.8703  1.5823
   28MOL   H44018854   4.885   0.996   5.090 -0.7704 -2.4058 -1.0891
   28MOL   H44118855   4.887   0.848   5.164 -2.7969  1.2650  0.6350
   28MOL   H44218856   5.124   1.047   5.156 -1.0312 -0.0444  2.6500
   28MOL   H44318857   5.099   0.896   5.070 -0.4916  2.3284 -1.0801
   28MOL   N44418858   5.205   0.928   5.383  0.1715  0.0126 -0.3952
   28MOL   C44518859   5.250   0.861   5.505 -0.2170 -0.3006  0.0405
   28MOL   C44618860   5.138   0.850   5.607 -0.2731 -0.1088  0.1054
   28MOL   C44718861   5.093   0.991   5.661 -0.6222 -0.5797 -0.2427
   28MOL   C44818862   4.987   0.991   5.770 -0.9390  0.1793 -0.0665
   28MOL   C44918863   4.955   1.133   5.829 -0.1003  0.9044  0.5960
   28MOL   C45018864   4.855   1.209   5.743 -0.1520 -0.7381  0.2463
   28MOL   C45118865   4.835   1.351   5.795 -0.2527 -0.3776 -0.0118
   28MOL   C45218866   4.727   1.420   5.717 -0.7943  0.3189  0.2805
   28MOL   C45318867   4.739   1.573   5.718  0.0056 -0.1135 -0.2436
   28MOL   C45418868   4.622   1.644   5.650  0.1336  0.2914 -0.1747
   28MOL   C45518869   4.643   1.786   5.594  0.4740  0.2517  0.8773
   28MOL   O45618870   4.692   1.876   5.662 -0.8472  0.2331  0.3811
   28MOL   H45718871   5.200   1.029   5.379  0.3704  0.0305 -0.1875
   28MOL   H45818872   5.294   0.763   5.487  1.1139  0.4724 -0.9926
   28MOL   H45918873   5.330   0.924   5.543 -0.1330 -1.6423  2.1334
   28MOL   H46018874   5.172   0.778   5.682 -0.5637 -0.2265  0.1232
   28MOL   H46118875   5.046   0.799   5.579 -2.8782  3.6028  1.6351
   28MOL   H46218876   5.190   1.025   5.698 -0.0266 -1.8695 -0.5607
   28MOL   H46318877   5.076   1.054   5.574  0.0027  1.4557  1.0751
   28MOL   H46418878   5.014   0.931   5.857  0.7215  0.7183 -0.1965
   28MOL   H46518879   4.898   0.940   5.733  0.2591 -1.5651 -0.6057
   28MOL   H46618880   5.047   1.192   5.831 -1.2267  2.7428 -0.8773
   28MOL   H46718881   4.910   1.123   5.928 -0.0750 -1.8487  0.3543
   28MOL   H46818882   4.881   1.212   5.637  1.4038  2.1906  0.6609
   28MOL   H46918883   4.758   1.161   5.759 -1.6895  2.0008 -0.5165
   28MOL   H47018884   4.924   1.414   5.787 -0.8528  0.5878  0.8603
   28MOL   H47118885   4.822   1.348   5.903 -1.2368 -2.0899 -0.1614
   28MOL   H47218886   4.711   1.385   5.616  0.1733  1.1816 -0.1813
   28MOL   H47318887   4.635   1.401   5.773  0.7409 -0.1852  2.7334
   28MOL   H47418888   4.829   1.593   5.659  0.6009 -1.0619  0.3300
   28MOL   H47518889   4.755   1.605   5.821  2.5733  0.9973 -0.9377
   28MOL   H47618890   4.536   1.655   5.717 -0.1880  1.4460 -0.7625
   28MOL   H47718891   4.586   1.581   5.568  0.5728 -1.5290  0.9874
   28MOL   N47818892   4.602   1.816   5.467  0.1085  0.3409 -0.4117
   28MOL   C47918893   4.623   1.938   5.396  0.4447  0.8950 -0.0517
   28MOL   C48018894   4.608   1.915   5.247 -0.1535  0.3007  0.0066
   28MOL   C48118895   4.637   2.039   5.170 -0.0640 -0.9991  0.0635
   28MOL   C48218896   4.782   2.075   5.132  0.1500  0.2266 -0.0551
   28MOL   C48318897   4.798   2.206   5.062 -0.1904 -0.5815  0.1833
   28MOL   C48418898   4.788   2.204   4.907 -0.0241  0.6006 -0.7191
   28MOL   C48518899   4.899   2.123   4.828  0.4393  0.2596 -0.6080
   28MOL   C48618900   4.891   2.159   4.678 -0.0526  0.5047 -0.1280
   28MOL   C48718901   5.003   2.087   4.596 -0.0111 -0.2722  0.3547
   28MOL   C48818902   4.994   2.084   4.442  0.4134 -0.7694 -0.3863
   28MOL   C48918903   4.886   1.990   4.394 -1.2473 -0.0479 -0.5104
   28MOL   O49018904   4.895   1.872   4.416 -0.1900 -0.2595 -0.3174
   28MOL   H49118905   4.568   1.741   5.409  1.6213 -0.1957 -0.6367
   28MOL   H49218906   4.535   1.996   5.423  0.0653  0.0093  0.6696
   28MOL   H49318907   4.713   1.991   5.428  1.7513  0.3167 -2.6514
   28MOL   H49418908   4.506   1.882   5.230 -0.0592 -0.5838  1.1210
   28MOL   H49518909   4.676   1.835   5.217  0.7827  1.0242  0.1818
   28MOL   H49618910   4.581   2.033   5.076  0.0045  0.8858 -0.1147
   28MOL   H49718911   4.594   2.124   5.221 -1.9249 -2.0289  0.2566
   28MOL   H49818912   4.835   1.991   5.089 -0.4305  0.2014 -0.7205
   28MOL   H49918913   4.816   2.078   5.236 -1.6090  1.3199  0.5141
   28MOL   H50018914   4.893   2.258   5.078 -0.8415  1.4492 -2.2988
   28MOL   H50118915   4.712   2.264   5.097  0.1678  1.5016 -2.2485
   28MOL   H50218916   4.692   2.164   4.875  0.1071 -0.9299  0.7430
   28MOL   H50318917   4.783   2.309   4.880  1.3494  1.0103  0.5602
   28MOL   H50418918   4.886   2.015   4.841  1.0316  0.3061  0.3744
   28MOL   H50518919   4.998   2.142   4.867  0.3987  0.2215 -0.4884
   28MOL   H50618920   4.793   2.125   4.645 -0.0523  0.8039 -0.4311
   28MOL   H50718921   4.885   2.267   4.665 -0.3184  0.4591 -0.3853
   28MOL   H50818922   4.995   1.983   4.628 -3.2551 -0.5150 -1.0540
   28MOL   H50918923   5.101   2.126   4.624  0.1667 -0.4682  0.0100
   28MOL   H51018924   5.088   2.049   4.400  0.3305  0.2022 -1.3863
   28MOL   H51118925   4.979   2.185   4.403  1.0887 -0.2662  0.6361
   28MOL   N51218926   4.800   2.045   4.312  0.4010  0.0464  0.3590
   28MOL   C51318927   4.725   1.958   4.224 -0.2248  0.1103  0.7682
   28MOL   C51418928   4.589   1.917   4.279  0.1135  0.2058  0.4820
   28MOL   C51518929   4.486   2.032   4.305 -0.6894  0.2094 -0.2546
   28MOL   C51618930   4.450   2.125   4.185 -0.6719  0.3504 -0.0045
   28MOL   C51718931   4.342   2.224   4.212 -0.1249  0.1902 -0.1497
   28MOL   C51818932   4.299   2.317   4.102 -0.2313 -0.2078 -0.1914
   28MOL   C51918933   4.268   2.237   3.973  0.2562 -0.0464 -0.0175
   28MOL   C52018934   4.346   2.291   3.854 -0.0378  0.1873 -0.4722
   28MOL   C52118935   4.278   2.253   3.721  0.9920 -0.3787  0.2203
   28MOL   C52218936   4.369   2.297   3.605 -0.1298  0.3660  0.3003
   28MOL   C52318937   4.315   2.246   3.468  0.1417  0.0848  0.4829
   28MOL   O52418938   4.295   2.123   3.449 -0.4080 -0.3081 -0.5690
   28MOL   H52518939   4.807   2.143   4.287  1.0864 -0.3240 -0.9259
   28MOL   H52618940   4.714   2.016   4.133  2.1021 -1.2671 -0.4463
   28MOL   H52718941   4.783   1.873   4.188 -1.6298  0.1053 -1.6172
   28MOL   H52818942   4.606   1.860   4.370  1.1010  0.7926  0.6718
   28MOL   H52918943   4.535   1.842   4.220  2.8740 -0.6116 -1.0550
   28MOL   H53018944   4.396   1.972   4.321 -0.4579 -0.3989 -1.1535
   28MOL   H53118945   4.514   2.089   4.393 -0.4296  1.4798 -1.1507
   28MOL   H53218946   4.424   2.054   4.107 -1.7792  0.1859  0.5150
   28MOL   H53318947   4.544   2.175   4.158 -0.7766  0.8892  0.6134
   28MOL   H53418948   4.365   2.279   4.303 -1.6962 -1.5463  1.3179
   28MOL   H53518949   4.249   2.175   4.240  0.1057 -0.3854 -0.3811
   28MOL   H53618950   4.211   2.373   4.135  1.2380  0.2393  3.1593
   28MOL   H53718951   4.376   2.392   4.083 -1.4358  1.0029 -0.4384
   28MOL   H53818952   4.162   2.242   3.947  0.5432  1.6378 -0.9537
   28MOL   H53918953   4.285   2.130   3.985 -0.0612 -0.2335 -1.1273
   28MOL   H54018954   4.353   2.399   3.865 -1.4647  0.3624 -1.2303
   28MOL   H54118955   4.447   2.256   3.877 -0.3876  0.9700  2.3918
   28MOL   H54218956   4.187   2.314   3.725  1.8378  0.9892 -0.7756
   28MOL   H54318957   4.250   2.149   3.707 -1.8743  0.3689  0.0090
   28MOL   H54418958   4.470   2.264   3.631  0.5787  2.1347 -0.0832
   28MOL   H54518959   4.371   2.405   3.585  0.4093  0.3618  0.3130
   28MOL   N54618960   4.284   2.330   3.373 -0.2041  0.1707  1.2807
   28MOL   C54718961   4.254   2.309   3.230 -0.6151 -0.1678 -0.5060
   28MOL   C54818962   4.111   2.364   3.197  0.4916  0.3966 -0.3869
   28MOL   C54918963   4.094   2.372   3.047 -0.2530  0.0609  0.2001
   28MOL   C55018964   4.069   2.236   2.984 -0.4452 -0.0225 -0.1642
   28MOL   C55118965   4.007   2.266   2.843 -0.3950 -1.0014 -0.5211
   28MOL   C55218966   3.956   2.139   2.766 -0.0709  0.8722  0.3068
   28MOL   C55318967   3.904   2.160   2.629 -0.9453 -0.1675 -0.1821
   28MOL   C55418968   3.770   2.238   2.627 -0.5990 -0.1382  0.1654
   28MOL   C55518969   3.708   2.257   2.488  0.8178  0.2924 -0.7749
   28MOL   C55618970   3.580   2.350   2.505 -0.5691 -0.1130  0.6069
   28MOL   C55718971   3.603   2.497   2.494  0.2164 -0.2253  0.0355
   28MOL   O55818972   3.619   2.545   2.381 -0.6033 -0.0461  0.3127
   28MOL   H55918973   4.304   2.424   3.404  1.4572  0.7139 -1.3446
   28MOL   H56018974   4.328   2.359   3.168  0.0564  0.9340  1.1478
   28MOL   H56118975   4.254   2.201   3.213  3.2089 -0.5543  1.2954
   28MOL   H56218976   4.107   2.462   3.245  1.2855  0.7072 -0.9392
   28MOL   H56318977   4.028   2.305   3.237 -1.3863  1.4007 -2.6618
   28MOL   H56418978   4.022   2.452   3.029 -0.5200  0.0171  1.0527
   28MOL   H56518979   4.176   2.422   2.995 -1.3422 -0.4301 -2.0032
   28MOL   H56618980   3.998   2.176   3.041 -0.5482  2.1676  2.0930
   28MOL   H56718981   4.161   2.179   2.968  0.2309  1.3018 -1.0649
   28MOL   H56818982   4.068   2.317   2.769  0.6673 -2.0008 -0.3492
   28MOL   H56918983   3.919   2.325   2.868 -0.4376 -0.1272 -2.6514
   28MOL   H57018984   4.045   2.081   2.743 -1.5293 -0.7799 -1.3890
   28MOL   H57118985   3.894   2.074   2.829  0.1656  1.4175  1.1048
   28MOL   H57218986   3.892   2.058   2.593  2.8140 -1.6432  2.4464
   28MOL   H57318987   3.985   2.207   2.574  0.5144 -0.5814  1.5639
   28MOL   H57418988   3.700   2.193   2.697 -1.3133  2.7790  1.4007
   28MOL   H57518989   3.796   2.336   2.666  1.2144 -1.4165  2.3004
   28MOL   H57618990   3.668   2.162   2.452 -2.0205  1.6290 -1.3188
   28MOL   H57718991   3.784   2.289   2.418  2.8249  1.5409  1.8868
   28MOL   H57818992   3.536   2.327   2.602  0.4900 -2.7834  0.5007
   28MOL   H57918993   3.494   2.332   2.440  0.4383 -1.2132 -0.4569
   28MOL   N58018994   3.605   2.569   2.611  0.1163 -0.8656  0.2971
   28MOL   C58118995   3.650   2.703   2.614 -0.6542  0.5282 -0.0797
   28MOL   C58218996   3.778   2.716   2.688  1.1010 -0.5681  0.0174
   28MOL   C58318997   3.895   2.642   2.622  0.3558  0.0965  0.4733
   28MOL   C58418998   4.019   2.628   2.714  0.1470 -0.2185  0.5920
   28MOL   C58518999   4.145   2.587   2.634 -0.6910  0.2954 -0.0660
   28MOL   C58619000   4.270   2.590   2.721 -0.2845  0.2740  0.6485
   28MOL   C58719001   4.373   2.504   2.662 -0.1114  0.3340 -0.0791
   28MOL   C58819002   4.357   2.355   2.697 -0.7688  0.3258  0.4543
   28MOL   C58919003   4.484   2.274   2.663 -1.0990  0.5455  0.0349
   28MOL   C59019004   4.461   2.125   2.680  0.0060  0.2599 -0.3642
   28MOL   C59119005   4.479   2.080   2.824 -0.5228 -0.1684  0.7098
   28MOL   O59219006   4.565   2.131   2.899 -0.5638  0.0694  0.2164
   28MOL   H59319007   3.604   2.525   2.702 -0.4539 -0.8423  0.3041
   28MOL   H59419008   3.653   2.743   2.512 -1.1395 -0.8529 -0.6492
   28MOL   H59519009   3.585   2.769   2.673  2.5142  4.5055 -0.7873
   28MOL   H59619010   3.766   2.693   2.794 -0.9789 -0.9929 -0.2891
   28MOL   H59719011   3.813   2.819   2.692  0.8998 -0.5145  0.5994
   28MOL   H59819012   3.873   2.539   2.592 -0.6248  0.4894 -0.2098
   28MOL   H59919013   3.917   2.692   2.527  2.2414 -1.0128  0.2975
   28MOL   H60019014   3.984   2.565   2.795  1.0725  2.0411  2.7847
   28MOL   H60119015   4.036   2.728   2.754  0.1505  0.2836 -0.6315
   28MOL   H60219016   4.172   2.651   2.551  0.1615 -0.3326 -0.2892
   28MOL   H60319017   4.126   2.490   2.588  0.8618 -0.3470  0.5883
   28MOL   H60419018   4.309   2.692   2.724  1.1290 -0.0879 -2.7723
   28MOL   H60519019   4.252   2.562   2.825  2.3264 -1.0539  0.7610
   28MOL   H60619020   4.473   2.523   2.703  1.2271 -0.1179 -3.0275
   28MOL   H60719021   4.375   2.526   2.556 -0.7310 -0.4005 -0.2463
   28MOL   H60819022   4.335   2.354   2.804 -1.2325 -1.3959  0.3509
   28MOL   H60919023   4.270   2.319   2.642  0.2704 -1.3562 -0.0767
   28MOL   H61019024   4.575   2.310   2.712 -1.3540  2.6909 -1.0108
   28MOL   H61119025   4.506   2.293   2.557 -0.5424 -1.8799 -0.3219
   28MOL   H61219026   4.539   2.081   2.618  0.9225  1.5408 -0.1538
   28MOL   H61319027   4.368   2.102   2.628  0.7994 -1.2668 -1.1351
   28MOL   N61419028   4.393   1.991   2.865 -0.1444 -0.3216  0.2460
   28MOL   C61519029   4.368   1.955   3.004  0.7518 -0.7156 -0.3350
   28MOL   C61619030   4.448   1.829   3.041  0.2554 -0.7039  0.4932
   28MOL   C61719031   4.598   1.847   3.070  0.7848  0.0335  0.2748
   28MOL   C61819032   4.664   1.735   3.138 -0.0561  0.0104 -0.5290
   28MOL   C61919033   4.598   1.702   3.273 -0.2788 -0.5079  0.3931
   28MOL   C62019034   4.606   1.821   3.370 -0.1995  0.2699 -0.1081
   28MOL   C62119035   4.543   1.784   3.505 -0.3149 -0.1156 -0.4491
   28MOL   C62219036   4.594   1.847   3.637  0.6800  0.3258 -0.4228
   28MOL   C62319037   4.531   1.792   3.761  0.3340 -0.3928 -0.2070
   28MOL   C62419038   4.586   1.661   3.819 -0.0713  0.5246 -0.4333
   28MOL   C62519039   4.495   1.550   3.774 -0.5232 -0.5053  0.9995
   28MOL   O62619040   4.391   1.519   3.823 -0.0997 -0.0597 -0.1360
   28MOL   H62719041   4.331   1.954   2.795 -1.5442  1.5957  0.4320
   28MOL   H62819042   4.262   1.929   3.005  1.3235 -3.2087 -1.9805
   28MOL   H62919043   4.382   2.036   3.077 -2.5825 -2.9152  2.9488
   28MOL   H63019044   4.417   1.753   2.969 -2.3449  1.2757 -0.5658
   28MOL   H63119045   4.409   1.792   3.136 -0.8760  0.1772  0.3893
   28MOL   H63219046   4.648   1.874   2.976  2.1412  0.8019  1.1982
   28MOL   H63319047   4.614   1.939   3.127 -1.0904 -0.2447  1.2951
   28MOL   H63419048   4.768   1.759   3.161 -0.6235  1.8492  0.1745
   28MOL   H63519049   4.665   1.644   3.077 -0.3946  0.9399 -1.9491
   28MOL   H63619050   4.654   1.628   3.332 -1.7137 -1.6607  0.3399
   28MOL   H63719051   4.500   1.658   3.259 -1.0944  1.2591  0.4842
   28MOL   H63819052   4.706   1.861   3.387 -0.8737  2.3854 -1.0125
   28MOL   H63919053   4.551   1.904   3.327 -0.7571  1.4269  2.7593
   28MOL   H64019054   4.562   1.678   3.517  0.4807  0.0397 -0.3056
   28MOL   H64119055   4.437   1.805   3.496 -0.4113 -0.4998 -0.1888
   28MOL   H64219056   4.702   1.839   3.641  0.9312  2.9371 -1.0424
   28MOL   H64319057   4.586   1.955   3.629 -1.1585  0.1590 -1.0256
   28MOL   H64419058   4.423   1.785   3.757  0.2806  0.9147 -0.9561
   28MOL   H64519059   4.543   1.861   3.845  0.1491 -0.4060 -0.1702
   28MOL   H64619060   4.593   1.659   3.928 -0.0762  2.0834 -0.3939
   28MOL   H64719061   4.689   1.650   3.785  0.7536 -0.6374  2.2843
   28MOL   N64819062   4.551   1.485   3.673  0.3217  0.3832 -0.7023
   28MOL   C64919063   4.497   1.365   3.609 -0.1253  0.9029 -0.5118
   28MOL   C65019064   4.529   1.241   3.693 -0.0659 -0.5337  0.0259
   28MOL   C65119065   4.670   1.217   3.744  0.1404 -0.0779 -0.1095
   28MOL   C65219066   4.698   1.072   3.790 -0.3964 -0.1337  0.1524
   28MOL   C65319067   4.702   0.962   3.677  0.2164  0.2221 -0.1955
   28MOL   C65419068   4.690   0.827   3.742 -0.0552 -0.8589  1.1769
   28MOL   C65519069   4.675   0.717   3.638  0.5196  0.4680 -0.1127
   28MOL   C65619070   4.662   0.575   3.692 -0.3945  0.1335 -0.4123
   28MOL   C65719071   4.629   0.458   3.598 -0.3740 -0.5336 -0.2754
   28MOL   C65819072   4.664   0.317   3.648  0.0286 -0.4287 -0.7359
   28MOL   C65919073   4.610   0.213   3.554 -0.0010  0.0069 -0.1703
   28MOL   O66019074   4.646   0.213   3.436  0.0891  0.3556  0.2249
   28MOL   H66119075   4.635   1.525   3.634  1.5636 -1.1543  0.2740
   28MOL   H66219076   4.553   1.375   3.516  1.0602  0.5231  0.1396
   28MOL   H66319077   4.391   1.374   3.587 -0.1827  0.8071 -0.2801
   28MOL   H66419078   4.494   1.155   3.636  1.9731 -0.1713 -1.8505
   28MOL   H66519079   4.472   1.234   3.785 -2.3840  3.1294 -1.0457
   28MOL   H66619080   4.726   1.256   3.659 -2.9698  0.4548 -2.0129
   28MOL   H66719081   4.702   1.290   3.819  1.7240 -1.0220  0.1688
   28MOL   H66819082   4.621   1.050   3.863 -1.1097  2.3751  0.2190
   28MOL   H66919083   4.789   1.068   3.848 -0.7070  0.5791  0.6935
   28MOL   H67019084   4.780   0.975   3.603  0.6416 -1.2281 -0.0198
   28MOL   H67119085   4.609   0.964   3.620 -0.1671  0.7765  0.4401
   28MOL   H67219086   4.782   0.800   3.794 -0.1625 -0.5139  1.5461
   28MOL   H67319087   4.613   0.818   3.819 -3.1482 -2.6145 -1.9583
   28MOL   H67419088   4.753   0.721   3.563 -1.5111  3.4881 -2.1566
   28MOL   H67519089   4.587   0.741   3.578  1.5235  1.2271 -1.2844
   28MOL   H67619090   4.751   0.554   3.750 -2.1271 -2.2477  1.5245
   28MOL   H67719091   4.597   0.570   3.780 -0.9168  1.7642 -0.6891
   28MOL   H67819092   4.701   0.481   3.519 -1.8482  0.7411 -1.2743
   28MOL   H67919093   4.527   0.460   3.559 -0.5864 -2.3329  0.1243
   28MOL   H68019094   4.615   0.304   3.745  0.1020  1.0084 -0.4970
   28MOL   H68119095   4.768   0.300   3.677 -0.5719  0.3547  2.0656
   28MOL   H68219096   4.544   0.146   3.609 -1.2878  0.3006 -1.3313
   29MOL     N119097   6.099   1.215   5.457 -0.2855  0.2907  0.5540
   29MOL     C219098   5.997   1.215   5.345 -0.0935 -0.3718 -0.3769
   29MOL     C319099   5.940   1.356   5.320 -0.7279 -0.1197  0.2243
   29MOL     C419100   5.843   1.344   5.197 -0.5987 -0.0554  0.1910
   29MOL     C519101   5.830   1.480   5.128  0.1306  0.3403  0.1383
   29MOL     C619102   5.750   1.466   4.997  0.0414 -0.3997 -0.3798
   29MOL     C719103   5.713   1.596   4.921 -0.2222  0.2653  0.0012
   29MOL     C819104   5.620   1.564   4.805  1.0496  0.0737  0.5145
   29MOL     C919105   5.572   1.684   4.717 -0.3957  0.2660  0.2296
   29MOL    C1019106   5.477   1.620   4.612  0.1309 -0.0444 -0.6816
   29MOL    C1119107   5.430   1.730   4.517 -0.2202  0.6374 -0.3435
   29MOL    C1219108   5.320   1.675   4.414  0.1492  0.1539  0.5096
   29MOL    O1319109   5.255   1.577   4.437 -0.1755 -0.6563  0.2490
   29MOL    H1419110   6.157   1.134   5.438 -0.8159  0.1851 -0.7047
   29MOL    H1519111   5.912   1.150   5.365 -1.6024  1.9537  1.0842
   29MOL    H1619112   6.057   1.181   5.261  0.4353 -1.5362  0.4643
   29MOL    H1719113   6.026   1.420   5.298 -0.6863 -0.2319  0.0691
   29MOL    H1819114   5.910   1.409   5.411  0.3279 -1.0510  1.1274
   29MOL    H1919115   5.885   1.271   5.128 -0.5389  0.5837 -0.4626
   29MOL    H2019116   5.741   1.313   5.221 -0.7901  0.4577  0.0451
   29MOL    H2119117   5.933   1.507   5.104  0.9743 -3.2320 -0.5077
   29MOL    H2219118   5.788   1.550   5.201 -0.1607  1.5194 -1.1386
   29MOL    H2319119   5.659   1.410   5.021 -0.2158  0.2139  0.0948
   29MOL    H2419120   5.812   1.401   4.935 -1.5170 -3.0806  0.7588
   29MOL    H2519121   5.657   1.662   4.988  1.4487  0.2150  1.4843
   29MOL    H2619122   5.799   1.651   4.884 -0.0578  0.4275  0.6279
   29MOL    H2719123   5.530   1.521   4.849  1.3234 -0.0252  0.9860
   29MOL    H2819124   5.676   1.494   4.743  2.9306  1.9077  0.0651
   29MOL    H2919125   5.525   1.768   4.768  0.5413  0.6163  0.5328
   29MOL    H3019126   5.653   1.723   4.654 -2.1064  1.4801 -1.2872
   29MOL    H3119127   5.393   1.579   4.668  2.5098 -2.0974  1.5196
   29MOL    H3219128   5.526   1.542   4.554  0.9009  0.6284 -0.9423
   29MOL    H3319129   5.519   1.760   4.462 -1.1332 -0.0734 -2.2406
   29MOL    H3419130   5.402   1.824   4.565  0.9384  0.1533  1.3443
   29MOL    H3519131   6.168   1.288   5.443 -0.5453  0.4721  0.2062
   29MOL    N3619132   5.299   1.749   4.306  0.1594 -0.0633 -0.1384
   29MOL    C3719133   5.196   1.709   4.212 -0.1554 -0.1808  0.0207
   29MOL    C3819134   5.174   1.809   4.099  0.8374  0.1410  0.4013
   29MOL    C3919135   5.060   1.767   4.004  0.6206  0.1661 -0.4193
   29MOL    C4019136   5.038   1.856   3.886 -0.0561  0.1226  0.0008
   29MOL    C4119137   4.926   1.955   3.916 -0.3485 -0.8278 -0.1489
   29MOL    C4219138   4.913   2.062   3.795  0.0627  1.2982 -0.2683
   29MOL    C4319139   4.789   2.158   3.815  0.5967 -0.1172 -0.5796
   29MOL    C4419140   4.786   2.236   3.944  0.2212  0.6594 -0.1919
   29MOL    C4519141   4.901   2.339   3.959  0.2285 -0.3254 -0.2177
   29MOL    C4619142   4.870   2.460   4.052  0.0551 -0.1822  0.0813
   29MOL    C4719143   4.841   2.425   4.201  0.1398  0.4253 -0.2315
   29MOL    O4819144   4.821   2.309   4.236  0.5109 -0.2051  0.6177
   29MOL    H4919145   5.347   1.837   4.291  0.4434 -0.6637 -3.0951
   29MOL    H5019146   5.227   1.611   4.175 -0.8037 -0.0974 -0.7429
   29MOL    H5119147   5.102   1.691   4.266  0.2139  3.4149  1.9852
   29MOL    H5219148   5.274   1.808   4.054  0.3380  2.5762 -0.8323
   29MOL    H5319149   5.142   1.901   4.148 -1.0753 -1.4481  2.2491
   29MOL    H5419150   5.093   1.669   3.971  3.6937  0.9176  0.3247
   29MOL    H5519151   4.969   1.738   4.058 -0.4375  2.3493 -0.9609
   29MOL    H5619152   5.005   1.801   3.799  0.7002 -0.0149 -0.2054
   29MOL    H5719153   5.133   1.906   3.869 -0.0430 -0.0347 -0.3839
   29MOL    H5819154   4.951   2.006   4.009 -0.0957  0.6576 -1.0058
   29MOL    H5919155   4.831   1.906   3.933  0.5461 -2.8290 -0.7338
   29MOL    H6019156   5.009   2.114   3.792  1.8011 -1.7350 -0.0730
   29MOL    H6119157   4.904   2.014   3.698 -0.0373  3.1825 -1.2016
   29MOL    H6219158   4.703   2.091   3.815  2.0193 -1.9966 -0.3439
   29MOL    H6319159   4.773   2.220   3.727  1.5130 -1.7308 -1.9215
   29MOL    H6419160   4.687   2.267   3.976 -0.6565 -2.2708  0.0366
   29MOL    H6519161   4.812   2.169   4.026  0.2123  1.2817  0.3262
   29MOL    H6619162   4.911   2.380   3.858 -2.3024  0.0112 -0.3689
   29MOL    H6719163   4.996   2.295   3.989  0.5542  0.0316 -0.7167
   29MOL    H6819164   4.779   2.500   4.009  0.3166  1.7018  1.2384
   29MOL    H6919165   4.952   2.532   4.051  0.0311 -0.1620 -1.8396
   29MOL    N7019166   4.830   2.533   4.279 -0.6172 -0.3108  0.1809
   29MOL    C7119167   4.784   2.530   4.422 -0.0853  0.2109  0.3807
   29MOL    C7219168   4.641   2.506   4.437 -0.0269  0.4748  0.3703
   29MOL    C7319169   4.583   2.480   4.576 -0.0222  0.3383 -0.4582
   29MOL    C7419170   4.435   2.462   4.590  0.2750  0.5264  0.2104
   29MOL    C7519171   4.357   2.592   4.550 -0.2859  0.0846  0.1271
   29MOL    C7619172   4.222   2.619   4.617 -0.0488 -0.0455 -0.0106
   29MOL    C7719173   4.114   2.532   4.556 -0.5913 -0.4548 -0.0221
   29MOL    C7819174   3.973   2.558   4.619  0.1917 -0.0967  0.1406
   29MOL    C7919175   3.901   2.682   4.572 -0.0273 -0.1131  0.1597
   29MOL    C8019176   3.749   2.679   4.618 -0.1922  0.1603  0.7403
   29MOL    C8119177   3.671   2.609   4.506  0.2871  0.1274 -0.6203
   29MOL    O8219178   3.667   2.487   4.498 -0.2663  0.2508  0.2757
   29MOL    H8319179   4.845   2.625   4.240  2.5200 -0.8137  0.0373
   29MOL    H8419180   4.838   2.450   4.472  1.8922  0.6064 -1.0533
   29MOL    H8519181   4.818   2.615   4.482 -1.3169  0.7368  0.3556
   29MOL    H8619182   4.624   2.409   4.390  1.5995 -1.4261  3.5405
   29MOL    H8719183   4.582   2.586   4.392 -1.1105  0.6081  1.9903
   29MOL    H8819184   4.635   2.391   4.611 -1.6595  0.0676  1.3480
   29MOL    H8919185   4.614   2.554   4.649  3.1152 -0.3602 -1.0085
   29MOL    H9019186   4.400   2.449   4.693  1.0777  2.8521  0.8164
   29MOL    H9119187   4.396   2.378   4.533  1.5872 -1.2645  1.8826
   29MOL    H9219188   4.347   2.591   4.442  0.4114 -0.5087  0.0622
   29MOL    H9319189   4.423   2.678   4.566 -0.4415  0.2409 -0.0796
   29MOL    H9419190   4.231   2.601   4.724  1.5553  1.0739  0.0563
   29MOL    H9519191   4.200   2.725   4.608  0.4856 -0.0458 -1.5628
   29MOL    H9619192   4.145   2.430   4.580  0.1384 -0.2776 -0.1940
   29MOL    H9719193   4.105   2.545   4.448 -2.6894 -1.1849  0.0465
   29MOL    H9819194   3.912   2.474   4.583  2.3768 -0.7207 -2.2724
   29MOL    H9919195   3.983   2.554   4.727 -0.4326 -2.3611  0.1500
   29MOL   H10019196   3.903   2.693   4.464  0.4371  0.5916  0.2376
   29MOL   H10119197   3.951   2.768   4.616  1.3479  1.5838 -4.4334
   29MOL   H10219198   3.702   2.776   4.637 -1.0693 -0.1113 -0.0669
   29MOL   H10319199   3.733   2.638   4.718 -2.5837 -3.1862 -0.9197
   29MOL   N10419200   3.613   2.685   4.414  0.2885 -0.2527 -0.2193
   29MOL   C10519201   3.572   2.631   4.288  0.1004  0.2040  0.4054
   29MOL   C10619202   3.685   2.574   4.197 -0.1907 -0.3003  0.9357
   29MOL   C10719203   3.648   2.547   4.052  0.0722  0.2168 -0.5516
   29MOL   C10819204   3.773   2.520   3.970  0.0847  0.8564  0.5819
   29MOL   C10919205   3.876   2.630   3.944  0.0896 -0.1926  0.9951
   29MOL   C11019206   4.002   2.566   3.880  1.2725  0.4935  0.0040
   29MOL   C11119207   4.111   2.673   3.834  0.3771 -0.0432 -0.5601
   29MOL   C11219208   4.088   2.731   3.699 -0.3869  0.3463  0.5412
   29MOL   C11319209   4.090   2.630   3.584 -0.5893  0.6190  0.3883
   29MOL   C11419210   4.125   2.693   3.443  0.4787  0.3655 -0.1356
   29MOL   C11519211   4.275   2.712   3.432  0.8156 -0.3141 -0.9131
   29MOL   O11619212   4.347   2.618   3.444  0.8188 -0.0655 -0.8501
   29MOL   H11719213   3.623   2.786   4.416  0.7924 -0.3152  0.7749
   29MOL   H11819214   3.483   2.569   4.302 -0.1401  0.1191 -1.3991
   29MOL   H11919215   3.543   2.725   4.241  0.5169 -0.3710 -1.0050
   29MOL   H12019216   3.729   2.487   4.245  1.0302  0.5372  1.3372
   29MOL   H12119217   3.762   2.650   4.204 -0.1226 -0.1096 -1.2797
   29MOL   H12219218   3.577   2.465   4.050 -0.6548  0.8257  0.0942
   29MOL   H12319219   3.600   2.638   4.017  0.0496  0.6223  0.5174
   29MOL   H12419220   3.740   2.486   3.871 -1.6036  2.4069  0.5843
   29MOL   H12519221   3.820   2.427   4.002  3.1636  2.8079  1.8668
   29MOL   H12619222   3.897   2.693   4.031 -0.8994 -0.3172  1.3297
   29MOL   H12719223   3.833   2.703   3.876  1.6047  0.0747  0.3157
   29MOL   H12819224   4.054   2.485   3.930 -1.2761 -1.7718 -0.8784
   29MOL   H12919225   3.958   2.516   3.794  0.7673  1.9801 -0.6279
   29MOL   H13019226   4.213   2.636   3.838  0.4634  0.1974 -0.5516
   29MOL   H13119227   4.108   2.755   3.906  0.4238 -0.9531  0.4986
   29MOL   H13219228   3.995   2.787   3.699  1.3392  3.3541 -1.8451
   29MOL   H13319229   4.165   2.805   3.677  0.5296 -0.0430  2.3301
   29MOL   H13419230   3.998   2.572   3.580 -0.7990  0.7354  2.9767
   29MOL   H13519231   4.171   2.560   3.606  0.7312  1.4930 -1.4894
   29MOL   H13619232   4.067   2.778   3.406 -1.1656 -0.1229  1.2639
   29MOL   H13719233   4.099   2.627   3.360 -2.0238  1.2940 -0.1200
   29MOL   N13819234   4.313   2.837   3.414  0.3081  0.7879 -0.5705
   29MOL   C13919235   4.454   2.887   3.430  0.1629 -0.0708  0.4742
   29MOL   C14019236   4.470   2.981   3.551 -0.1139  0.2276 -0.6613
   29MOL   C14119237   4.614   3.021   3.569  0.6162  0.2631 -0.5031
   29MOL   C14219238   4.651   3.132   3.672 -0.4266 -0.2988  0.3558
   29MOL   C14319239   4.652   3.074   3.824 -0.9785 -0.4962  0.7716
   29MOL   C14419240   4.680   3.185   3.930  0.4047 -0.2024 -0.0991
   29MOL   C14519241   4.564   3.279   3.958 -0.4273  0.4356  0.1265
   29MOL   C14619242   4.441   3.203   3.998 -0.3183 -0.2801  0.4232
   29MOL   C14719243   4.321   3.296   4.025  0.0593 -0.7383 -0.1704
   29MOL   C14819244   4.322   3.372   4.158  0.5078 -0.0217  0.4435
   29MOL   C14919245   4.217   3.483   4.175 -0.1836  0.3103 -0.0923
   29MOL   O15019246   4.100   3.454   4.151  0.2233 -0.2963  0.5938
   29MOL   H15119247   4.233   2.898   3.400 -1.0850 -0.9395 -0.3452
   29MOL   H15219248   4.536   2.816   3.424 -0.8060 -1.1328 -0.2837
   29MOL   H15319249   4.477   2.945   3.341  0.9526 -0.8421  0.1723
   29MOL   H15419250   4.425   2.933   3.638 -0.3653  0.1759 -0.8196
   29MOL   H15519251   4.415   3.073   3.536 -0.4501  0.5395  2.2025
   29MOL   H15619252   4.673   2.933   3.593  2.6304  1.3652 -1.2884
   29MOL   H15719253   4.659   3.051   3.474 -3.8807  2.1610 -2.1399
   29MOL   H15819254   4.575   3.209   3.663 -0.1031 -0.2389 -2.3752
   29MOL   H15919255   4.747   3.181   3.657 -1.5295  1.9985  0.5794
   29MOL   H16019256   4.734   3.002   3.823  0.3763  1.0414 -0.4876
   29MOL   H16119257   4.561   3.019   3.849 -0.3154 -0.9205  2.2937
   29MOL   H16219258   4.686   3.126   4.022  0.6237 -1.2719 -0.7919
   29MOL   H16319259   4.774   3.239   3.913  0.7091 -1.0959 -1.2734
   29MOL   H16419260   4.553   3.342   3.869  0.7367 -1.6157 -1.5192
   29MOL   H16519261   4.598   3.337   4.044  1.0554 -0.9297  0.4784
   29MOL   H16619262   4.410   3.139   3.915 -0.9073  0.1488  0.3124
   29MOL   H16719263   4.454   3.137   4.084  1.0322 -1.7534 -0.8491
   29MOL   H16819264   4.232   3.234   4.011  0.9982 -2.7130  2.1187
   29MOL   H16919265   4.311   3.367   3.943  0.2843 -0.2519  0.2209
   29MOL   H17019266   4.423   3.410   4.177  1.4078 -0.6553 -2.8161
   29MOL   H17119267   4.297   3.303   4.239  0.6474  1.3517  1.6680
   29MOL   N17219268   4.253   3.609   4.213 -0.1694  0.2544 -0.6521
   29MOL   C17319269   4.166   3.725   4.215  0.2518 -0.3863 -0.0943
   29MOL   C17419270   4.161   3.791   4.074  0.3815  0.0564  0.0204
   29MOL   C17519271   4.042   3.888   4.068 -0.1310 -0.0828  0.3273
   29MOL   C17619272   4.027   3.962   3.939 -0.0787  0.5276 -0.3429
   29MOL   C17719273   3.919   4.063   3.941 -0.3350 -0.5346  0.3244
   29MOL   C17819274   3.918   4.131   3.801  0.0986 -0.0277 -0.2428
   29MOL   C17919275   3.876   4.042   3.681 -0.0015 -0.2341 -0.1205
   29MOL   C18019276   3.729   4.009   3.663 -0.0567 -0.0994 -0.4667
   29MOL   C18119277   3.693   3.927   3.544  0.4122  0.2797  0.8170
   29MOL   C18219278   3.547   3.931   3.499 -0.9545 -0.1010  0.8427
   29MOL   C18319279   3.520   3.897   3.347 -0.2602  0.2267 -0.1359
   29MOL   O18419280   3.612   3.862   3.269  0.7944  0.1111  0.4672
   29MOL   H18519281   4.350   3.635   4.211  0.0732 -0.5254  0.5893
   29MOL   H18619282   4.064   3.707   4.249  0.4643  0.8654  1.2546
   29MOL   H18719283   4.211   3.791   4.288  0.7520 -1.2483  0.3796
   29MOL   H18819284   4.156   3.715   3.996 -1.2961 -0.5892  0.7126
   29MOL   H18919285   4.250   3.849   4.054 -0.1754  0.8273 -0.2413
   29MOL   H19019286   3.954   3.827   4.086  0.1324 -1.6229 -3.2231
   29MOL   H19119287   4.048   3.951   4.157 -2.2841  0.9864 -0.2439
   29MOL   H19219288   4.016   3.902   3.850  1.0202 -0.3887  0.1213
   29MOL   H19319289   4.120   4.017   3.921  1.5335 -1.8307  0.4769
   29MOL   H19419290   3.951   4.145   4.005  0.2769 -1.4939  1.2625
   29MOL   H19519291   3.822   4.024   3.972 -0.0473  0.6164  2.7492
   29MOL   H19619292   3.844   4.211   3.801 -1.6463 -1.5734 -2.4257
   29MOL   H19719293   4.015   4.173   3.777  0.8234 -0.4676  1.8481
   29MOL   H19819294   3.930   3.948   3.666  0.0500 -0.5708  2.0608
   29MOL   H19919295   3.912   4.102   3.597 -0.4514  0.3893  0.1263
   29MOL   H20019296   3.690   3.971   3.756  1.6354  2.0260  1.1771
   29MOL   H20119297   3.667   4.098   3.651 -0.8250 -0.8236 -2.0124
   29MOL   H20219298   3.719   3.823   3.564 -2.2215 -0.1848  1.9316
   29MOL   H20319299   3.750   3.961   3.457 -2.6592  2.2127 -0.5039
   29MOL   H20419300   3.504   4.031   3.501 -0.4589  0.1657 -0.7754
   29MOL   H20519301   3.480   3.870   3.559 -0.8298  0.6657  1.7732
   29MOL   N20619302   3.398   3.919   3.303  0.3055  0.7859  0.0630
   29MOL   C20719303   3.347   3.895   3.168  0.4829 -0.4445 -0.2551
   29MOL   C20819304   3.199   3.936   3.160  0.4321  0.1278 -0.4106
   29MOL   C20919305   3.135   3.937   3.021  0.3520 -0.1713  0.2259
   29MOL   C21019306   3.000   4.009   3.018  0.7722 -0.4602 -0.0974
   29MOL   C21119307   2.943   4.025   2.871  0.4581  0.0564  0.3324
   29MOL   C21219308   2.914   3.893   2.789 -0.0751  0.0532 -0.5088
   29MOL   C21319309   2.799   3.805   2.850 -0.1611 -0.1013  0.1853
   29MOL   C21419310   2.732   3.686   2.774 -0.3859  0.5096 -0.6289
   29MOL   C21519311   2.832   3.569   2.748 -0.3747  0.0708 -0.0176
   29MOL   C21619312   2.767   3.450   2.683 -0.2935 -0.5220 -0.2039
   29MOL   C21719313   2.687   3.363   2.781  0.2878  0.1127  0.8097
   29MOL   O21819314   2.746   3.283   2.848  0.6784 -0.0423 -0.5418
   29MOL   H21919315   3.326   3.954   3.364 -1.3355  0.1726 -1.4915
   29MOL   H22019316   3.368   3.791   3.143  2.5683 -0.3259  0.9132
   29MOL   H22119317   3.403   3.954   3.096 -0.7233  1.9291  0.6866
   29MOL   H22219318   3.190   4.042   3.186 -2.0682  0.4596 -2.3899
   29MOL   H22319319   3.141   3.874   3.228 -0.1686 -0.3153 -1.3129
   29MOL   H22419320   3.204   3.978   2.947 -0.5554  0.0501 -0.5111
   29MOL   H22519321   3.120   3.833   2.989  0.7509 -0.6081  1.4304
   29MOL   H22619322   3.020   4.107   3.061 -0.9722  0.2749 -0.9140
   29MOL   H22719323   2.930   3.977   3.095  0.6754 -1.0591 -0.4319
   29MOL   H22819324   3.009   4.090   2.815 -0.7252  2.5408  1.7033
   29MOL   H22919325   2.849   4.080   2.875 -1.2690 -2.7823  0.8628
   29MOL   H23019326   2.880   3.918   2.688 -0.8896  0.6560 -0.0929
   29MOL   H23119327   3.005   3.835   2.771  1.1518  1.3653  1.2891
   29MOL   H23219328   2.713   3.872   2.864  0.4197  0.8369 -0.6415
   29MOL   H23319329   2.823   3.757   2.944  0.1139 -0.2469  0.0405
   29MOL   H23419330   2.649   3.647   2.832 -0.5670  0.5181 -0.8831
   29MOL   H23519331   2.692   3.731   2.683 -0.5005  0.7860 -0.4424
   29MOL   H23619332   2.885   3.537   2.838 -0.9851 -1.7011 -0.2783
   29MOL   H23719333   2.896   3.618   2.675 -0.2991  1.4488  0.9493
   29MOL   H23819334   2.848   3.392   2.637  0.0268 -0.5201  0.3596
   29MOL   H23919335   2.710   3.486   2.597 -2.2457 -1.1809  0.7853
   29MOL   N24019336   2.556   3.372   2.775  0.0872 -0.4883 -0.5637
   29MOL   C24119337   2.470   3.311   2.866  0.3980  0.4055 -0.0461
   29MOL   C24219338   2.368   3.217   2.797 -0.0183  0.3195  0.1630
   29MOL   C24319339   2.421   3.083   2.745  0.2237  0.2685 -0.1016
   29MOL   C24419340   2.310   3.003   2.679 -0.2312 -0.1904 -0.0191
   29MOL   C24519341   2.349   2.855   2.660  0.5121 -0.1868  0.2183
   29MOL   C24619342   2.225   2.784   2.610  0.1850  0.2793  0.2435
   29MOL   C24719343   2.261   2.639   2.572 -0.3266  0.2605  0.7135
   29MOL   C24819344   2.133   2.564   2.532  0.3106  0.2205 -0.0470
   29MOL   C24919345   2.152   2.422   2.471  0.2304  0.6875  0.0321
   29MOL   C25019346   2.032   2.349   2.402  0.1143 -0.1678  0.6782
   29MOL   C25119347   2.083   2.221   2.330 -0.2653  0.0702  0.0440
   29MOL   O25219348   2.199   2.180   2.327 -0.5959  0.7006  0.3130
   29MOL   H25319349   2.519   3.453   2.728  0.2835  0.9912  1.7618
   29MOL   H25419350   2.415   3.395   2.908 -1.3189  1.4707 -4.2142
   29MOL   H25519351   2.519   3.252   2.944  0.0965  1.7278  1.1571
   29MOL   H25619352   2.324   3.275   2.716  0.9586  0.8725  0.0272
   29MOL   H25719353   2.288   3.215   2.871  1.6232  3.3944  2.1063
   29MOL   H25819354   2.514   3.090   2.689  0.9966 -2.4838  0.7575
   29MOL   H25919355   2.459   3.035   2.835  1.1955  2.7028  0.8331
   29MOL   H26019356   2.279   3.051   2.587  0.1869  0.2626  0.0729
   29MOL   H26119357   2.224   3.002   2.745 -2.0680 -2.0502 -2.3407
   29MOL   H26219358   2.392   2.813   2.751 -1.3144 -0.4069  0.9997
   29MOL   H26319359   2.439   2.849   2.599 -0.2863 -1.0630 -0.8857
   29MOL   H26419360   2.144   2.784   2.683  1.3911  1.1679  1.6143
   29MOL   H26519361   2.188   2.838   2.523 -1.2835 -0.4928  0.3652
   29MOL   H26619362   2.293   2.582   2.659 -2.2926 -0.9114  0.7075
   29MOL   H26719363   2.343   2.633   2.501 -2.2262 -1.0967 -1.4315
   29MOL   H26819364   2.056   2.564   2.610 -1.6189 -1.6950 -1.8910
   29MOL   H26919365   2.080   2.622   2.456  0.2164  1.8508  1.2472
   29MOL   H27019366   2.188   2.349   2.544  0.4367 -0.0411 -0.7738
   29MOL   H27119367   2.234   2.429   2.399  0.2748  0.0658  0.0160
   29MOL   H27219368   1.995   2.413   2.322  1.8064  1.9543  1.5327
   29MOL   H27319369   1.945   2.317   2.459 -0.6402 -0.9952 -0.9230
   29MOL   N27419370   1.987   2.170   2.249  0.4337 -0.4273 -0.0565
   29MOL   C27519371   1.999   2.082   2.136  0.6063  0.0453  0.0305
   29MOL   C27619372   1.908   2.123   2.021 -0.8566 -0.1717  0.8848
   29MOL   C27719373   1.931   2.034   1.894  0.5143  0.2950  0.3476
   29MOL   C27819374   1.866   2.088   1.766 -0.0455 -0.2638 -0.0485
   29MOL   C27919375   1.889   1.994   1.654  0.1829 -0.8082  0.3962
   29MOL   C28019376   1.828   2.033   1.515 -0.0114 -0.0618  0.3298
   29MOL   C28119377   1.903   2.143   1.444  0.0564 -1.1518  0.0286
   29MOL   C28219378   1.868   2.144   1.283  0.2974  0.6322 -1.0273
   29MOL   C28319379   1.923   2.271   1.214 -0.2663  0.0069 -0.2851
   29MOL   C28419380   1.817   2.381   1.191 -0.1480 -0.7459 -0.1801
   29MOL   C28519381   1.863   2.498   1.103 -0.7357 -0.3566  0.5407
   29MOL   O28619382   1.984   2.503   1.075  0.2980 -0.0652  0.4404
   29MOL   H28719383   1.894   2.205   2.269  0.9985 -0.0584  2.0282
   29MOL   H28819384   1.973   1.985   2.179 -0.2328  0.1680 -0.2127
   29MOL   H28919385   2.100   2.086   2.094  0.7955 -1.2576  0.3367
   29MOL   H29019386   1.928   2.228   2.001  2.3253 -0.7705  0.8008
   29MOL   H29119387   1.802   2.128   2.048 -1.1606 -0.6369 -0.1466
   29MOL   H29219388   2.040   2.039   1.890  0.5757  1.3783  2.4818
   29MOL   H29319389   1.895   1.933   1.911  0.1856  0.3902  0.2101
   29MOL   H29419390   1.907   2.188   1.747 -1.3226  0.7672  2.3937
   29MOL   H29519391   1.758   2.089   1.776 -0.2059  2.1258 -1.6797
   29MOL   H29619392   1.845   1.899   1.685  0.8371 -1.2503 -0.0239
   29MOL   H29719393   1.996   1.973   1.645  0.9888  3.5334 -1.4900
   29MOL   H29819394   1.826   1.944   1.453  1.1560  1.3048 -1.7430
   29MOL   H29919395   1.729   2.075   1.531  0.1076  1.2430 -2.0893
   29MOL   H30019396   2.010   2.122   1.456  1.1448  2.8452 -1.9870
   29MOL   H30119397   1.888   2.243   1.483  1.3556  0.1558 -2.6892
   29MOL   H30219398   1.919   2.060   1.236 -0.1519  0.4814 -1.2513
   29MOL   H30319399   1.760   2.138   1.269 -0.1962  1.0014  2.1268
   29MOL   H30419400   1.942   2.237   1.112  0.4468  1.8105 -0.7712
   29MOL   H30519401   2.014   2.318   1.250 -0.0412 -1.0069  0.4853
   29MOL   H30619402   1.785   2.429   1.283  0.5093  0.6763 -0.6690
   29MOL   H30719403   1.725   2.350   1.142 -0.9961  1.1720  0.1474
   29MOL   N30819404   1.773   2.593   1.073 -0.1891  0.2684 -0.1054
   29MOL   C30919405   1.804   2.714   1.008  0.5716 -0.4939  0.3078
   29MOL   C31019406   1.763   2.722   0.865  0.2508  0.4455  0.2598
   29MOL   C31119407   1.824   2.621   0.775  0.2927 -0.7150 -0.5808
   29MOL   C31219408   1.796   2.639   0.627 -0.3431 -0.3593  0.3783
   29MOL   C31319409   1.853   2.533   0.538  0.2539  0.1725  0.2045
   29MOL   C31419410   1.797   2.539   0.393 -0.4433 -0.3317  0.5149
   29MOL   C31519411   1.866   2.436   0.303  0.3956  0.7386 -0.3920
   29MOL   C31619412   1.777   2.401   0.179 -0.1139  0.2133 -0.3117
   29MOL   C31719413   1.793   2.268   0.102  0.7653  0.2065  0.0653
   29MOL   C31819414   1.725   2.274   7.678 -0.4040 -1.0347  0.2627
   29MOL   C31919415   1.577   2.294   7.689 -0.1423  0.6475  0.0247
   29MOL   O32019416   1.528   2.410   7.705  0.1460  0.4003  0.1273
   29MOL   H32119417   1.682   2.585   1.117  0.1551  1.1291  0.7843
   29MOL   H32219418   1.908   2.747   1.010  0.8061 -1.1293 -0.9587
   29MOL   H32319419   1.741   2.790   1.054  0.1658 -0.9090  0.4459
   29MOL   H32419420   1.776   2.816   0.811  0.1285  0.6821  0.6417
   29MOL   H32519421   1.655   2.708   0.860  0.3630 -0.4167  0.1569
   29MOL   H32619422   1.932   2.629   0.788  0.1384 -0.4766  0.6447
   29MOL   H32719423   1.800   2.518   0.802 -0.1577 -0.1701  1.1851
   29MOL   H32819424   1.841   2.735   0.602  0.0834 -0.8763 -0.8414
   29MOL   H32919425   1.688   2.647   0.611 -0.4196  2.2680  1.8626
   29MOL   H33019426   1.832   2.434   0.580  3.9324 -1.1363 -0.8202
   29MOL   H33119427   1.962   2.540   0.544  0.3531 -1.6166  0.8937
   29MOL   H33219428   1.690   2.524   0.402 -0.5522 -0.1058 -0.3607
   29MOL   H33319429   1.813   2.635   0.344 -0.2041  0.2736  1.7499
   29MOL   H33419430   1.888   2.347   0.361  2.8601  0.7450 -1.2619
   29MOL   H33519431   1.961   2.473   0.265  0.4771  0.6900 -0.2340
   29MOL   H33619432   1.673   2.409   0.212  0.5593  1.5688  1.5873
   29MOL   H33719433   1.785   2.486   0.112 -0.7626  0.5951  0.0839
   29MOL   H33819434   1.757   2.184   0.161 -2.4439  2.2390  1.1417
   29MOL   H33919435   1.898   2.256   0.076  0.4610 -2.3230 -0.1255
   29MOL   H34019436   1.750   2.180   7.629 -1.5623 -1.1409 -0.1381
   29MOL   H34119437   1.771   2.347   7.612 -0.0953 -1.4174  0.0538
   29MOL   N34219438   1.507   2.182   7.685  0.2164  0.2294  1.0168
   29MOL   C34319439   1.370   2.172   0.012  0.0323  0.2440  0.5049
   29MOL   C34419440   1.319   2.030   7.708  0.0919  0.1077 -0.2582
   29MOL   C34519441   1.173   2.022   0.006 -0.0981  0.1758 -0.1566
   29MOL   C34619442   1.127   1.876   0.002  0.0204  0.2830  0.4642
   29MOL   C34719443   1.146   1.807   0.138  0.3715 -0.5423 -0.0759
   29MOL   C34819444   1.064   1.688   0.171 -0.4264  0.2600  0.1158
   29MOL   C34919445   1.073   1.648   0.315 -0.0057  0.7024 -0.6442
   29MOL   C35019446   1.216   1.620   0.368  0.0887  0.3169 -0.2807
   29MOL   C35119447   1.216   1.525   0.487 -0.2908  0.2680 -0.0337
   29MOL   C35219448   1.359   1.540   0.551  0.5149  0.5355 -0.3339
   29MOL   C35319449   1.409   1.420   0.634 -0.0754  0.5259  0.0621
   29MOL   O35419450   1.339   1.320   0.653 -0.5960 -0.2616  0.0407
   29MOL   H35519451   1.554   2.094   7.668 -0.3995 -0.4057  2.4285
   29MOL   H35619452   1.363   2.207   0.115 -3.8249 -0.7067  0.6249
   29MOL   H35719453   1.309   2.247   7.679 -0.3772 -1.5474 -1.7857
   29MOL   H35819454   1.366   1.963   0.064 -1.2115 -1.8945 -1.2105
   29MOL   H35919455   1.349   1.995   7.609 -0.4470 -1.9194  0.2678
   29MOL   H36019456   1.136   2.056   0.103 -2.9240 -1.4010 -0.6062
   29MOL   H36119457   1.121   2.078   7.644  0.2806  0.7692  0.0126
   29MOL   H36219458   1.185   1.820   7.644  1.1434 -1.0789  2.3319
   29MOL   H36319459   1.022   1.868   7.689  0.3171  0.1377 -0.5822
   29MOL   H36419460   1.138   1.870   0.226 -0.6994 -0.6622 -0.0871
   29MOL   H36519461   1.250   1.771   0.140  0.0370 -1.5505 -0.3535
   29MOL   H36619462   0.960   1.716   0.155 -0.7997 -1.1285  0.0825
   29MOL   H36719463   1.097   1.612   0.100  1.7876  0.3585  0.9854
   29MOL   H36819464   1.015   1.556   0.318 -1.2081  1.4697  0.3243
   29MOL   H36919465   1.032   1.726   0.379  3.5334  0.8634  1.5598
   29MOL   H37019466   1.282   1.576   0.293  0.7395 -0.6325  0.8345
   29MOL   H37119467   1.278   1.707   0.393  2.0278 -1.5443  1.6234
   29MOL   H37219468   1.196   1.420   0.464  0.9767 -0.1173  0.5797
   29MOL   H37319469   1.136   1.548   0.558 -0.1543  1.5777 -0.2876
   29MOL   H37419470   1.341   1.622   0.620  0.7594  0.8445 -0.6323
   29MOL   H37519471   1.435   1.556   0.474 -1.3843 -0.9143 -2.5858
   29MOL   N37619472   1.534   1.433   0.684 -0.2704  0.6965  0.2492
   29MOL   C37719473   1.595   1.329   0.772 -0.0934 -0.4650 -0.0209
   29MOL   C37819474   1.716   1.385   0.836  0.9588  0.2762 -0.7003
   29MOL   C37919475   1.803   1.281   0.894  0.0828  0.4909 -0.1113
   29MOL   C38019476   1.915   1.331   0.985  0.2541 -0.1923  0.4664
   29MOL   C38119477   2.006   1.214   1.024  1.5404  0.1477  0.4487
   29MOL   C38219478   2.098   1.238   1.144  0.1548 -0.2661  0.8167
   29MOL   C38319479   2.171   1.106   1.180  0.3343 -0.4431 -0.3443
   29MOL   C38419480   2.247   1.126   1.315 -0.4964 -0.0678  0.9766
   29MOL   C38519481   2.326   1.006   1.369  0.2966 -0.1420  0.4564
   29MOL   C38619482   2.378   1.031   1.511 -0.6424 -0.0548 -0.7186
   29MOL   C38719483   2.448   0.910   1.572  0.0596  0.6909 -0.1993
   29MOL   O38819484   2.505   0.833   1.502  0.0023 -0.3761 -0.1038
   29MOL   H38919485   1.586   1.514   0.654  0.5334  0.4328  0.9143
   29MOL   H39019486   1.526   1.287   0.846  0.5572 -2.2121 -0.4060
   29MOL   H39119487   1.617   1.245   0.707  0.4480  1.1498 -1.9657
   29MOL   H39219488   1.677   1.453   0.913  1.0478  0.2832 -0.6615
   29MOL   H39319489   1.771   1.434   0.756  1.2909  0.5878 -0.2883
   29MOL   H39419490   1.744   1.211   0.953 -1.3535  2.0257  0.3105
   29MOL   H39519491   1.849   1.217   0.818 -0.5782 -1.3531  0.9850
   29MOL   H39619492   1.882   1.381   1.076  0.8658  3.0742 -1.0312
   29MOL   H39719493   1.979   1.408   0.944  1.3507 -2.1059 -1.5501
   29MOL   H39819494   2.065   1.189   0.936 -0.1531  1.8351 -1.2015
   29MOL   H39919495   1.949   1.122   1.037  1.0498  0.0618 -2.1273
   29MOL   H40019496   2.181   1.301   1.114 -0.4482 -0.2276 -0.8098
   29MOL   H40119497   2.045   1.282   1.229 -1.8844 -0.3930 -0.3631
   29MOL   H40219498   2.245   1.084   1.103  1.8825  0.4946  0.8593
   29MOL   H40319499   2.098   1.028   1.202 -1.0661  0.7341 -0.7135
   29MOL   H40419500   2.310   1.214   1.299 -0.8637 -0.3693 -2.6915
   29MOL   H40519501   2.184   1.149   1.401 -0.4995 -1.9934  1.5146
   29MOL   H40619502   2.402   0.991   1.293 -1.2364 -0.5629 -1.0456
   29MOL   H40719503   2.271   0.912   1.367  2.6152 -1.5130 -0.5314
   29MOL   H40819504   2.301   1.053   1.585  0.9085 -1.8640  1.5267
   29MOL   H40919505   2.452   1.110   1.517 -1.3862  0.6162 -0.2416
   29MOL   N41019506   2.438   0.894   1.703  0.6337 -0.2991 -0.1126
   29MOL   C41119507   2.515   0.799   1.788  0.2899  0.3099  0.9833
   29MOL   C41219508   2.536   0.839   1.929  0.4639  0.3168  0.3974
   29MOL   C41319509   2.613   0.970   1.951  0.8585  0.2899 -0.0131
   29MOL   C41419510   2.616   1.000   2.102  0.3428 -0.6668  0.5918
   29MOL   C41519511   2.486   1.060   2.162  0.2784  0.3043  0.4465
   29MOL   C41619512   2.496   1.079   2.318  0.4640  0.2025 -0.2220
   29MOL   C41719513   2.364   1.105   2.406  0.3086 -0.2469 -0.3646
   29MOL   C41819514   2.395   1.120   2.563  0.1875  0.1714  0.4606
   29MOL   C41919515   2.479   1.241   2.601 -0.6427 -0.1623  0.1710
   29MOL   C42019516   2.530   1.244   2.743 -0.4901 -0.5069 -0.2670
   29MOL   C42119517   2.416   1.266   2.835 -0.2894 -0.4179 -0.2927
   29MOL   O42219518   2.361   1.378   2.836 -0.4655  0.1676  0.1853
   29MOL   H42319519   2.370   0.942   1.761  2.3036 -0.7073  2.2464
   29MOL   H42419520   2.450   0.711   1.788 -2.2953  2.1412 -0.7744
   29MOL   H42519521   2.607   0.770   1.737  0.5697  0.5628  1.3442
   29MOL   H42619522   2.583   0.755   1.980 -1.4557  0.5071  2.5489
   29MOL   H42719523   2.440   0.834   1.980  1.0140  0.3213  1.4497
   29MOL   H42819524   2.716   0.952   1.921  0.8099  0.0464 -0.0305
   29MOL   H42919525   2.565   1.057   1.905 -2.0199 -0.9386  0.5514
   29MOL   H43019526   2.696   1.071   2.124 -0.7481  1.3963 -1.7775
   29MOL   H43119527   2.641   0.905   2.149 -1.2394 -1.0421  0.6969
   29MOL   H43219528   2.397   0.997   2.150  0.0901  0.5228  0.7038
   29MOL   H43319529   2.470   1.155   2.111 -2.4891 -0.4819 -0.2668
   29MOL   H43419530   2.540   0.985   2.351  0.1149  1.0074  2.6470
   29MOL   H43519531   2.577   1.149   2.338  2.2984 -1.2097 -2.3839
   29MOL   H43619532   2.293   1.022   2.411 -0.7886  0.5907 -1.7860
   29MOL   H43719533   2.307   1.194   2.379 -1.5890 -0.9941  0.9889
   29MOL   H43819534   2.300   1.132   2.615 -0.1785 -0.8463  0.0389
   29MOL   H43919535   2.438   1.032   2.611 -1.2684  0.1258  1.7075
   29MOL   H44019536   2.419   1.326   2.571 -3.6195 -2.4715 -0.6808
   29MOL   H44119537   2.570   1.238   2.541  0.4314  0.9725  1.7060
   29MOL   H44219538   2.604   1.321   2.760 -0.7205  0.5496 -3.6667
   29MOL   H44319539   2.575   1.149   2.774 -1.7305  0.3585  4.5220
   29MOL   N44419540   2.358   1.164   2.907 -0.2613  0.1203  0.0753
   29MOL   C44519541   2.223   1.171   2.973 -0.1494  0.0144  0.0967
   29MOL   C44619542   2.187   1.042   3.056 -0.1433 -0.0432  0.1997
   29MOL   C44719543   2.047   1.053   3.114 -0.6321  0.3675  0.3206
   29MOL   C44819544   2.001   0.917   3.171  0.1255  0.5714 -0.0747
   29MOL   C44919545   1.888   0.934   3.268 -0.0044  0.0530 -0.3675
   29MOL   C45019546   1.815   0.805   3.308  0.8916 -0.2671 -0.4372
   29MOL   C45119547   1.678   0.816   3.373 -0.3353 -0.1735  0.8574
   29MOL   C45219548   1.567   0.874   3.287  0.4151 -0.0428 -0.2851
   29MOL   C45319549   1.438   0.906   3.360  0.7119 -0.1077  0.5387
   29MOL   C45419550   1.320   0.922   3.258  0.8079  1.0610 -0.6520
   29MOL   C45519551   1.184   0.939   3.323  0.1485 -0.6369 -0.1234
   29MOL   O45619552   1.117   0.839   3.333 -0.2696  0.3633 -0.0430
   29MOL   H45719553   2.383   1.068   2.886 -2.7577 -0.1742 -1.8704
   29MOL   H45819554   2.216   1.253   3.045  0.5080 -0.1038  0.2923
   29MOL   H45919555   2.147   1.186   2.896 -0.5405 -0.3003  0.4171
   29MOL   H46019556   2.254   1.016   3.138  2.2153 -0.9081 -1.9261
   29MOL   H46119557   2.200   0.959   2.986  1.3699 -0.3243  0.8006
   29MOL   H46219558   2.055   1.136   3.184 -1.3090 -0.5501  1.5126
   29MOL   H46319559   1.983   1.089   3.033  2.6999  2.5074 -1.4569
   29MOL   H46419560   2.083   0.866   3.221 -1.6583 -2.7203 -0.3144
   29MOL   H46519561   1.973   0.844   3.095  0.2604  2.1014 -1.6335
   29MOL   H46619562   1.810   1.002   3.233 -0.8443  0.0726  1.5136
   29MOL   H46719563   1.927   0.979   3.359  2.2308 -2.1472 -0.1999
   29MOL   H46819564   1.792   0.751   3.216  0.2848  1.0022 -1.0345
   29MOL   H46919565   1.879   0.737   3.364 -0.4822  1.2284  3.0671
   29MOL   H47019566   1.701   0.871   3.464  1.1376  0.3541  0.1839
   29MOL   H47119567   1.647   0.716   3.401  0.9132 -0.5239  1.0005
   29MOL   H47219568   1.608   0.966   3.244  1.9339 -0.0039  1.1845
   29MOL   H47319569   1.555   0.806   3.203 -0.6364  0.9092 -0.9157
   29MOL   H47419570   1.455   1.001   3.411  2.1205  0.1408 -0.3624
   29MOL   H47519571   1.418   0.830   3.435 -2.3445 -0.9278 -1.0317
   29MOL   H47619572   1.311   0.832   3.198  3.3992 -0.6142  1.3808
   29MOL   H47719573   1.330   1.021   3.212 -2.9158  2.1423  0.6062
   29MOL   N47819574   1.131   1.059   3.347  0.5730  0.0215  0.1095
   29MOL   C47919575   0.997   1.084   3.400  0.0147 -0.4583  0.4115
   29MOL   C48019576   0.933   1.212   3.339 -0.0799 -0.2924 -0.1776
   29MOL   C48119577   0.942   1.214   3.183  0.3540  0.4203  0.0263
   29MOL   C48219578   0.860   1.112   3.100  0.1074 -0.1744 -0.4262
   29MOL   C48319579   0.894   1.113   2.952  0.4285 -0.4376  0.7520
   29MOL   C48419580   0.841   1.002   2.866  0.1604 -0.4267  0.5265
   29MOL   C48519581   0.810   1.037   2.717 -0.5056 -0.6189 -0.2593
   29MOL   C48619582   0.932   1.051   2.624  0.3578  0.2558 -0.2138
   29MOL   C48719583   1.034   0.938   2.621 -1.1581  0.1608  0.0422
   29MOL   C48819584   1.146   0.942   2.724  0.4250  0.4665  0.0486
   29MOL   C48919585   1.231   0.813   2.722 -0.3897 -0.1192 -0.0304
   29MOL   O49019586   1.201   0.716   2.653  0.4716  0.1909  0.5500
   29MOL   H49119587   1.196   1.134   3.332  0.3547 -0.3834 -3.1368
   29MOL   H49219588   0.930   1.003   3.372 -0.2829  0.5149 -1.8053
   29MOL   H49319589   0.994   1.086   3.509  0.8215  2.0234  0.4293
   29MOL   H49419590   0.979   1.295   3.392 -1.1470  0.2523 -0.0983
   29MOL   H49519591   0.827   1.213   3.364  0.0844  2.1359  0.5532
   29MOL   H49619592   0.909   1.314   3.156 -2.3371  0.0151  1.6973
   29MOL   H49719593   1.046   1.220   3.149 -0.5841  1.7039 -2.7680
   29MOL   H49819594   0.753   1.120   3.117 -0.0388 -0.0011 -1.3908
   29MOL   H49919595   0.886   1.011   3.133 -0.6059 -0.8019 -1.7521
   29MOL   H50019596   0.999   1.133   2.934  0.5021  0.1773  1.8393
   29MOL   H50119597   0.851   1.202   2.907 -0.4856 -1.0460  0.4072
   29MOL   H50219598   0.895   0.907   2.871 -1.1908 -1.1692  1.5596
   29MOL   H50319599   0.742   0.974   2.902  0.5100 -1.0925  0.9972
   29MOL   H50419600   0.760   1.134   2.708  0.9134 -0.1371 -3.8603
   29MOL   H50519601   0.742   0.960   2.680 -1.0529 -0.0170 -0.5317
   29MOL   H50619602   0.894   1.057   2.522 -1.2625 -2.6438  0.1473
   29MOL   H50719603   0.989   1.141   2.646 -1.6169  1.7498 -1.1114
   29MOL   H50819604   1.077   0.915   2.523 -2.2063  0.0095 -0.3859
   29MOL   H50919605   0.993   0.839   2.642 -0.2269  0.1177  1.7049
   29MOL   H51019606   1.125   0.969   2.828 -0.1748 -0.1680  0.0953
   29MOL   H51119607   1.203   1.031   2.695 -1.2553  1.4944 -0.1631
   29MOL   N51219608   1.342   0.823   2.792 -0.3559  0.4472  0.3209
   29MOL   C51319609   1.441   0.725   2.773 -1.0291 -0.0427  0.1057
   29MOL   C51419610   1.529   0.708   2.904  0.1217  0.5922  0.0377
   29MOL   C51519611   1.641   0.602   2.886  0.2855 -0.3423  0.2968
   29MOL   C51619612   1.767   0.661   2.819 -0.3259  0.0629  0.9058
   29MOL   C51719613   1.886   0.558   2.818 -0.7100 -0.5409  0.6190
   29MOL   C51819614   2.009   0.601   2.729  0.0834 -0.4846  0.2562
   29MOL   C51919615   2.117   0.491   2.727 -0.5516  0.2614  0.3049
   29MOL   C52019616   2.263   0.533   2.706  0.2878 -0.7012  0.1091
   29MOL   C52119617   2.307   0.656   2.782  0.1674  0.2451  0.3067
   29MOL   C52219618   2.462   0.678   2.783  0.0131  0.0425  0.4942
   29MOL   C52319619   2.501   0.802   2.856 -0.1825  0.4634 -0.4787
   29MOL   O52419620   2.438   0.909   2.849 -0.3798  0.0291  0.8318
   29MOL   H52519621   1.371   0.909   2.836  0.3868 -0.5159  1.7789
   29MOL   H52619622   1.401   0.632   2.732  2.3445 -1.3090 -0.4957
   29MOL   H52719623   1.504   0.777   2.700 -0.6170 -0.2568  0.3073
   29MOL   H52819624   1.460   0.683   2.985  2.4911  0.9994  2.2656
   29MOL   H52919625   1.582   0.796   2.939  1.9673 -1.1938  1.9444
   29MOL   H53019626   1.672   0.577   2.988 -2.0543  1.5055  1.4969
   29MOL   H53119627   1.617   0.514   2.826  1.8333  0.1464 -1.0884
   29MOL   H53219628   1.800   0.752   2.871 -1.4890  0.3647  1.1258
   29MOL   H53319629   1.738   0.687   2.717 -1.5150 -0.8623  1.0063
   29MOL   H53419630   1.844   0.471   2.767 -0.5762 -0.1577 -0.1544
   29MOL   H53519631   1.911   0.530   2.921 -0.3378 -0.0778  0.6562
   29MOL   H53619632   1.977   0.639   2.632  0.2212  1.2626  0.8679
   29MOL   H53719633   2.045   0.691   2.779  1.0272 -0.5213 -0.3572
   29MOL   H53819634   2.091   0.413   2.656 -0.6205  1.2629 -0.7947
   29MOL   H53919635   2.122   0.454   2.829 -0.2026 -0.2207  0.1095
   29MOL   H54019636   2.320   0.448   2.743 -1.4687 -2.3764 -0.9091
   29MOL   H54119637   2.286   0.542   2.600  1.4731 -2.0755  0.2444
   29MOL   H54219638   2.284   0.649   2.889  1.0823  0.8146  0.5482
   29MOL   H54319639   2.263   0.743   2.734 -2.0669  0.5684  2.8256
   29MOL   H54419640   2.476   0.683   2.675 -0.9958  1.3675  0.4133
   29MOL   H54519641   2.522   0.593   2.817 -1.3734 -1.8032 -1.5181
   29MOL   N54619642   2.616   0.790   2.934  0.0473  0.1042 -0.0573
   29MOL   C54719643   2.691   0.905   2.988  0.3621  0.2761 -0.5958
   29MOL   C54819644   2.728   0.867   3.139 -0.1029  0.3102 -0.2166
   29MOL   C54919645   2.807   0.976   3.207  0.2391 -0.6655 -0.1552
   29MOL   C55019646   2.735   1.124   3.203  0.2149  0.6289  0.0543
   29MOL   C55119647   2.589   1.126   3.264  0.2413 -0.3927 -0.5562
   29MOL   C55219648   2.525   1.265   3.248  0.8906  0.8516  0.6586
   29MOL   C55319649   2.389   1.284   3.312  0.6795 -0.3947 -0.1083
   29MOL   C55419650   2.379   1.281   3.461  0.4916  0.2631  0.9151
   29MOL   C55519651   2.230   1.280   3.509  0.5729 -0.4428  0.1367
   29MOL   C55619652   2.201   1.181   3.627 -0.4301  0.1876  0.1737
   29MOL   C55719653   2.203   1.033   3.591 -0.3485 -0.5212  0.5430
   29MOL   O55819654   2.253   1.006   3.483 -0.0936 -0.1201  0.2124
   29MOL   H55919655   2.663   0.702   2.950  0.5024  0.5563  1.1608
   29MOL   H56019656   2.776   0.942   2.931 -0.8591  1.3318 -1.7716
   29MOL   H56119657   2.631   0.996   3.000 -0.6848 -0.6921  1.9100
   29MOL   H56219658   2.792   0.779   3.129 -0.0785  0.4147 -1.0823
   29MOL   H56319659   2.635   0.841   3.189 -0.2807  1.9182  0.3053
   29MOL   H56419660   2.836   0.940   3.306 -0.7746 -1.7557 -0.2479
   29MOL   H56519661   2.906   0.978   3.161 -0.5465 -1.0830 -1.8926
   29MOL   H56619662   2.732   1.166   3.103 -2.1039  1.6483  0.5149
   29MOL   H56719663   2.800   1.192   3.258  1.8681 -1.7063  1.0961
   29MOL   H56819664   2.602   1.097   3.368 -1.4440  1.3422  0.1643
   29MOL   H56919665   2.526   1.056   3.208  0.3045  0.7412 -2.0930
   29MOL   H57019666   2.593   1.344   3.281 -1.4862  3.4998 -0.5795
   29MOL   H57119667   2.522   1.281   3.140  1.5655 -2.4757  0.0937
   29MOL   H57219668   2.320   1.206   3.279  0.9876 -0.2627 -1.0646
   29MOL   H57319669   2.342   1.372   3.268  0.4737 -2.3965 -4.1041
   29MOL   H57419670   2.440   1.202   3.504  0.3505 -0.1357  0.3955
   29MOL   H57519671   2.433   1.369   3.497  1.2646  0.6827 -1.1637
   29MOL   H57619672   2.160   1.255   3.429  0.4898  0.8220 -0.1998
   29MOL   H57719673   2.194   1.376   3.547  1.2640  0.3537 -1.1636
   29MOL   H57819674   2.102   1.210   3.663 -1.0809 -1.8047  0.0059
   29MOL   H57919675   2.278   1.201   3.702  2.4995 -0.0858 -2.6661
   29MOL   N58019676   2.160   0.945   3.679 -0.8686  0.0819  0.5810
   29MOL   C58119677   2.184   0.802   3.663 -0.4162  0.5434 -0.5416
   29MOL   C58219678   2.046   0.740   3.633 -0.2896 -0.1718 -0.6493
   29MOL   C58319679   2.052   0.588   3.629  0.7818 -0.3011 -0.6489
   29MOL   C58419680   1.994   0.523   3.755 -0.2112  0.6043  0.0247
   29MOL   C58519681   1.998   0.369   3.745 -0.6156 -0.1498  0.0233
   29MOL   C58619682   1.934   0.304   3.866 -0.6072  0.4185  0.4107
   29MOL   C58719683   1.940   0.155   3.847 -0.5990  0.0243 -0.3134
   29MOL   C58819684   1.867   0.084   3.953  0.3071 -0.0845  0.0072
   29MOL   C58919685   1.957   0.058   4.074 -0.6574  0.3587 -0.2294
   29MOL   C59019686   1.869   7.698   4.174  0.2276  0.5580 -0.9349
   29MOL   C59119687   1.937   7.692   4.311  1.0246  0.6903 -0.4395
   29MOL   O59219688   1.926   0.073   4.386  0.6775 -0.6264  0.0694
   29MOL   H59319689   2.109   0.968   3.763  0.5080  2.1514  0.8906
   29MOL   H59419690   2.254   0.787   3.581 -0.5215  3.2968 -1.1874
   29MOL   H59519691   2.218   0.774   3.763 -3.0823 -1.2213 -0.0814
   29MOL   H59619692   2.020   0.788   3.539 -1.7378  1.4529  0.5494
   29MOL   H59719693   1.966   0.778   3.696  0.9809  1.8992 -0.2236
   29MOL   H59819694   2.003   0.567   3.533  0.0542  3.6765 -1.2780
   29MOL   H59919695   2.154   0.552   3.623  1.4095  1.4562 -0.9613
   29MOL   H60019696   1.899   0.570   3.779  0.3264 -0.4382  4.5530
   29MOL   H60119697   2.062   0.557   3.832 -1.4941  0.3685  1.2764
   29MOL   H60219698   2.099   0.331   3.727  0.2998  2.1590  0.1667
   29MOL   H60319699   1.933   0.349   3.660  2.8725 -0.7788 -2.6273
   29MOL   H60419700   1.980   0.332   3.961  0.5085 -0.5945  0.1743
   29MOL   H60519701   1.829   0.335   3.871 -0.6647  0.4726 -1.1692
   29MOL   H60619702   2.042   0.117   3.846  0.3855  2.5179  0.7110
   29MOL   H60719703   1.889   0.115   3.759 -1.5027  1.8987 -0.6759
   29MOL   H60819704   1.783   0.149   3.975  0.2366 -0.1052 -0.1993
   29MOL   H60919705   1.828   7.702   3.923  1.1101 -0.2697 -0.4395
   29MOL   H61019706   2.006   0.144   4.118  0.2567 -0.1770 -0.1895
   29MOL   H61119707   2.040   7.711   4.041  0.8881  0.2246  3.6966
   29MOL   H61219708   1.852   7.597   4.138 -0.8650  0.1358  0.7093
   29MOL   H61319709   1.784   0.050   4.179  0.1640  0.3995  0.2821
   29MOL   N61419710   2.005   7.580   4.336  0.1740 -0.0771  0.0512
   29MOL   C61519711   2.046   7.535   4.471  0.9818 -0.1525 -0.1202
   29MOL   C61619712   2.065   7.383   4.486  0.9373 -0.2780 -0.2515
   29MOL   C61719713   2.087   7.348   4.632 -0.8234 -0.1074  0.5148
   29MOL   C61819714   2.206   7.248   4.649 -1.0790  0.4641  0.2639
   29MOL   C61919715   2.225   7.216   4.795 -0.2927 -0.5278 -0.0984
   29MOL   C62019716   2.330   7.109   4.821 -0.3914 -0.0630 -0.2219
   29MOL   C62119717   2.360   7.093   4.970  0.0164  0.3027  0.2305
   29MOL   C62219718   2.452   7.202   5.020  0.1053  0.1452 -0.4835
   29MOL   C62319719   2.427   7.264   5.160  0.0207  0.0594 -0.2730
   29MOL   C62419720   2.279   7.318   5.183 -0.3265 -0.1594  0.6341
   29MOL   C62519721   2.242   7.443   5.108  0.0496  0.0569 -0.0027
   29MOL   O62619722   2.326   7.507   5.046  0.1966  0.1456 -0.1108
   29MOL   H62719723   2.011   7.513   4.260 -0.1389  1.0703 -0.9940
   29MOL   H62819724   1.968   7.573   4.537  2.0716  0.4097  0.8505
   29MOL   H62919725   2.142   7.585   4.487  0.3363  0.9117  0.5056
   29MOL   H63019726   2.146   7.345   4.424  2.3485  0.1374  1.3042
   29MOL   H63119727   1.974   7.340   4.443  0.2765  2.2956 -1.5201
   29MOL   H63219728   2.097   7.441   4.688  0.1494 -0.4452  0.9100
   29MOL   H63319729   1.992   7.309   4.668 -1.1135 -0.5323 -0.6704
   29MOL   H63419730   2.297   7.295   4.613 -1.6553  1.2170 -0.2363
   29MOL   H63519731   2.191   7.166   4.579 -1.4934 -0.5107  1.4732
   29MOL   H63619732   2.126   7.183   4.827 -1.1528  1.8307 -0.2646
   29MOL   H63719733   2.257   7.310   4.840 -1.0253 -0.6451  0.6877
   29MOL   H63819734   2.283   7.020   4.779  0.5981  0.0306 -1.5630
   29MOL   H63919735   2.422   7.122   4.764 -0.0375 -1.5514 -0.0172
   29MOL   H64019736   2.409   6.996   4.984  3.4715  1.7511 -1.2570
   29MOL   H64119737   2.270   7.092   5.032  1.1046 -0.3697  1.8112
   29MOL   H64219738   2.555   7.166   5.014  0.4546  1.0731 -0.1784
   29MOL   H64319739   2.452   7.288   4.953  1.7100  0.4396 -0.1152
   29MOL   H64419740   2.500   7.332   5.203  0.7078  0.4436 -2.0044
   29MOL   H64519741   2.443   7.182   5.231  0.7718  1.7456  1.5564
   29MOL   H64619742   2.281   7.356   5.285  1.9852 -1.3399  1.0435
   29MOL   H64719743   2.196   7.247   5.181 -2.2214  1.9608  0.5577
   29MOL   N64819744   2.112   7.486   5.117 -0.3081  0.2676 -0.1694
   29MOL   C64919745   2.053   7.579   5.020 -0.5126 -0.0645 -0.8931
   29MOL   C65019746   1.936   7.511   4.938 -0.2451  0.0115 -0.2677
   29MOL   C65119747   1.874   7.610   4.840  0.2586  0.0781 -0.1877
   29MOL   C65219748   1.779   7.539   4.738 -0.4656  0.2717 -0.2639
   29MOL   C65319749   1.680   7.636   4.673  0.5746  0.0410  0.2451
   29MOL   C65419750   1.584   7.559   4.581  0.1716 -0.0393 -0.4302
   29MOL   C65519751   1.493   7.637   4.480  0.9096 -0.5482 -0.0892
   29MOL   C65619752   1.389   7.547   4.408 -0.8019 -0.5325  0.5138
   29MOL   C65719753   1.458   7.453   4.302  0.1971  0.0093  0.5648
   29MOL   C65819754   1.550   7.504   4.192 -0.5816  0.0507  0.0589
   29MOL   C65919755   1.490   7.613   4.107 -0.0131  0.1971  0.0262
   29MOL   O66019756   1.369   7.640   4.093  0.0626  0.2741  0.2007
   29MOL   H66119757   2.055   7.439   5.186  0.9868 -0.9402  0.1033
   29MOL   H66219758   2.127   7.617   4.950  0.8374 -1.7791 -0.4363
   29MOL   H66319759   2.026   7.663   5.085 -0.3408 -0.8452  0.2129
   29MOL   H66419760   1.859   7.464   4.999 -0.5583  0.6241 -0.1858
   29MOL   H66519761   1.985   7.424   4.894 -0.9039 -1.5280  1.9271
   29MOL   H66619762   1.825   7.680   4.909  0.4117  0.2442 -0.2460
   29MOL   H66719763   1.959   7.658   4.792  0.5993 -0.4916 -0.1531
   29MOL   H66819764   1.729   7.455   4.787  2.0942 -0.6409  0.8760
   29MOL   H66919765   1.845   7.485   4.669 -0.1355 -0.9749  0.9933
   29MOL   H67019766   1.732   7.706   4.608 -0.8006 -0.8128 -1.8134
   29MOL   H67119767   1.633   7.703   4.745  1.4199  0.9769 -0.0649
   29MOL   H67219768   1.647   7.490   4.524  2.4532  1.1940  0.5326
   29MOL   H67319769   1.519   7.496   4.641  0.3064 -1.0488 -1.3214
   29MOL   H67419770   1.553   7.696   4.411  0.1686 -1.6791 -1.7300
   29MOL   H67519771   1.446   7.715   4.540 -0.8117 -0.4595 -1.4922
   29MOL   H67619772   1.321   7.487   4.468  0.8884 -2.1415  0.8412
   29MOL   H67719773   1.321   7.614   4.355  0.2560 -2.0463 -2.9166
   29MOL   H67819774   1.386   7.394   4.246 -0.4328 -1.2742  2.6504
   29MOL   H67919775   1.499   7.364   4.349  3.1880  0.8290 -0.4117
   29MOL   H68019776   1.586   7.415   4.140 -1.5043  0.0098 -0.5042
   29MOL   H68119777   1.641   7.543   4.238  0.0763  1.9465 -2.7585
   29MOL   H68219778   1.561   7.658   4.038 -0.7992  2.2412  0.5301
   30MOL     N119779   7.398   3.250   1.834  0.0612  0.1803  0.1482
   30MOL     C219780   7.430   3.217   1.697 -0.0590  0.7600 -0.0105
   30MOL     C319781   7.298   3.226   1.610  0.2107  0.3016 -0.2285
   30MOL     C419782   7.305   3.250   1.459  0.0875 -0.0041  0.4317
   30MOL     C519783   7.390   3.142   1.390 -0.2173 -0.5664 -0.9256
   30MOL     C619784   7.426   3.174   1.242  0.0406  0.1351 -0.3954
   30MOL     C719785   7.502   3.055   1.177 -0.1195  0.7295  0.2321
   30MOL     C819786   7.577   3.082   1.045 -0.0250  0.8980 -0.4538
   30MOL     C919787   7.600   2.951   0.966 -0.7617 -0.7547  0.1476
   30MOL    C1019788   7.683   2.969   0.838 -0.3542 -0.1143 -0.4624
   30MOL    C1119789   7.715   2.843   0.750 -0.7080  0.2073  1.6903
   30MOL    C1219790   0.069   2.729   0.820  0.0424  0.5183 -0.7150
   30MOL    O1319791   0.151   2.757   0.912 -0.3675  0.5389 -0.6141
   30MOL    H1419792   7.311   3.211   1.868 -0.9154  0.3679 -1.9981
   30MOL    H1519793   7.484   3.124   1.678  0.9254  1.4538 -0.6304
   30MOL    H1619794   7.498   3.295   1.661  3.2340 -1.4353  1.1838
   30MOL    H1719795   7.227   3.301   1.645 -1.8451 -1.0165 -1.4770
   30MOL    H1819796   7.244   3.133   1.624 -0.7284  0.7741 -0.6276
   30MOL    H1919797   7.206   3.253   1.414  0.5786 -5.2380 -1.2767
   30MOL    H2019798   7.343   3.351   1.441 -0.1955 -0.1446 -0.9818
   30MOL    H2119799   7.328   3.052   1.387 -1.5771  0.2084  2.1690
   30MOL    H2219800   7.478   3.116   1.449 -1.1254 -1.0325  0.2393
   30MOL    H2319801   7.498   3.255   1.251  1.7169 -1.1310 -2.0359
   30MOL    H2419802   7.337   3.208   1.189 -1.0769  2.6565  2.9304
   30MOL    H2519803   7.565   3.009   1.254  0.6308 -0.1322 -0.8889
   30MOL    H2619804   7.423   2.986   1.151  3.0647 -1.6306 -3.7195
   30MOL    H2719805   7.672   3.127   1.074  0.8294 -0.2940 -1.3824
   30MOL    H2819806   7.518   3.152   0.985  1.0232  0.4531 -2.0382
   30MOL    H2919807   7.642   2.873   1.030  0.4070 -1.9528 -2.0050
   30MOL    H3019808   7.506   2.910   0.931 -0.1658 -3.6754  1.8122
   30MOL    H3119809   0.055   3.031   0.859 -1.8971  2.7104 -1.9501
   30MOL    H3219810   7.618   3.037   0.783  0.6217  1.1963 -0.0536
   30MOL    H3319811   0.062   2.863   0.664  0.5501  0.9730  2.7653
   30MOL    H3419812   7.620   2.816   0.703  1.2765  0.1226 -2.4598
   30MOL    H3519813   7.367   3.346   1.834  0.5422  0.4137 -3.4520
   30MOL    N3619814   0.051   2.605   0.769 -0.1548  0.0056 -0.1084
   30MOL    C3719815   0.083   2.471   0.831 -0.3797 -0.0767 -0.0099
   30MOL    C3819816   0.017   2.366   0.743  0.2316 -0.5496  0.4846
   30MOL    C3919817   0.034   2.227   0.796 -0.2498  0.2171 -0.0126
   30MOL    C4019818   7.676   2.124   0.716  0.4098  0.7568 -0.7965
   30MOL    C4119819   7.697   1.986   0.772  0.0640  0.1341  0.1605
   30MOL    C4219820   7.674   1.869   0.677 -0.0710 -0.6299  0.1939
   30MOL    C4319821   7.604   1.755   0.747  0.5621  0.2955 -0.4062
   30MOL    C4419822   7.562   1.651   0.646 -0.3266 -0.1590  0.5250
   30MOL    C4519823   7.516   1.522   0.710 -0.3991 -0.7030  0.2612
   30MOL    C4619824   7.631   1.423   0.736 -0.0956  0.2179  0.1027
   30MOL    C4719825   7.672   1.406   0.883  0.4309  0.2218 -0.3226
   30MOL    O4819826   0.080   1.390   0.906  0.4689  0.7383 -0.5516
   30MOL    H4919827   0.000   2.604   0.682 -0.6320  0.5788  0.1572
   30MOL    H5019828   0.189   2.448   0.818 -0.3693  0.5192 -1.0272
   30MOL    H5119829   0.066   2.474   0.939 -1.7489  0.8984 -0.2422
   30MOL    H5219830   0.071   2.365   0.648 -1.9216  2.0886 -0.8247
   30MOL    H5319831   7.633   2.386   0.706  0.9594 -0.8106 -1.7053
   30MOL    H5419832   0.139   2.201   0.796  0.1435  1.6949 -1.2111
   30MOL    H5519833   7.704   2.229   0.895  1.2964 -1.0268  0.7290
   30MOL    H5619834   7.704   2.123   0.611 -2.2021 -0.6693 -1.5234
   30MOL    H5719835   7.573   2.159   0.703 -0.2622 -0.3594  1.1843
   30MOL    H5819836   7.634   1.979   0.860 -0.3803 -2.4396 -0.3045
   30MOL    H5919837   0.083   1.972   0.810  0.3795 -1.9633 -1.3521
   30MOL    H6019838   7.603   1.883   0.595  0.9150 -1.7271 -0.8731
   30MOL    H6119839   0.051   1.837   0.629  0.2620  0.9076 -0.2122
   30MOL    H6219840   7.523   1.799   0.806 -0.0313  0.1364 -1.0920
   30MOL    H6319841   7.667   1.710   0.823 -2.2449  0.5386  2.1550
   30MOL    H6419842   7.481   1.696   0.589 -0.5941 -1.3882 -0.0907
   30MOL    H6519843   7.645   1.640   0.576 -1.2816  1.7451 -0.9414
   30MOL    H6619844   7.444   1.470   0.646  0.6831 -0.0009 -1.5737
   30MOL    H6719845   7.459   1.550   0.798 -0.4066  2.2741 -0.6259
   30MOL    H6819846   7.711   1.455   0.671 -0.7883  0.7879 -0.4766
   30MOL    H6919847   7.602   1.328   0.690 -0.6570  0.1737  0.5275
   30MOL    N7019848   7.578   1.391   0.975 -0.0504 -0.1379 -0.4779
   30MOL    C7119849   7.599   1.357   1.117 -0.8176  0.0402  0.0858
   30MOL    C7219850   7.467   1.325   1.194  0.2916  0.2235  0.1914
   30MOL    C7319851   7.498   1.299   1.349 -0.6433  0.0474  0.2003
   30MOL    C7419852   7.365   1.270   1.432  0.3848 -0.0693 -0.3344
   30MOL    C7519853   7.297   1.409   1.485 -0.5693 -0.5960  0.4274
   30MOL    C7619854   7.362   1.469   1.608  0.1491  0.3346  0.4161
   30MOL    C7719855   7.342   1.619   1.620 -0.2315  0.4052  0.3410
   30MOL    C7819856   7.342   1.660   1.768 -0.2118  0.1563 -0.7171
   30MOL    C7919857   7.388   1.808   1.785  0.1220  0.5442 -0.0216
   30MOL    C8019858   7.423   1.843   1.931  0.2560  0.6200  0.4147
   30MOL    C8119859   7.296   1.859   2.023  0.5467  0.5556  0.2799
   30MOL    O8219860   7.180   1.848   1.979 -0.1767  0.1287 -0.4380
   30MOL    H8319861   7.484   1.374   0.943  0.4032  1.3452 -2.6712
   30MOL    H8419862   7.667   1.272   1.119 -1.3451 -0.4867 -2.5682
   30MOL    H8519863   7.653   1.440   1.163  1.0160  0.2482 -2.3796
   30MOL    H8619864   7.418   1.247   1.135 -2.1942  0.6756  1.6033
   30MOL    H8719865   7.407   1.416   1.199 -0.9244 -0.6533  2.2507
   30MOL    H8819866   7.555   1.207   1.363 -1.5076 -0.4196  0.7123
   30MOL    H8919867   7.552   1.377   1.402 -0.2818  0.6062 -0.9769
   30MOL    H9019868   7.376   1.217   1.527  0.6274 -0.3583 -0.5229
   30MOL    H9119869   7.292   1.214   1.374 -0.8826 -1.7724  2.7841
   30MOL    H9219870   7.190   1.396   1.505 -1.2631  0.3716 -2.3580
   30MOL    H9319871   7.306   1.476   1.400 -2.3367  0.2205  0.8594
   30MOL    H9419872   7.331   1.409   1.693  1.0266 -0.1251  0.4144
   30MOL    H9519873   7.468   1.446   1.609  0.2343  0.6732 -0.2192
   30MOL    H9619874   7.256   1.663   1.569 -2.0827 -2.5749  0.7351
   30MOL    H9719875   7.427   1.660   1.566 -0.5290 -0.4828 -0.8284
   30MOL    H9819876   7.242   1.652   1.809 -1.0240  0.4094 -2.6203
   30MOL    H9919877   7.407   1.595   1.827  1.0737  0.1901 -2.0611
   30MOL   H10019878   7.314   1.881   1.751  1.1336  1.0293 -1.2115
   30MOL   H10119879   7.469   1.826   1.714  0.1160  1.2361  0.1495
   30MOL   H10219880   7.482   1.935   1.935  0.8466  0.2856 -0.4944
   30MOL   H10319881   7.490   1.767   1.970  1.1817  1.0956 -0.2168
   30MOL   N10419882   7.328   1.857   2.152  0.0829 -0.2217  0.9882
   30MOL   C10519883   7.234   1.885   2.259  0.0277 -0.0670 -0.5171
   30MOL   C10619884   7.210   2.050   2.280  0.5285  0.8502 -0.3492
   30MOL   C10719885   7.120   2.086   2.400 -0.7193 -0.0667 -0.0950
   30MOL   C10819886   7.092   2.228   2.420  0.2552  0.3950  0.1398
   30MOL   C10919887   7.010   2.257   2.545 -0.7387 -0.5416  0.0751
   30MOL   C11019888   6.962   2.409   2.541 -0.8359 -1.2526 -0.7980
   30MOL   C11119889   6.895   2.450   2.676  0.2462 -0.1013  1.0794
   30MOL   C11219890   6.797   2.570   2.653  0.3223 -0.3328 -0.3177
   30MOL   C11319891   6.750   2.634   2.782 -0.2402 -0.8258 -0.6438
   30MOL   C11419892   6.739   2.548   2.907  0.0637  0.0140 -0.1302
   30MOL   C11519893   6.697   2.628   3.031  0.0341  0.2058 -0.2415
   30MOL   O11619894   6.696   2.747   3.028  0.2567 -0.0704  0.2458
   30MOL   H11719895   7.425   1.862   2.181  1.0839 -2.1448 -1.7930
   30MOL   H11819896   7.137   1.838   2.242 -0.0153  0.0268 -0.5308
   30MOL   H11919897   7.279   1.841   2.349  1.1252  2.0092 -0.0249
   30MOL   H12019898   7.192   2.104   2.187 -0.1740  1.3552  0.0730
   30MOL   H12119899   7.308   2.083   2.313  0.2289  2.4531 -0.9955
   30MOL   H12219900   7.022   2.039   2.389 -0.6042 -0.3481  0.0890
   30MOL   H12319901   7.154   2.049   2.497 -1.0112  1.9555  0.8012
   30MOL   H12419902   7.050   2.266   2.327 -1.1168 -0.3120  0.4659
   30MOL   H12519903   7.191   2.275   2.424 -0.8245  2.7339  0.5991
   30MOL   H12619904   7.062   2.240   2.639 -0.6681 -1.1814 -0.0770
   30MOL   H12719905   6.918   2.201   2.565 -1.5157  0.4892 -0.5160
   30MOL   H12819906   7.049   2.472   2.521 -1.4290  0.4250  1.7494
   30MOL   H12919907   6.888   2.428   2.463  0.9147 -3.0238 -2.9939
   30MOL   H13019908   6.972   2.482   2.746 -0.1277  1.3728  0.8250
   30MOL   H13119909   6.849   2.363   2.723 -0.0360 -0.5566 -0.0285
   30MOL   H13219910   6.823   2.646   2.581  2.2176  0.7809  1.4754
   30MOL   H13319911   6.708   2.523   2.611 -0.0818  1.2329 -1.2497
   30MOL   H13419912   6.656   2.685   2.761  1.4047  2.0980 -1.1957
   30MOL   H13519913   6.818   2.716   2.805 -0.8027 -0.0332 -1.7548
   30MOL   H13619914   6.838   2.510   2.932  0.5088  0.3821 -1.3105
   30MOL   H13719915   6.669   2.464   2.900  0.2549 -0.2576  1.0725
   30MOL   N13819916   6.663   2.554   3.141  0.4398 -0.2557 -0.1028
   30MOL   C13919917   6.648   2.616   3.270  0.8099  0.1446 -0.6010
   30MOL   C14019918   6.545   2.535   3.357 -0.3938 -0.2799  0.0436
   30MOL   C14119919   6.514   2.620   3.479 -0.3008 -0.6728 -1.4812
   30MOL   C14219920   6.421   2.549   3.582 -0.8651  0.2013 -0.2401
   30MOL   C14319921   6.393   2.628   3.706 -0.1842  0.0032  0.4567
   30MOL   C14419922   6.299   2.558   3.808 -0.3875  0.2795  0.9530
   30MOL   C14519923   6.247   2.659   3.911 -0.2055  0.8141 -0.0623
   30MOL   C14619924   6.145   2.588   4.007 -0.5034  0.1423  0.0251
   30MOL   C14719925   6.079   2.684   4.108 -0.9665  0.3338  0.6836
   30MOL   C14819926   5.938   2.740   4.073 -0.7501 -0.2667 -0.2541
   30MOL   C14919927   5.933   2.788   3.931  0.2592  0.4997 -0.1522
   30MOL   O15019928   5.894   2.713   3.841  0.3764 -0.4179  0.0974
   30MOL   H15119929   6.685   2.455   3.141  2.5154  0.1882  1.1795
   30MOL   H15219930   6.742   2.623   3.325  0.8577  2.0594 -0.8909
   30MOL   H15319931   6.616   2.719   3.260 -0.4771 -0.2272 -0.4187
   30MOL   H15419932   6.594   2.444   3.389 -1.0751 -0.5677  0.2726
   30MOL   H15519933   6.462   2.511   3.290  0.2987 -0.5815 -0.7187
   30MOL   H15619934   6.605   2.657   3.525 -1.5317 -0.9082  1.3006
   30MOL   H15719935   6.455   2.709   3.456  1.3782  1.2339  1.3213
   30MOL   H15819936   6.470   2.455   3.609  0.9108  0.3765 -2.7005
   30MOL   H15919937   6.323   2.522   3.543  0.2761  0.4450 -3.4106
   30MOL   H16019938   6.344   2.721   3.677  0.9657  1.2979  2.5078
   30MOL   H16119939   6.490   2.665   3.739 -0.8147 -0.0885  2.4733
   30MOL   H16219940   6.219   2.505   3.756  0.0012 -0.1650  0.8110
   30MOL   H16319941   6.371   2.487   3.848 -0.9074 -0.0656  1.2787
   30MOL   H16419942   6.205   2.747   3.862  0.9297 -0.0674 -2.6698
   30MOL   H16519943   6.326   2.694   3.977 -2.6063 -1.8944  4.4979
   30MOL   H16619944   6.066   2.544   3.946 -2.6440  0.1586  2.6407
   30MOL   H16719945   6.196   2.500   4.048 -0.0439 -0.5185 -1.9147
   30MOL   H16819946   6.150   2.764   4.130  1.2486 -1.7253  1.1824
   30MOL   H16919947   6.067   2.638   4.206 -0.6337  0.0044  0.5690
   30MOL   H17019948   5.911   2.823   4.139  0.9957 -0.7662  1.1435
   30MOL   H17119949   5.864   2.661   4.082  0.4511 -1.6393 -2.1955
   30MOL   N17219950   5.959   2.920   3.919 -0.1838  0.4798 -0.6481
   30MOL   C17319951   5.943   2.993   3.791  0.5316  0.2122 -0.4215
   30MOL   C17419952   6.028   2.948   3.672 -0.2616 -0.5158  0.3946
   30MOL   C17519953   6.018   3.035   3.554 -0.3801  0.2044  0.1435
   30MOL   C17619954   6.091   3.167   3.557 -0.6496  0.7798  0.1166
   30MOL   C17719955   6.077   3.239   3.422 -0.0338  0.4068  0.4958
   30MOL   C17819956   6.102   3.383   3.438 -0.4664  0.7098 -0.3783
   30MOL   C17919957   6.096   3.468   3.312  0.2575 -0.6657  0.4468
   30MOL   C18019958   5.965   3.468   3.236 -0.6121 -0.0077  0.4906
   30MOL   C18119959   5.855   3.535   3.322 -0.7074  0.2105  0.2779
   30MOL   C18219960   5.717   3.549   3.256  0.3623  0.0505  0.5552
   30MOL   C18319961   5.618   3.622   3.345  0.0106 -0.9160  0.9178
   30MOL   O18419962   5.645   3.732   3.386  0.4790  0.0292 -0.3675
   30MOL   H18519963   5.979   2.972   4.003 -0.5999 -0.6328  0.1398
   30MOL   H18619964   5.839   3.000   3.757  0.8802  2.1975 -1.1484
   30MOL   H18719965   5.968   3.096   3.815 -1.6186  0.5088  0.6943
   30MOL   H18819966   5.997   2.848   3.643  2.1285 -0.7135 -1.6550
   30MOL   H18919967   6.131   2.945   3.707  0.2709 -0.6613 -1.1569
   30MOL   H19019968   6.071   2.979   3.477 -0.3825  0.2032  0.1428
   30MOL   H19119969   5.918   3.049   3.512 -0.9079  1.0738  1.6735
   30MOL   H19219970   6.192   3.144   3.590 -0.5031 -1.8757 -2.0429
   30MOL   H19319971   6.046   3.219   3.642 -0.5089 -0.2749  0.8484
   30MOL   H19419972   5.989   3.204   3.368 -0.7717  0.7251  1.4806
   30MOL   H19519973   6.159   3.205   3.358  0.6665  0.9887  1.0826
   30MOL   H19619974   6.036   3.429   3.511  1.8796  2.1029  0.9480
   30MOL   H19719975   6.199   3.403   3.484 -1.3813  2.2980  0.9247
   30MOL   H19819976   6.174   3.436   3.243  0.9540 -0.7623  1.2741
   30MOL   H19919977   6.143   3.565   3.328  3.5389 -1.9092 -1.1235
   30MOL   H20019978   5.975   3.527   3.145 -0.9022 -1.0088 -0.2003
   30MOL   H20119979   5.933   3.367   3.211  1.5227 -0.9398  1.4308
   30MOL   H20219980   5.891   3.637   3.338 -1.3669  0.2427  1.7009
   30MOL   H20319981   5.850   3.492   3.422  0.9035  1.6210  0.9783
   30MOL   H20419982   5.669   3.467   3.202  0.2175 -0.5440  1.5555
   30MOL   H20519983   5.727   3.624   3.178  3.9056 -1.3399 -0.4216
   30MOL   N20619984   5.500   3.569   3.371 -1.1262 -0.3440 -0.4987
   30MOL   C20719985   5.400   3.636   3.452  0.0499 -0.3984 -0.0624
   30MOL   C20819986   5.286   3.538   3.469 -0.4023  0.1236  0.6307
   30MOL   C20919987   5.170   3.599   3.544 -0.3311 -0.5531 -0.7727
   30MOL   C21019988   5.043   3.518   3.544 -0.0804 -0.2906  0.4481
   30MOL   C21119989   4.930   3.599   3.606 -0.3845  0.3087  0.5932
   30MOL   C21219990   4.808   3.513   3.640  0.1432  0.0781 -0.4599
   30MOL   C21319991   4.710   3.583   3.737  0.2233 -0.3270 -0.2611
   30MOL   C21419992   4.763   3.634   3.872  0.4546  0.3798  0.1731
   30MOL   C21519993   4.647   3.677   3.965 -0.0077 -0.3344  0.2290
   30MOL   C21619994   4.709   3.754   4.084  0.3298 -0.4296 -0.0267
   30MOL   C21719995   4.615   3.789   4.198  0.2220 -0.3647  0.5240
   30MOL   O21819996   4.559   3.695   4.262  0.4237 -0.0294 -0.4783
   30MOL   H21919997   5.470   3.478   3.337 -0.9014 -1.5289  2.2914
   30MOL   H22019998   5.380   3.721   3.387 -1.0473 -0.6660 -0.0691
   30MOL   H22119999   5.442   3.669   3.547 -0.8342 -0.9005  0.5072
   30MOL   H22220000   5.324   3.451   3.524 -0.8293 -1.4164 -1.4455
   30MOL   H22320001   5.257   3.493   3.374 -0.9746  0.6400  0.5639
   30MOL   H22420002   5.207   3.635   3.640 -1.0149 -1.9294  0.0204
   30MOL   H22520003   5.155   3.691   3.488  2.3025  0.1029 -0.4785
   30MOL   H22620004   5.050   3.420   3.591  3.7614  0.4705  1.6566
   30MOL   H22720005   5.020   3.479   3.446  0.4327  1.3048 -0.3236
   30MOL   H22820006   4.904   3.690   3.551  1.4677  0.5030  0.0214
   30MOL   H22920007   4.964   3.645   3.699  2.1196  0.3954 -0.3379
   30MOL   H23020008   4.746   3.480   3.556 -2.0014 -1.5601  1.6818
   30MOL   H23120009   4.846   3.422   3.687  1.4832  0.9167  0.1003
   30MOL   H23220010   4.622   3.524   3.763 -0.9514  2.3936  2.0747
   30MOL   H23320011   4.678   3.670   3.681  2.7178  0.8652  0.0749
   30MOL   H23420012   4.821   3.552   3.915 -0.0154  0.8440  1.7535
   30MOL   H23520013   4.834   3.716   3.868  1.7212 -0.6415  1.2579
   30MOL   H23620014   4.595   3.589   4.003  2.6257 -1.4942  1.2536
   30MOL   H23720015   4.569   3.728   3.908  0.4666 -0.8080 -0.8629
   30MOL   H23820016   4.768   3.841   4.057 -0.4571  0.4986  1.2262
   30MOL   H23920017   4.776   3.686   4.136 -0.9685  0.1633  2.5092
   30MOL   N24020018   4.609   3.919   4.223 -0.4208 -0.5443  0.1738
   30MOL   C24120019   4.560   3.967   4.350  0.4460 -0.0876 -0.4941
   30MOL   C24220020   4.649   4.070   4.425  0.3706 -1.1468 -0.6348
   30MOL   C24320021   4.774   4.011   4.486  1.0030  0.1918 -0.2876
   30MOL   C24420022   4.876   4.123   4.539  0.5800  0.7467  0.4898
   30MOL   C24520023   4.822   4.229   4.640  0.0443  0.6966 -0.0195
   30MOL   C24620024   4.931   4.322   4.692 -0.2778 -0.2456 -0.3575
   30MOL   C24720025   4.874   4.437   4.783  0.4440  0.5935  0.2745
   30MOL   C24820026   4.981   4.518   4.845 -0.0527  0.0333  0.1495
   30MOL   C24920027   4.937   4.618   4.946  0.7509  0.7987  0.7627
   30MOL   C25020028   4.881   4.756   4.883 -0.2155 -0.0070  0.2442
   30MOL   C25120029   4.866   4.860   4.995  0.0859 -0.2006  0.0760
   30MOL   O25220030   4.794   4.837   5.092 -0.3065 -0.4394  0.1634
   30MOL   H25320031   4.637   3.976   4.144  2.3863 -2.1746 -0.0772
   30MOL   H25420032   4.532   3.887   4.417 -1.0527  0.2469 -0.7056
   30MOL   H25520033   4.466   4.020   4.336  1.1148  1.1802 -0.2550
   30MOL   H25620034   4.585   4.097   4.508 -0.6013  0.9931 -2.0345
   30MOL   H25720035   4.664   4.161   4.366 -2.7957 -0.3126 -0.2141
   30MOL   H25820036   4.763   3.932   4.560  0.6642  2.1372  1.7678
   30MOL   H25920037   4.816   3.956   4.401 -1.2248 -1.5053 -0.3555
   30MOL   H26020038   4.912   4.184   4.456 -2.0028 -0.3685 -1.5100
   30MOL   H26120039   4.959   4.069   4.585  0.0529 -1.5255 -1.1449
   30MOL   H26220040   4.776   4.180   4.726  0.9087  1.6817  1.0192
   30MOL   H26320041   4.763   4.298   4.580 -1.1636 -0.2809  0.0363
   30MOL   H26420042   5.004   4.268   4.753 -0.1438 -1.7152 -1.7710
   30MOL   H26520043   4.983   4.359   4.604  0.4197  0.4932  0.3531
   30MOL   H26620044   4.806   4.399   4.860 -0.7266  1.2467 -0.4197
   30MOL   H26720045   4.814   4.488   4.707 -0.4534 -1.6765 -0.6178
   30MOL   H26820046   5.050   4.453   4.898  0.7578  1.1868  0.5176
   30MOL   H26920047   5.036   4.568   4.765 -0.8337 -1.6151 -1.4649
   30MOL   H27020048   5.026   4.639   5.006 -0.6170 -2.9085  4.3283
   30MOL   H27120049   4.856   4.587   5.012  1.5481  0.3135  1.5241
   30MOL   H27220050   4.784   4.740   4.837 -0.1310  0.4455 -0.0921
   30MOL   H27320051   4.935   4.797   4.798  1.4398 -1.3371  0.6303
   30MOL   N27420052   4.923   4.980   4.971  0.8633  0.8094  0.0866
   30MOL   C27520053   4.913   5.095   5.057 -0.3945 -0.2508  0.5003
   30MOL   C27620054   4.780   5.183   5.055  0.2094  0.1398 -0.5213
   30MOL   C27720055   4.753   5.251   4.920  0.9589  0.0672  0.1259
   30MOL   C27820056   4.867   5.349   4.867 -0.1117  0.4408  0.2666
   30MOL   C27920057   4.825   5.409   4.730 -0.1196  0.7142  0.1325
   30MOL   C28020058   4.820   5.309   4.612  0.0193  0.5968 -0.4722
   30MOL   C28120059   4.676   5.309   4.557 -0.3561  0.1152 -0.0561
   30MOL   C28220060   4.675   5.225   4.429 -0.0916  0.6386 -0.3902
   30MOL   C28320061   4.538   5.224   4.351 -0.1177  0.2376  0.4764
   30MOL   C28420062   4.443   5.124   4.424  0.1232  0.1259 -0.4427
   30MOL   C28520063   4.357   5.186   4.532  0.7881  0.3680  0.0186
   30MOL   O28620064   4.291   5.291   4.523  0.6752 -0.1106 -0.4361
   30MOL   H28720065   4.983   4.991   4.891  0.1951 -0.5789 -0.6069
   30MOL   H28820066   5.001   5.156   5.037 -0.7660 -0.0725 -0.6429
   30MOL   H28920067   4.936   5.062   5.158  1.9492 -2.0693 -0.6018
   30MOL   H29020068   4.769   5.255   5.135  2.5114  0.9442 -0.8828
   30MOL   H29120069   4.698   5.111   5.057  0.5014 -0.1468  1.3929
   30MOL   H29220070   4.731   5.178   4.842 -2.2493  1.1188 -0.0057
   30MOL   H29320071   4.659   5.306   4.920  0.5934 -0.5194 -1.9470
   30MOL   H29420072   4.965   5.303   4.879 -0.4418 -0.5822 -0.8651
   30MOL   H29520073   4.881   5.418   4.949  0.8880  0.5728 -0.0103
   30MOL   H29620074   4.903   5.482   4.710  1.9410 -0.9638  1.6269
   30MOL   H29720075   4.728   5.458   4.733 -1.3880 -1.5129 -2.6089
   30MOL   H29820076   4.899   5.350   4.549 -0.0737  0.9603 -0.3558
   30MOL   H29920077   4.854   5.211   4.644 -1.4328  0.5292  0.9742
   30MOL   H30020078   4.651   5.412   4.532 -0.4854 -0.0969 -0.8060
   30MOL   H30120079   4.608   5.265   4.630  0.5628  0.2830  0.9299
   30MOL   H30220080   4.759   5.256   4.366 -0.0212 -1.1772 -1.2237
   30MOL   H30320081   4.709   5.122   4.438 -1.4757  0.2623  0.7579
   30MOL   H30420082   4.562   5.205   4.246 -2.3476 -0.4614  0.0670
   30MOL   H30520083   4.506   5.329   4.348  0.3695  0.3417 -1.3957
   30MOL   H30620084   4.508   5.040   4.447 -0.3330  0.0138  0.4783
   30MOL   H30720085   4.370   5.083   4.355 -0.5664  0.8092 -0.1319
   30MOL   N30820086   4.359   5.138   4.655  0.5074  0.1418  0.0435
   30MOL   C30920087   4.420   5.011   4.692  0.7808  0.5543  0.5108
   30MOL   C31020088   4.406   4.982   4.843  0.0241 -0.8049  1.0715
   30MOL   C31120089   4.474   4.855   4.880  0.5534  0.7286  0.6117
   30MOL   C31220090   4.446   4.805   5.022  0.3648 -0.4443 -0.0539
   30MOL   C31320091   4.473   4.901   5.139 -1.2710 -0.1533 -0.3182
   30MOL   C31420092   4.447   4.850   5.278  0.6413 -0.5377  0.4073
   30MOL   C31520093   4.295   4.839   5.304 -0.0626 -0.5782  0.2087
   30MOL   C31620094   4.255   4.813   5.446 -0.0134  0.0355 -0.5817
   30MOL   C31720095   4.353   4.735   5.535  0.0497 -0.4684  0.3591
   30MOL   C31820096   4.292   4.679   5.665  0.1572  0.5291 -0.8411
   30MOL   C31920097   4.203   4.553   5.654  0.9528 -0.5109  0.4153
   30MOL   O32020098   4.186   4.497   5.548  0.1207  0.3165 -0.3725
   30MOL   H32120099   4.324   5.202   4.724  0.7327  0.2565  0.0507
   30MOL   H32220100   4.525   5.001   4.666  1.1837  3.4758  0.8870
   30MOL   H32320101   4.375   4.928   4.637  1.5086  0.5659 -0.1046
   30MOL   H32420102   4.301   4.979   4.873 -0.4239 -0.1923 -0.3963
   30MOL   H32520103   4.449   5.066   4.898  1.6237  0.0062 -1.3612
   30MOL   H32620104   4.435   4.780   4.811  0.8613  1.1593 -0.0340
   30MOL   H32720105   4.582   4.866   4.863  0.2162  2.4509 -0.5813
   30MOL   H32820106   4.487   4.707   5.048  1.7276  0.0415 -0.2964
   30MOL   H32920107   4.340   4.782   5.025  0.5703 -1.3379  0.6947
   30MOL   H33020108   4.415   4.992   5.124 -0.6614  0.2727 -0.1060
   30MOL   H33120109   4.574   4.942   5.134 -1.1001 -0.6219 -0.9140
   30MOL   H33220110   4.498   4.756   5.301  1.1537 -0.1659  0.7896
   30MOL   H33320111   4.477   4.930   5.346  1.2905 -0.2432 -0.2287
   30MOL   H33420112   4.255   4.758   5.242  1.1184 -0.8209 -0.2467
   30MOL   H33520113   4.239   4.932   5.289  0.3498 -0.2306  0.7932
   30MOL   H33620114   4.235   4.904   5.503 -0.1846 -0.3883  0.0366
   30MOL   H33720115   4.162   4.756   5.442 -0.1236  0.0607  1.1566
   30MOL   H33820116   4.442   4.795   5.553  0.2313 -0.6193 -0.0257
   30MOL   H33920117   4.396   4.651   5.480  1.2265 -0.3872  1.1291
   30MOL   H34020118   4.219   4.749   5.703 -0.3338 -0.4332  0.0001
   30MOL   H34120119   4.373   4.662   5.736 -1.5471 -1.5528  0.6674
   30MOL   N34220120   4.154   4.507   5.763 -0.6912  1.2286  0.2200
   30MOL   C34320121   4.057   4.405   5.782 -0.4868 -0.0073 -0.0584
   30MOL   C34420122   4.032   4.364   5.930  0.0372 -0.5550 -0.8775
   30MOL   C34520123   3.906   4.280   5.945  0.1874  0.2484  0.6500
   30MOL   C34620124   3.854   4.268   6.087 -0.2921  0.3485  0.2923
   30MOL   C34720125   3.707   4.230   6.095 -0.2906  0.5336  0.0438
   30MOL   C34820126   3.656   4.219   6.239  0.0829 -0.1660  0.5270
   30MOL   C34920127   3.501   4.211   6.231 -0.5277  0.0384  0.1743
   30MOL   C35020128   3.437   4.169   6.367 -0.1808 -0.3377  0.2153
   30MOL   C35120129   3.288   4.201   6.385 -0.2664 -0.4920  0.2553
   30MOL   C35220130   3.197   4.091   6.322  1.0228  0.1845 -0.0424
   30MOL   C35320131   3.190   3.969   6.407 -0.3427  0.0799 -0.7017
   30MOL   O35420132   3.263   3.954   6.506 -0.2847  0.9542 -0.1225
   30MOL   H35520133   4.173   4.565   5.843  1.1492  1.8704 -0.6507
   30MOL   H35620134   3.960   4.438   5.744 -0.4476 -0.3306 -0.4435
   30MOL   H35720135   4.072   4.317   5.719 -1.3653 -1.2840  1.4689
   30MOL   H35820136   3.997   4.450   5.987  1.0675  0.2930 -1.4876
   30MOL   H35920137   4.122   4.319   5.972  0.4240  0.6801 -0.3695
   30MOL   H36020138   3.826   4.335   5.897 -1.7011 -0.5566  2.7994
   30MOL   H36120139   3.924   4.181   5.902 -1.8649 -0.4386  1.3142
   30MOL   H36220140   3.869   4.365   6.136  0.6669 -0.5308  1.7785
   30MOL   H36320141   3.908   4.193   6.144 -0.3175  0.6596  0.7346
   30MOL   H36420142   3.691   4.133   6.046  1.7095  0.5979 -0.8199
   30MOL   H36520143   3.648   4.299   6.035  1.5677  2.3779  0.2981
   30MOL   H36620144   3.706   4.135   6.286  0.5647 -0.1261  0.0909
   30MOL   H36720145   3.696   4.298   6.303  1.7027  0.2813 -1.0080
   30MOL   H36820146   3.475   4.137   6.156  0.1785 -0.0883  0.0564
   30MOL   H36920147   3.455   4.306   6.203  2.0575  0.6121 -2.3531
   30MOL   H37020148   3.471   4.068   6.389 -1.3473 -0.9320 -0.6396
   30MOL   H37120149   3.479   4.229   6.448  0.5239 -0.4387 -0.0774
   30MOL   H37220150   3.271   4.301   6.345 -0.6393 -0.2463  1.0091
   30MOL   H37320151   3.266   4.215   6.491  0.5539  0.4563  0.3182
   30MOL   H37420152   3.207   4.073   6.215 -0.4059  1.3085 -0.3725
   30MOL   H37520153   3.094   4.125   6.329  0.6382 -1.2669  1.7245
   30MOL   N37620154   3.102   3.881   6.359 -0.1641 -0.2510  0.0341
   30MOL   C37720155   3.080   3.749   6.412  0.4215 -0.7152  0.3683
   30MOL   C37820156   2.965   3.682   6.330 -0.1038  0.3992  0.0842
   30MOL   C37920157   2.922   3.545   6.387 -0.0571  0.6931  0.0205
   30MOL   C38020158   3.017   3.424   6.354 -0.2306 -0.3717  0.0698
   30MOL   C38120159   2.967   3.295   6.415  0.7551 -0.1294 -0.3295
   30MOL   C38220160   3.007   3.274   6.560  0.0797 -0.6592 -0.2172
   30MOL   C38320161   3.146   3.202   6.574  0.2216 -0.2283  0.1543
   30MOL   C38420162   3.157   3.053   6.531  0.6211  0.2856 -0.3763
   30MOL   C38520163   3.271   2.990   6.597  0.2654 -0.2246  0.3719
   30MOL   C38620164   3.308   2.844   6.533 -0.3353 -0.6671  0.3608
   30MOL   C38720165   3.351   2.860   6.382  0.0264 -0.1408  0.5721
   30MOL   O38820166   3.458   2.917   6.358 -0.4763 -0.0877  0.0217
   30MOL   H38920167   3.055   3.914   6.276  1.2075  0.6348 -0.4096
   30MOL   H39020168   3.177   3.699   6.406  0.6746 -0.0905 -0.8041
   30MOL   H39120169   3.049   3.757   6.517  0.4220 -1.2210  0.4073
   30MOL   H39220170   2.990   3.677   6.224 -0.7261 -1.5997  0.0043
   30MOL   H39320171   2.886   3.757   6.325 -1.5083 -0.9506  1.8394
   30MOL   H39420172   2.900   3.561   6.492  1.9324  0.0994  0.5415
   30MOL   H39520173   2.821   3.526   6.351  0.0739 -0.7996  0.3973
   30MOL   H39620174   3.110   3.446   6.406 -0.6875 -0.6043  1.0037
   30MOL   H39720175   3.033   3.417   6.247 -4.7733  0.5180 -0.7908
   30MOL   H39820176   2.990   3.217   6.342 -0.9412 -0.4890 -0.4905
   30MOL   H39920177   2.859   3.294   6.402  0.6170 -0.1455  0.7709
   30MOL   H40020178   3.006   3.367   6.616  0.7292 -1.1562  0.6356
   30MOL   H40120179   2.932   3.206   6.602  0.5825  0.0492  1.8911
   30MOL   H40220180   3.164   3.198   6.681  1.2872 -2.8363 -0.0700
   30MOL   H40320181   3.219   3.259   6.517  0.5507 -2.4363 -1.7279
   30MOL   H40420182   3.063   3.004   6.559  1.8604 -1.4665  0.7962
   30MOL   H40520183   3.156   3.043   6.422 -0.4134 -1.6545 -0.2092
   30MOL   H40620184   3.264   2.986   6.705 -0.2893 -1.5508  0.2961
   30MOL   H40720185   3.356   3.057   6.583 -0.4768  0.8532  0.9638
   30MOL   H40820186   3.220   2.781   6.534  0.2988 -1.5800 -0.7059
   30MOL   H40920187   3.380   2.788   6.593 -0.7915 -1.3258  0.2994
   30MOL   N41020188   3.278   2.802   6.285 -0.2850 -0.2592 -0.8368
   30MOL   C41120189   3.315   2.797   6.146 -0.3801  0.4901  0.6314
   30MOL   C41220190   3.226   2.722   6.051 -0.0440  1.0186  0.6417
   30MOL   C41320191   3.287   2.705   5.906 -0.1659 -0.0954 -0.2522
   30MOL   C41420192   3.218   2.603   5.814 -0.4454  0.2606 -0.5307
   30MOL   C41520193   3.254   2.642   5.663  0.4824  0.1593 -0.6345
   30MOL   C41620194   3.160   2.569   5.568 -0.5624 -0.2776 -0.5523
   30MOL   C41720195   3.208   2.581   5.420 -0.1186 -0.2375  0.1763
   30MOL   C41820196   3.321   2.484   5.395 -0.3967  0.2024 -0.0406
   30MOL   C41920197   3.387   2.501   5.263 -0.4795 -0.1403 -0.0351
   30MOL   C42020198   3.497   2.402   5.233  0.0288  0.2612 -0.2257
   30MOL   C42120199   3.575   2.429   5.100 -0.6442 -0.4384  0.6741
   30MOL   O42220200   3.632   2.538   5.076  0.2246  0.5938  0.0356
   30MOL   H42320201   3.185   2.779   6.317 -0.1016  0.0059 -0.0887
   30MOL   H42420202   3.327   2.900   6.115 -0.0424  0.0469 -0.7316
   30MOL   H42520203   3.412   2.748   6.155 -0.0904  1.5123  3.4631
   30MOL   H42620204   3.125   2.763   6.045 -0.1089  0.6567 -1.0623
   30MOL   H42720205   3.199   2.624   6.090  2.5337  0.6891  1.6799
   30MOL   H42820206   3.291   2.804   5.861 -1.2911 -0.2858 -0.7915
   30MOL   H42920207   3.392   2.674   5.909  0.3680  1.6374 -0.5471
   30MOL   H43020208   3.113   2.621   5.838 -0.2416 -0.2495  0.8107
   30MOL   H43120209   3.231   2.500   5.849 -1.7123 -0.4888 -2.1840
   30MOL   H43220210   3.359   2.622   5.644  0.1786 -1.5637 -0.5988
   30MOL   H43320211   3.236   2.748   5.650 -1.9357 -0.2763 -1.2442
   30MOL   H43420212   3.147   2.464   5.595 -0.7950 -0.3674 -1.0176
   30MOL   H43520213   3.060   2.611   5.573 -1.1710 -1.7903  0.5437
   30MOL   H43620214   3.229   2.685   5.394 -2.8097  0.2785 -0.0969
   30MOL   H43720215   3.129   2.553   5.351  1.0938  1.6547 -2.0947
   30MOL   H43820216   3.403   2.505   5.464  0.9691  0.8116 -1.8058
   30MOL   H43920217   3.289   2.380   5.397  0.3341 -0.0687 -1.5074
   30MOL   H44020218   3.437   2.598   5.254  0.1476 -0.4207  0.3787
   30MOL   H44120219   3.323   2.502   5.175  2.0024  2.1105 -1.8762
   30MOL   H44220220   3.456   2.302   5.216  0.0998  0.3268 -0.7921
   30MOL   H44320221   3.564   2.403   5.319 -0.3271 -0.3151  0.0576
   30MOL   N44420222   3.588   2.326   5.008  0.4201 -0.3961 -0.7582
   30MOL   C44520223   3.691   2.336   4.899  0.0130  0.6733  0.1133
   30MOL   C44620224   3.716   2.195   4.839 -0.4349  0.0896 -0.1818
   30MOL   C44720225   3.802   2.200   4.718  0.0946 -0.3617  0.2660
   30MOL   C44820226   3.833   2.058   4.664 -0.3528 -0.1564  0.4248
   30MOL   C44920227   3.947   2.068   4.559 -0.1329  0.5623 -0.2109
   30MOL   C45020228   3.977   1.930   4.492  0.5225 -0.4037  0.5992
   30MOL   C45120229   4.089   1.929   4.384 -0.0692  0.3842  0.2286
   30MOL   C45220230   4.073   1.807   4.297  0.4998  0.4244  0.6063
   30MOL   C45320231   4.200   1.787   4.201 -0.1366  0.5582  0.1462
   30MOL   C45420232   4.165   1.691   4.085 -0.6194 -0.6089  0.0098
   30MOL   C45520233   4.125   1.767   3.958 -0.4428 -0.8471  0.0039
   30MOL   O45620234   4.080   1.880   3.959  0.0019 -0.0312 -0.4684
   30MOL   H45720235   3.538   2.240   5.026 -2.1120  0.9505 -1.1283
   30MOL   H45820236   3.636   2.394   4.825  0.7166 -0.7534 -1.5456
   30MOL   H45920237   3.780   2.394   4.922  0.5650 -0.6592  1.3628
   30MOL   H46020238   3.620   2.152   4.810 -0.2345 -0.4149 -0.1028
   30MOL   H46120239   3.758   2.128   4.914  1.6549  1.2672 -0.2708
   30MOL   H46220240   3.752   2.256   4.638 -1.4406 -3.1589 -0.7901
   30MOL   H46320241   3.893   2.253   4.747 -0.5896  1.7072 -1.1811
   30MOL   H46420242   3.742   2.012   4.624  0.0359  0.8981 -1.7584
   30MOL   H46520243   3.878   2.001   4.745 -1.9261 -1.2187  0.5786
   30MOL   H46620244   4.026   2.098   4.627 -0.8145 -1.4744  1.5485
   30MOL   H46720245   3.934   2.148   4.486 -0.9183  0.7782  0.1588
   30MOL   H46820246   4.000   1.859   4.571  0.3256 -0.8969  0.2163
   30MOL   H46920247   3.885   1.893   4.448  1.6650 -2.0573 -0.4646
   30MOL   H47020248   4.182   1.933   4.440  0.0983 -2.3599  0.1866
   30MOL   H47120249   4.081   2.019   4.322 -0.6046 -1.0525 -1.8297
   30MOL   H47220250   4.059   1.726   4.368 -0.9525  1.5445  1.6323
   30MOL   H47320251   3.989   1.817   4.229 -0.3986 -1.4052  1.4302
   30MOL   H47420252   4.290   1.752   4.251 -1.1019  0.5690  1.9182
   30MOL   H47520253   4.241   1.882   4.168 -0.1643  0.5884  0.1995
   30MOL   H47620254   4.097   1.617   4.127  0.3228 -2.5390 -1.7712
   30MOL   H47720255   4.258   1.642   4.057 -0.0997 -0.2398  1.0707
   30MOL   N47820256   4.157   1.712   3.840 -0.2415 -0.3392  0.3060
   30MOL   C47920257   4.142   1.789   3.714  0.5103  0.2096 -0.2761
   30MOL   C48020258   4.179   1.697   3.593  0.6259 -0.1138 -0.1154
   30MOL   C48120259   4.092   1.748   3.473 -0.4604  0.2048  0.5066
   30MOL   C48220260   4.135   1.697   3.335 -0.6205  0.5370  0.5412
   30MOL   C48320261   4.062   1.747   3.210  0.4269  0.2396 -0.4228
   30MOL   C48420262   4.107   1.659   3.092  0.7534 -0.3526 -0.4793
   30MOL   C48520263   4.046   1.718   2.963 -0.7714 -0.0748 -0.3876
   30MOL   C48620264   4.107   1.661   2.830  0.9208 -0.0518 -0.2716
   30MOL   C48720265   4.013   1.699   2.712  0.6026  0.0049  0.4884
   30MOL   C48820266   4.083   1.666   2.582  0.0127 -0.6494 -0.1516
   30MOL   C48920267   4.203   1.752   2.549  0.0286  0.2612 -0.4179
   30MOL   O49020268   4.205   1.869   2.587  0.5510 -0.4601  0.6634
   30MOL   H49120269   4.222   1.635   3.834  0.3840  0.0957  1.3066
   30MOL   H49220270   4.047   1.843   3.725  0.0054 -0.7107 -0.0454
   30MOL   H49320271   4.220   1.864   3.721  0.5712  0.0532  0.7436
   30MOL   H49420272   4.151   1.593   3.613  1.2053  0.0003  1.3269
   30MOL   H49520273   4.287   1.702   3.575  0.9118 -1.8550  0.9842
   30MOL   H49620274   3.987   1.725   3.489 -0.7470  0.1201 -1.3262
   30MOL   H49720275   4.099   1.855   3.454  0.1982 -0.2780 -2.2479
   30MOL   H49820276   4.137   1.588   3.339  3.1640  0.5137  0.0759
   30MOL   H49920277   4.239   1.723   3.317 -0.2730 -0.3071  1.2576
   30MOL   H50020278   4.091   1.851   3.196  0.9576  0.0420 -0.8365
   30MOL   H50120279   3.954   1.731   3.214  0.5232 -0.1944  0.6218
   30MOL   H50220280   4.216   1.653   3.079  0.8076 -1.1636  0.2809
   30MOL   H50320281   4.067   1.557   3.098 -1.8735  0.6388 -0.6794
   30MOL   H50420282   4.063   1.826   2.969 -0.4919 -0.2233  1.8667
   30MOL   H50520283   3.938   1.705   2.958 -1.0360  1.2942  1.2752
   30MOL   H50620284   4.209   1.693   2.808  0.8127  0.3432 -0.2003
   30MOL   H50720285   4.110   1.553   2.841 -0.7197 -0.0877 -0.0246
   30MOL   H50820286   3.985   1.803   2.728  1.1043  0.2405 -0.1686
   30MOL   H50920287   3.919   1.644   2.718  0.5131  0.4296  4.0497
   30MOL   H51020288   4.006   1.686   2.507 -1.5027 -0.5918  1.3678
   30MOL   H51120289   4.090   1.559   2.567 -0.1917 -0.3027 -2.9157
   30MOL   N51220290   4.306   1.691   2.491  0.6324 -0.5796 -0.8276
   30MOL   C51320291   4.440   1.741   2.468  0.0364 -0.4604  0.0127
   30MOL   C51420292   4.541   1.635   2.528 -0.5663 -0.0771 -0.0370
   30MOL   C51520293   4.520   1.588   2.678 -0.2292 -0.0037 -0.3383
   30MOL   C51620294   4.576   1.440   2.703  0.4045 -1.0590  0.8576
   30MOL   C51720295   4.573   1.391   2.847  0.1050  0.4048  0.9543
   30MOL   C51820296   4.427   1.393   2.899  0.1465 -1.0474 -0.4290
   30MOL   C51920297   4.426   1.303   3.026 -0.6235 -0.3883 -0.0962
   30MOL   C52020298   4.309   1.329   3.113  0.3532 -0.1748 -0.1413
   30MOL   C52120299   4.306   1.251   3.245  0.3018  0.0209 -0.3771
   30MOL   C52220300   4.163   1.276   3.318 -0.1069 -0.7006  0.5639
   30MOL   C52320301   4.145   1.213   3.459  0.5303 -0.0164  0.0588
   30MOL   O52420302   4.218   1.114   3.490 -0.3079 -0.0200  0.1433
   30MOL   H52520303   4.291   1.601   2.448 -0.4723 -1.5925  1.5950
   30MOL   H52620304   4.453   1.768   2.364  0.8449 -2.4420 -0.4186
   30MOL   H52720305   4.446   1.838   2.517 -1.5574 -0.7699  0.8883
   30MOL   H52820306   4.645   1.667   2.516 -0.3710  0.1630  1.9921
   30MOL   H52920307   4.525   1.550   2.462 -2.0401 -0.8739  1.3210
   30MOL   H53020308   4.572   1.658   2.743 -1.3027  0.7388 -0.2574
   30MOL   H53120309   4.417   1.582   2.713  0.4900 -0.3277  1.7514
   30MOL   H53220310   4.681   1.445   2.674 -0.8487 -2.5390 -4.3628
   30MOL   H53320311   4.540   1.372   2.626 -0.6870  0.6040 -0.1254
   30MOL   H53420312   4.638   1.450   2.912  0.2288  0.4424  0.7974
   30MOL   H53520313   4.612   1.290   2.854 -1.1522 -0.0525  1.4787
   30MOL   H53620314   4.396   1.494   2.922 -4.0313 -1.9646 -1.6113
   30MOL   H53720315   4.363   1.354   2.820  0.9586 -0.5332 -1.3564
   30MOL   H53820316   4.513   1.326   3.088 -1.2732  0.8872  0.3714
   30MOL   H53920317   4.445   1.201   2.992  0.1274  0.3288 -1.9066
   30MOL   H54020318   4.307   1.436   3.135 -3.5020  0.0775 -1.4153
   30MOL   H54120319   4.219   1.305   3.057  0.2375 -0.2634  0.0841
   30MOL   H54220320   4.387   1.295   3.302 -0.5180  2.5577 -1.1028
   30MOL   H54320321   4.320   1.144   3.228 -2.0688 -0.4235  0.2444
   30MOL   H54420322   4.073   1.260   3.259 -0.5358  2.4669  0.2526
   30MOL   H54520323   4.155   1.383   3.336  2.2599 -0.4067  0.0801
   30MOL   N54620324   4.056   1.268   3.541  0.2372  0.2841  0.3414
   30MOL   C54720325   4.026   1.236   3.683  0.0139 -0.0925  0.2989
   30MOL   C54820326   4.130   1.293   3.776 -0.1596 -0.1429 -0.7006
   30MOL   C54920327   4.079   1.265   3.926 -0.0321 -0.2752 -0.2729
   30MOL   C55020328   4.170   1.350   4.022 -0.3089  0.0225  0.0095
   30MOL   C55120329   4.303   1.281   4.061  0.2150  0.2439 -0.1668
   30MOL   C55220330   4.390   1.373   4.140 -0.4074 -0.6687 -0.7553
   30MOL   C55320331   4.536   1.317   4.164  0.1850 -0.2078  0.2423
   30MOL   C55420332   4.638   1.429   4.194 -0.1223  0.2632  0.0270
   30MOL   C55520333   4.702   1.412   4.328 -0.4808  0.2993 -0.7929
   30MOL   C55620334   4.790   1.527   4.370 -0.1280  0.2281  0.2787
   30MOL   C55720335   4.874   1.496   4.504 -0.3977 -0.5383  0.2447
   30MOL   O55820336   4.887   1.381   4.542 -0.0753  0.6943  0.3845
   30MOL   H55920337   4.007   1.349   3.505 -0.7663 -0.6412 -0.3987
   30MOL   H56020338   3.931   1.288   3.694 -0.0847 -0.0161 -0.9030
   30MOL   H56120339   4.010   1.130   3.703  0.0080 -0.2207 -0.4012
   30MOL   H56220340   4.131   1.397   3.746 -1.1156 -0.0655 -0.4898
   30MOL   H56320341   4.229   1.250   3.769  0.5059  1.1831  0.4483
   30MOL   H56420342   3.979   1.304   3.946  0.5713 -0.1580  2.8523
   30MOL   H56520343   4.059   1.161   3.952 -0.3122 -1.1148 -3.6360
   30MOL   H56620344   4.118   1.381   4.112 -2.6449 -1.3397 -0.8361
   30MOL   H56720345   4.190   1.444   3.971  3.5070  0.2801  1.8296
   30MOL   H56820346   4.364   1.255   3.974  2.2195 -0.8800  1.5326
   30MOL   H56920347   4.289   1.188   4.114  2.3422 -0.7110 -1.1853
   30MOL   H57020348   4.400   1.459   4.075  1.7901 -0.6482 -0.4345
   30MOL   H57120349   4.348   1.404   4.236  0.8595 -0.7862 -0.1492
   30MOL   H57220350   4.581   1.254   4.087 -1.7881  0.9570 -1.9283
   30MOL   H57320351   4.529   1.245   4.245 -0.3667  0.4898  0.8207
   30MOL   H57420352   4.714   1.431   4.115 -0.3823  1.0153 -0.2048
   30MOL   H57520353   4.596   1.529   4.189 -1.9351 -0.5018 -0.4176
   30MOL   H57620354   4.771   1.328   4.328  0.1381  0.8035  0.0670
   30MOL   H57720355   4.628   1.398   4.406  0.7612 -2.0372 -0.0061
   30MOL   H57820356   4.740   1.623   4.388  0.9411  0.6001  1.2563
   30MOL   H57920357   4.862   1.537   4.288 -1.1461 -1.5052 -0.8556
   30MOL   N58020358   4.935   1.598   4.565  0.5974 -0.2211  0.4646
   30MOL   C58120359   5.004   1.582   4.695 -0.0754 -0.0394  0.6415
   30MOL   C58220360   5.059   1.728   4.717 -0.8231  0.1469  0.0303
   30MOL   C58320361   5.125   1.750   4.856  0.4043  0.0843 -0.0080
   30MOL   C58420362   5.180   1.889   4.883 -0.5531 -0.1618  0.4493
   30MOL   C58520363   5.183   1.912   5.034  0.4465 -1.0959 -0.0733
   30MOL   C58620364   5.256   2.038   5.072  0.3716 -0.6642 -0.3043
   30MOL   C58720365   5.280   2.060   5.230  0.0583 -0.8897 -0.4544
   30MOL   C58820366   5.388   2.168   5.275 -0.0079 -0.2362 -0.6809
   30MOL   C58920367   5.533   2.116   5.251 -0.6484 -0.1398 -0.1201
   30MOL   C59020368   5.644   2.220   5.276  0.0085  0.0310  0.0606
   30MOL   C59120369   5.646   2.333   5.171 -0.4970  0.5717  0.3514
   30MOL   O59220370   5.654   2.302   5.052 -0.0598  0.0748  0.7407
   30MOL   H59320371   4.940   1.683   4.511 -3.7602  1.4542  2.4838
   30MOL   H59420372   4.943   1.543   4.776  1.6763 -1.1879  1.4286
   30MOL   H59520373   5.078   1.505   4.675 -3.2854 -3.0275 -0.2226
   30MOL   H59620374   4.974   1.795   4.701 -0.7260 -0.5284 -3.7151
   30MOL   H59720375   5.132   1.756   4.641 -1.3752  1.0026 -0.1865
   30MOL   H59820376   5.055   1.722   4.935 -0.3363 -0.4735 -0.8482
   30MOL   H59920377   5.206   1.680   4.876  0.8991  0.9946  1.2121
   30MOL   H60020378   5.119   1.964   4.832 -0.1358 -0.9401 -1.2264
   30MOL   H60120379   5.282   1.904   4.847 -0.2099  1.1261  1.8997
   30MOL   H60220380   5.226   1.826   5.085 -0.4388  0.1123  2.8059
   30MOL   H60320381   5.077   1.922   5.061  0.4075 -0.7214 -0.3771
   30MOL   H60420382   5.353   2.045   5.023  1.6906  2.4370  2.6073
   30MOL   H60520383   5.194   2.120   5.036  0.7435  0.7145  2.1587
   30MOL   H60620384   5.315   1.969   5.279 -2.7990 -1.5235  0.5598
   30MOL   H60720385   5.186   2.074   5.283 -0.9629 -1.2761 -2.1148
   30MOL   H60820386   5.384   2.266   5.229 -0.2492  0.0901  0.0313
   30MOL   H60920387   5.382   2.185   5.383  0.0760 -1.2381 -0.5129
   30MOL   H61020388   5.545   2.085   5.147 -0.3832  0.4388 -0.2604
   30MOL   H61120389   5.545   2.028   5.314  1.7569  0.4259  0.2619
   30MOL   H61220390   5.737   2.164   5.281  0.3868  0.8030  2.2208
   30MOL   H61320391   5.635   2.273   5.371 -0.0235  1.6612 -0.8326
   30MOL   N61420392   5.632   2.459   5.210 -0.3376 -0.1880  0.4228
   30MOL   C61520393   5.587   2.577   5.133 -0.2049 -0.1027  0.4971
   30MOL   C61620394   5.451   2.631   5.169 -0.1008  0.0012  0.6053
   30MOL   C61720395   5.435   2.698   5.306 -0.6147  0.0892  0.1962
   30MOL   C61820396   5.290   2.710   5.342 -0.5465  0.3635  0.0378
   30MOL   C61920397   5.224   2.568   5.383  0.5188 -0.3084 -0.6820
   30MOL   C62020398   5.076   2.579   5.409  0.0338  0.8398  0.3016
   30MOL   C62120399   5.011   2.441   5.410  0.4315  0.4366  0.0730
   30MOL   C62220400   4.891   2.441   5.503 -0.1404  0.5326 -0.2801
   30MOL   C62320401   4.808   2.308   5.516  0.1244 -0.2451  0.0501
   30MOL   C62420402   4.665   2.305   5.584 -0.0391  0.4770 -0.2569
   30MOL   C62520403   4.552   2.360   5.495  0.5564  0.3200 -0.2468
   30MOL   O62620404   4.560   2.357   5.369  0.7505 -0.0958 -0.6647
   30MOL   H62720405   5.604   2.467   5.307 -0.4806  0.2310  0.3458
   30MOL   H62820406   5.585   2.544   5.029  2.0819 -2.1591  1.0617
   30MOL   H62920407   5.665   2.651   5.151  0.1518 -0.4612  0.4342
   30MOL   H63020408   5.394   2.538   5.157  0.2202 -0.0053 -0.9983
   30MOL   H63120409   5.408   2.702   5.098 -1.0455 -0.1143  1.0438
   30MOL   H63220410   5.498   2.657   5.385 -1.9262  0.9641  1.7373
   30MOL   H63320411   5.477   2.799   5.300  0.5929 -0.4648 -0.9609
   30MOL   H63420412   5.228   2.739   5.257 -0.1829  1.8614  0.2589
   30MOL   H63520413   5.268   2.775   5.427  0.1396 -3.0625  2.9290
   30MOL   H63620414   5.273   2.532   5.473 -0.3567 -0.5307 -0.2888
   30MOL   H63720415   5.250   2.492   5.309 -0.5236 -0.8789 -0.4703
   30MOL   H63820416   5.053   2.629   5.503 -2.6194 -0.8534  0.6265
   30MOL   H63920417   5.038   2.649   5.335  1.1976  1.0029 -0.1437
   30MOL   H64020418   5.085   2.367   5.442 -0.2431 -0.4461 -0.3846
   30MOL   H64120419   4.975   2.406   5.313 -2.1531  0.2796  1.0449
   30MOL   H64220420   4.920   2.468   5.604 -1.9426 -2.2151  1.0187
   30MOL   H64320421   4.833   2.525   5.464  0.7262  1.0163 -0.5423
   30MOL   H64420422   4.872   2.246   5.579 -0.8600  0.1146  1.4305
   30MOL   H64520423   4.798   2.257   5.420  2.3783  0.7128 -0.7290
   30MOL   H64620424   4.664   2.366   5.674  0.9517  0.1952 -0.0500
   30MOL   H64720425   4.653   2.200   5.609  0.5717  0.8872  1.8216
   30MOL   N64820426   4.448   2.408   5.561  0.0667  0.1045 -0.3092
   30MOL   C64920427   4.313   2.456   5.519  0.0672  1.0856 -0.4120
   30MOL   C65020428   4.223   2.333   5.496  0.2072  0.3868  0.4537
   30MOL   C65120429   4.082   2.372   5.435 -0.0192  0.3452  0.0253
   30MOL   C65220430   3.996   2.252   5.390 -0.9591  0.7906 -0.0296
   30MOL   C65320431   3.911   2.273   5.264  0.3398  0.0913 -0.0110
   30MOL   C65420432   3.855   2.143   5.202 -0.9817 -0.2562  0.3081
   30MOL   C65520433   3.720   2.107   5.254 -0.5376 -0.3678  0.7827
   30MOL   C65620434   3.722   2.007   5.369 -0.0846  0.6588  0.4314
   30MOL   C65720435   3.584   1.979   5.413 -0.2008 -0.0485 -0.3276
   30MOL   C65820436   3.565   1.922   5.548 -0.6148 -0.2575  0.1234
   30MOL   C65920437   3.419   1.890   5.587  0.0639 -0.7126 -0.0230
   30MOL   O66020438   3.330   1.965   5.564  0.3172 -0.1475  0.2405
   30MOL   H66120439   4.460   2.398   5.661 -0.8784 -0.5091 -0.2551
   30MOL   H66220440   4.304   2.511   5.425 -2.5966  0.3471 -0.6168
   30MOL   H66320441   4.272   2.515   5.600  1.1585 -0.5395  1.3679
   30MOL   H66420442   4.206   2.272   5.585  0.4635  0.3579  0.4826
   30MOL   H66520443   4.268   2.266   5.423  0.9258  0.9996  0.3336
   30MOL   H66620444   4.022   2.432   5.503  1.5256  1.4384  0.4286
   30MOL   H66720445   4.094   2.441   5.352 -1.0459 -0.4402 -0.7958
   30MOL   H66820446   3.922   2.225   5.466  1.1705  0.9094  2.1192
   30MOL   H66920447   4.052   2.159   5.386 -3.2016 -0.5700 -1.0459
   30MOL   H67020448   3.968   2.326   5.188 -1.0223 -1.4797 -2.2026
   30MOL   H67120449   3.825   2.333   5.296 -1.5358 -2.5949  0.1795
   30MOL   H67220450   3.859   2.132   5.094  1.3146 -0.3988  0.3897
   30MOL   H67320451   3.914   2.057   5.232 -0.2138  0.4809  0.9489
   30MOL   H67420452   3.666   2.055   5.175  0.5616  0.4062 -0.4864
   30MOL   H67520453   3.661   2.195   5.279 -1.6600 -1.0962  0.7423
   30MOL   H67620454   3.773   1.919   5.329 -0.2876 -0.4556  2.5232
   30MOL   H67720455   3.781   2.043   5.453 -0.5165 -0.0973  1.0714
   30MOL   H67820456   3.518   1.929   5.342  1.8224 -0.3404 -2.0613
   30MOL   H67920457   3.534   2.074   5.432  0.2788 -0.2141  1.8959
   30MOL   H68020458   3.591   1.995   5.625 -0.6901  0.1010 -0.1902
   30MOL   H68120459   3.628   1.835   5.566 -1.9305 -0.9812  1.3316
   30MOL   H68220460   3.393   1.796   5.636  0.5630 -0.4878  0.6892
   31MOL     N120461   2.571   1.786   3.329  0.2482  0.7560 -0.0458
   31MOL     C220462   2.640   1.658   3.311 -0.3684  0.1351 -0.1513
   31MOL     C320463   2.714   1.649   3.179  0.8110 -0.5708  0.0033
   31MOL     C420464   2.836   1.555   3.188 -0.3251  0.0795  0.6044
   31MOL     C520465   2.919   1.539   3.057  0.4656 -0.8397  0.3423
   31MOL     C620466   2.859   1.445   2.956 -0.2952 -0.4029 -0.5466
   31MOL     C720467   2.943   1.415   2.833 -0.8699  0.4849 -0.3121
   31MOL     C820468   2.894   1.315   2.728  0.4583  0.0649 -0.4760
   31MOL     C920469   2.891   1.164   2.765  0.4952  0.8072 -0.1964
   31MOL    C1020470   3.031   1.104   2.793 -0.9829  0.5062  0.7376
   31MOL    C1120471   3.109   1.091   2.663  0.0140 -0.3798 -0.4308
   31MOL    C1220472   3.236   1.008   2.676  1.3662 -0.8187 -0.4064
   31MOL    O1320473   3.227   0.890   2.711 -0.5014 -0.1638 -0.0111
   31MOL    H1420474   2.501   1.794   3.257  2.1073 -2.4654 -2.3117
   31MOL    H1520475   2.565   1.580   3.324  0.3850 -0.9572 -2.1369
   31MOL    H1620476   2.706   1.648   3.397 -2.5802 -4.2728  1.1411
   31MOL    H1720477   2.763   1.745   3.165  0.0690 -0.4248 -1.6749
   31MOL    H1820478   2.650   1.624   3.095 -0.3012 -0.4363  0.8053
   31MOL    H1920479   2.904   1.601   3.260  1.4782 -0.9693 -0.3950
   31MOL    H2020480   2.804   1.459   3.230 -1.1992 -0.1211 -0.5110
   31MOL    H2120481   3.019   1.502   3.080  1.1913  2.1019  2.2535
   31MOL    H2220482   2.933   1.636   3.009 -1.1739 -0.8399 -0.1434
   31MOL    H2320483   2.773   1.500   2.919  0.6977  0.1705 -2.0043
   31MOL    H2420484   2.815   1.358   3.006  2.2556 -0.6716  1.3200
   31MOL    H2520485   2.976   1.503   2.779  3.4463 -0.3420  0.7894
   31MOL    H2620486   3.032   1.370   2.877 -0.2672 -0.3345 -2.3106
   31MOL    H2720487   2.963   1.326   2.644 -0.4902  1.6652 -1.0701
   31MOL    H2820488   2.796   1.337   2.685  0.6951  1.0573 -0.5187
   31MOL    H2920489   2.824   1.152   2.850 -1.1793  1.5692 -1.3832
   31MOL    H3020490   2.840   1.116   2.681 -1.9030  2.9879 -0.0675
   31MOL    H3120491   3.007   1.004   2.829 -1.3586  1.4855  3.3653
   31MOL    H3220492   3.084   1.149   2.877  4.3046 -3.7196 -0.0889
   31MOL    H3320493   3.136   1.189   2.624 -0.4014 -0.2781 -0.4664
   31MOL    H3420494   3.043   1.052   2.585  0.7270 -0.7045 -0.8757
   31MOL    H3520495   2.524   1.773   3.417  2.2127  0.2808  0.9705
   31MOL    N3620496   3.346   1.075   2.648 -0.1128  0.0061 -0.4642
   31MOL    C3720497   3.480   1.016   2.660  0.6520 -0.0716 -0.2261
   31MOL    C3820498   3.540   0.980   2.523 -1.0073 -0.4866  0.4350
   31MOL    C3920499   3.692   0.939   2.524 -0.1942 -1.3065  0.4274
   31MOL    C4020500   3.716   0.799   2.591 -0.4447  0.1136  0.4060
   31MOL    C4120501   3.858   0.749   2.559  0.3589  0.1303  0.0099
   31MOL    C4220502   3.882   0.615   2.640  0.4668 -0.7904  0.3559
   31MOL    C4320503   4.013   0.544   2.606 -0.3188  0.1526  0.7237
   31MOL    C4420504   4.042   0.406   2.675 -0.1463 -0.5283  0.0902
   31MOL    C4520505   3.922   0.306   2.664 -0.1526  0.6228 -0.2767
   31MOL    C4620506   3.936   0.170   2.736  0.1206  0.1419  0.2867
   31MOL    C4720507   3.917   0.174   2.884  0.4828 -0.5219  0.6594
   31MOL    O4820508   3.807   0.222   2.927 -0.2745  0.2841 -0.1702
   31MOL    H4920509   3.344   1.174   2.628 -0.8868 -0.0575 -0.6915
   31MOL    H5020510   3.541   1.097   2.701 -0.7768  0.1154  1.5566
   31MOL    H5120511   3.501   0.929   2.723 -0.4921 -0.2979 -0.1571
   31MOL    H5220512   3.517   1.052   2.444  1.6383  1.1074  1.0642
   31MOL    H5320513   3.485   0.892   2.492 -1.7653 -0.2317  1.0322
   31MOL    H5420514   3.717   0.928   2.419  1.7538  0.6070  0.6533
   31MOL    H5520515   3.760   1.014   2.565 -0.2679 -0.7564 -0.4437
   31MOL    H5620516   3.644   0.724   2.557 -0.7967  1.6947 -2.5021
   31MOL    H5720517   3.705   0.807   2.699  0.1082  0.6862  0.4211
   31MOL    H5820518   3.940   0.813   2.591 -1.0320  3.0558 -2.0679
   31MOL    H5920519   3.865   0.720   2.454  1.0425  0.5119 -0.0554
   31MOL    H6020520   3.879   0.643   2.745 -2.4581  2.8635 -0.5896
   31MOL    H6120521   3.799   0.545   2.626 -0.3901  0.5217 -1.3312
   31MOL    H6220522   4.093   0.612   2.633 -0.2653  0.4200 -0.0983
   31MOL    H6320523   4.017   0.535   2.498 -1.4616  1.3692  0.5664
   31MOL    H6420524   4.136   0.369   2.634  1.1575  0.9391  1.6807
   31MOL    H6520525   4.063   0.432   2.779 -0.3672  0.2138 -0.0463
   31MOL    H6620526   3.904   0.282   2.559 -0.5927  0.9550 -0.2774
   31MOL    H6720527   3.832   0.356   2.698 -0.4936 -0.8248  1.0303
   31MOL    H6820528   4.032   0.122   2.715 -0.6368 -0.0546 -3.0898
   31MOL    H6920529   3.872   0.094   2.690  0.7554 -0.7526  0.8496
   31MOL    N7020530   4.025   0.148   2.958 -0.2026  0.4673 -0.0085
   31MOL    C7120531   4.037   0.182   3.094 -0.0936  0.5066 -0.5788
   31MOL    C7220532   4.128   0.304   3.136 -0.0373 -0.1807  0.5880
   31MOL    C7320533   4.273   0.269   3.100  0.3838  0.0588 -0.0356
   31MOL    C7420534   4.385   0.371   3.132  0.9173 -0.5177  0.8509
   31MOL    C7520535   4.522   0.315   3.132  0.6788 -0.0402 -0.7386
   31MOL    C7620536   4.625   0.428   3.150  0.0606  1.1540  0.4391
   31MOL    C7720537   4.770   0.375   3.136 -0.7348 -0.2903 -0.2092
   31MOL    C7820538   4.871   0.494   3.113 -0.3002  0.4871  0.1906
   31MOL    C7920539   5.015   0.438   3.089  0.0788 -0.1586  0.4021
   31MOL    C8020540   5.110   0.557   3.066 -1.1408  1.0039 -0.8704
   31MOL    C8120541   5.096   0.634   2.941 -0.0304 -0.0099 -0.0208
   31MOL    O8220542   5.086   0.569   2.837 -0.7311 -0.4343  0.5959
   31MOL    H8320543   4.093   0.093   2.906  0.7582  0.9451  0.7284
   31MOL    H8420544   3.943   0.211   3.142  0.3601  3.4332 -1.3701
   31MOL    H8520545   4.077   0.091   3.140 -1.8885  0.9610  2.0067
   31MOL    H8620546   4.123   0.329   3.242  2.0864  0.3798  0.5856
   31MOL    H8720547   4.082   0.392   3.092  0.1482 -0.0823  0.5868
   31MOL    H8820548   4.291   0.176   3.154 -3.2737 -0.5445  0.2575
   31MOL    H8920549   4.276   0.246   2.993  0.8649  1.0981 -0.2481
   31MOL    H9020550   4.361   0.431   3.219 -0.1661  0.2319  0.0545
   31MOL    H9120551   4.382   0.452   3.058  0.8398 -0.3513  1.0378
   31MOL    H9220552   4.531   0.264   3.036 -1.8960  1.6193 -1.9079
   31MOL    H9320553   4.524   0.232   3.203  1.5733 -0.0854 -0.8075
   31MOL    H9420554   4.600   0.495   3.067  4.1001  0.4253 -1.5230
   31MOL    H9520555   4.611   0.481   3.244 -0.8360  0.0002  0.9618
   31MOL    H9620556   4.776   0.320   3.042  2.9790  1.7723 -1.2919
   31MOL    H9720557   4.799   0.317   3.223  0.4631 -0.6061 -0.8055
   31MOL    H9820558   4.830   0.548   3.027  1.0611  0.3812 -0.5367
   31MOL    H9920559   4.877   0.565   3.196 -1.9034 -2.6598  3.0816
   31MOL   H10020560   5.010   0.376   3.000 -0.2594 -0.5865  0.7144
   31MOL   H10120561   5.051   0.371   3.167  3.2524  0.2238 -0.6770
   31MOL   H10220562   5.207   0.510   3.080 -2.0646 -0.2763  1.5560
   31MOL   H10320563   5.108   0.631   3.146  0.3326  0.6490 -0.4806
   31MOL   N10420564   5.084   0.767   2.946 -0.0389  0.5616  0.4315
   31MOL   C10520565   5.061   0.853   2.831  0.2130  0.1853 -0.1377
   31MOL   C10620566   5.046   0.998   2.880  0.3672 -0.6271 -0.4491
   31MOL   C10720567   5.056   1.106   2.775  0.3123  0.6642 -0.2234
   31MOL   C10820568   5.046   1.237   2.847  0.2614  0.0780 -0.0189
   31MOL   C10920569   5.031   1.351   2.742 -0.2097 -0.2185  0.2462
   31MOL   C11020570   4.999   1.489   2.804 -0.0447  0.1779  0.0479
   31MOL   C11120571   4.964   1.601   2.708  0.0269  0.7818  1.0295
   31MOL   C11220572   4.928   1.731   2.778 -0.1009 -0.3984 -0.0691
   31MOL   C11320573   4.913   1.848   2.684  0.1719  0.0704  0.5230
   31MOL   C11420574   4.861   1.963   2.762  0.2895 -0.5567  0.2106
   31MOL   C11520575   4.967   2.054   2.813 -0.5474 -0.2705  0.0031
   31MOL   O11620576   5.061   2.014   2.883 -0.8159 -0.1108  0.1005
   31MOL   H11720577   5.061   0.810   3.034 -0.8925 -0.5956  0.7927
   31MOL   H11820578   5.149   0.848   2.767  0.9681 -1.8409  1.0389
   31MOL   H11920579   4.980   0.816   2.768  0.9738  1.0387 -1.6231
   31MOL   H12020580   5.114   1.014   2.963  0.9147 -0.9533 -0.8320
   31MOL   H12120581   4.949   0.995   2.929 -0.0902 -1.5003 -1.3921
   31MOL   H12220582   5.155   1.109   2.729 -0.4678  4.6804 -1.8309
   31MOL   H12320583   4.973   1.105   2.705 -0.1424  0.0867  0.3241
   31MOL   H12420584   5.137   1.247   2.906 -0.0458  0.2703  0.4205
   31MOL   H12520585   4.956   1.244   2.909  0.0075  0.4788 -0.4274
   31MOL   H12620586   4.946   1.325   2.679  0.8690  0.3183 -1.4540
   31MOL   H12720587   5.114   1.366   2.674 -1.0532 -0.3767 -0.8303
   31MOL   H12820588   4.918   1.479   2.876  0.5121  3.5429  1.2523
   31MOL   H12920589   5.087   1.521   2.859  0.9920 -1.6983 -0.4820
   31MOL   H13020590   4.877   1.567   2.653 -0.1296 -1.4308  2.5597
   31MOL   H13120591   5.037   1.611   2.627 -1.1155  0.1452 -0.0997
   31MOL   H13220592   4.835   1.726   2.835 -1.1224  1.2990 -1.5379
   31MOL   H13320593   5.010   1.765   2.840  0.0968  0.7649 -0.9714
   31MOL   H13420594   4.829   1.835   2.616  1.3458  1.4582 -1.2900
   31MOL   H13520595   5.000   1.876   2.624  2.8630 -3.5574  2.5243
   31MOL   H13620596   4.813   1.921   2.851 -1.2681  0.0491 -0.3384
   31MOL   H13720597   4.794   2.028   2.706 -0.7016 -1.4292  0.3937
   31MOL   N13820598   4.947   2.188   2.792 -0.2754 -0.0581 -0.1233
   31MOL   C13920599   5.020   2.306   2.824 -0.8969 -0.5494  0.5609
   31MOL   C14020600   4.952   2.356   2.954  0.0358 -0.3304 -0.0266
   31MOL   C14120601   5.012   2.490   3.004  0.1476 -0.5012  0.1464
   31MOL   C14220602   5.156   2.481   3.060  0.5240  0.3958  0.2843
   31MOL   C14320603   5.193   2.607   3.137 -0.0301  0.1499 -0.9871
   31MOL   C14420604   5.347   2.629   3.148  0.4095 -0.2753 -0.2667
   31MOL   C14520605   5.375   2.748   3.245 -0.2974 -0.2660  0.5037
   31MOL   C14620606   5.371   2.716   3.394 -0.3362 -0.1938  0.1237
   31MOL   C14720607   5.418   2.816   3.489  0.0365 -0.1042  0.1168
   31MOL   C14820608   5.455   2.763   3.625  0.4836  0.5479  0.0782
   31MOL   C14920609   5.528   2.866   3.709 -0.1628  0.7053 -0.7843
   31MOL   O15020610   5.551   2.977   3.662  0.3223 -0.0211 -0.2063
   31MOL   H15120611   4.865   2.212   2.738  1.3148 -1.2969 -3.2545
   31MOL   H15220612   5.126   2.292   2.842 -0.8196 -1.0021 -0.2421
   31MOL   H15320613   5.011   2.375   2.740  2.1755 -2.0493 -1.0741
   31MOL   H15420614   4.969   2.280   3.030  0.6421 -0.9468 -0.7661
   31MOL   H15520615   4.849   2.387   2.936  0.5007  0.6033 -1.1457
   31MOL   H15620616   5.005   2.565   2.925  2.7638  0.6565  0.9405
   31MOL   H15720617   4.959   2.521   3.095  4.3946 -1.1089  2.9482
   31MOL   H15820618   5.224   2.474   2.975  1.1625 -0.9599  0.8813
   31MOL   H15920619   5.177   2.392   3.120 -0.3532  1.6260  2.4661
   31MOL   H16020620   5.147   2.589   3.234 -2.2361 -1.5637 -2.3033
   31MOL   H16120621   5.159   2.702   3.096 -0.6566  1.7200  2.9467
   31MOL   H16220622   5.397   2.538   3.184 -2.0182 -1.2091  0.8544
   31MOL   H16320623   5.395   2.655   3.054  3.0431 -0.4001  0.9753
   31MOL   H16420624   5.296   2.823   3.233 -0.2249  0.1890  2.6958
   31MOL   H16520625   5.457   2.816   3.220 -1.1018  0.1751 -1.0321
   31MOL   H16620626   5.270   2.687   3.425 -1.0519 -0.6031 -2.4645
   31MOL   H16720627   5.438   2.630   3.401 -1.1094 -0.8460 -0.3282
   31MOL   H16820628   5.347   2.898   3.502 -0.0219  0.0151 -0.9270
   31MOL   H16920629   5.512   2.849   3.444  0.2714 -1.1161 -0.1516
   31MOL   H17020630   5.532   2.686   3.619  2.1030  1.8525  3.0791
   31MOL   H17120631   5.368   2.724   3.678  0.4638  2.7417  1.7240
   31MOL   N17220632   5.550   2.831   3.833  0.2816 -0.4841  0.2236
   31MOL   C17320633   5.602   2.901   3.943  0.2998 -0.4293 -0.5550
   31MOL   C17420634   5.503   2.987   4.027  0.0456  0.0260  0.0574
   31MOL   C17520635   5.578   3.079   4.119  0.3958  0.0335 -0.6900
   31MOL   C17620636   5.479   3.164   4.211 -0.1851 -0.2146 -0.9506
   31MOL   C17720637   5.541   3.285   4.271 -0.4035  1.0048 -0.1148
   31MOL   C17820638   5.642   3.275   4.394  0.4464  0.0887  0.2737
   31MOL   C17920639   5.572   3.252   4.524 -0.7762  0.0455 -0.4601
   31MOL   C18020640   5.660   3.230   4.646 -0.4033 -0.2494  0.3038
   31MOL   C18120641   5.753   3.337   4.679 -0.2347  0.8033  0.7054
   31MOL   C18220642   5.871   3.292   4.756  0.3112  0.2166 -0.0697
   31MOL   C18320643   5.989   3.263   4.660 -0.0205  0.2709 -0.4176
   31MOL   O18420644   5.981   3.183   4.562 -0.3168  0.2102  0.0877
   31MOL   H18520645   5.502   2.745   3.857 -0.5448 -0.5545 -1.6239
   31MOL   H18620646   5.656   2.834   4.011  0.9419 -1.6969 -2.2892
   31MOL   H18720647   5.665   2.980   3.902 -0.7844  1.3877  1.1507
   31MOL   H18820648   5.439   2.921   4.086  0.7256  1.2223  2.1836
   31MOL   H18920649   5.440   3.051   3.965  0.0269 -1.7583 -1.7827
   31MOL   H19020650   5.639   3.023   4.190 -2.2337 -1.5594  0.4288
   31MOL   H19120651   5.646   3.148   4.071  1.8718  0.0213  1.3384
   31MOL   H19220652   5.428   3.112   4.292  1.3712  1.4849  1.1820
   31MOL   H19320653   5.403   3.197   4.141 -1.0862 -1.1043 -0.4194
   31MOL   H19420654   5.473   3.361   4.309  1.5401  2.3422  0.8403
   31MOL   H19520655   5.592   3.350   4.200  2.1161  1.2778  1.8621
   31MOL   H19620656   5.716   3.195   4.384  0.1814 -0.0818 -0.3158
   31MOL   H19720657   5.692   3.372   4.397 -2.8097  1.8757 -0.6731
   31MOL   H19820658   5.526   3.154   4.510  0.0057 -0.5312  0.9731
   31MOL   H19920659   5.500   3.331   4.543  1.8104  2.2575  0.4461
   31MOL   H20020660   5.600   3.210   4.735  1.0625  0.6748  1.5211
   31MOL   H20120661   5.720   3.139   4.637  0.1109 -0.3134  3.7158
   31MOL   H20220662   5.697   3.406   4.743  1.7405  1.5569  1.6611
   31MOL   H20320663   5.784   3.384   4.586 -0.7798 -1.0464 -0.4453
   31MOL   H20420664   5.846   3.197   4.804 -0.8249  1.0520  1.0196
   31MOL   H20520665   5.897   3.371   4.827 -0.8336  0.5932 -0.0624
   31MOL   N20620666   6.098   3.338   4.675 -0.0218 -0.3838 -0.7934
   31MOL   C20720667   6.208   3.345   4.581 -0.0952  0.0228  0.1083
   31MOL   C20820668   6.356   3.334   4.640 -0.0438  0.2976 -0.1745
   31MOL   C20920669   6.467   3.335   4.536  0.4941  0.0355  0.2534
   31MOL   C21020670   6.446   3.215   4.445 -0.3872  0.4256 -0.4540
   31MOL   C21120671   6.579   3.201   4.367  0.4009 -0.6354  0.0253
   31MOL   C21220672   6.559   3.107   4.250 -0.0025 -0.3955 -0.1172
   31MOL   C21320673   6.520   3.191   4.124 -0.4291  0.1261 -0.6594
   31MOL   C21420674   6.468   3.103   4.011 -0.2766 -0.1973  0.8764
   31MOL   C21520675   6.321   3.056   4.042 -0.4440  0.0754 -0.1019
   31MOL   C21620676   6.224   3.168   4.051  0.3947  0.3913  0.1801
   31MOL   C21720677   6.099   3.137   4.138  0.4385 -0.0056  0.0495
   31MOL   O21820678   6.062   3.018   4.157 -0.3808  0.3676  0.4596
   31MOL   H21920679   6.103   3.406   4.749 -1.9597 -1.2831  0.2021
   31MOL   H22020680   6.193   3.441   4.532  1.4556  0.8164  1.1515
   31MOL   H22120681   6.197   3.265   4.508 -0.6927  1.4254 -1.3950
   31MOL   H22220682   6.362   3.243   4.700 -0.3948  0.1702 -0.3354
   31MOL   H22320683   6.367   3.418   4.709  0.1758 -0.9145  1.3087
   31MOL   H22420684   6.462   3.426   4.477  1.6562  0.2960  0.5441
   31MOL   H22520685   6.568   3.325   4.574  0.6081  0.2896  0.0177
   31MOL   H22620686   6.367   3.227   4.371 -2.1721  0.3341  1.3980
   31MOL   H22720687   6.427   3.121   4.496 -2.4453  0.8062 -0.4660
   31MOL   H22820688   6.652   3.165   4.440  0.7968 -2.3481 -1.1929
   31MOL   H22920689   6.616   3.297   4.331  0.7698 -0.1253  1.6981
   31MOL   H23020690   6.661   3.070   4.241  0.7068  1.6533 -0.8031
   31MOL   H23120691   6.493   3.021   4.264  0.3941 -0.8547 -0.9798
   31MOL   H23220692   6.610   3.232   4.079 -0.5791 -0.1557 -1.2225
   31MOL   H23320693   6.457   3.273   4.159  0.4514  0.8622 -0.7911
   31MOL   H23420694   6.470   3.160   3.919 -1.8997 -1.1593  0.2082
   31MOL   H23520695   6.529   3.013   4.004 -0.9109 -0.6334  0.9112
   31MOL   H23620696   6.308   2.998   4.133 -2.8358  0.6646 -0.0489
   31MOL   H23720697   6.282   2.981   3.972  2.3017 -0.4167 -1.1656
   31MOL   H23820698   6.196   3.185   3.946 -1.8820 -1.3811  0.4555
   31MOL   H23920699   6.273   3.263   4.072  1.1171 -0.0382  0.4216
   31MOL   N24020700   6.019   3.229   4.186 -0.6404 -0.4946 -0.5544
   31MOL   C24120701   6.035   3.375   4.156  0.1090 -0.5774  0.2324
   31MOL   C24220702   5.910   3.448   4.213 -0.2090 -0.0126 -0.3877
   31MOL   C24320703   5.892   3.584   4.156 -0.4006  0.1942 -0.0012
   31MOL   C24420704   5.753   3.642   4.184 -0.5426 -0.2957  0.1821
   31MOL   C24520705   5.747   3.675   4.334  0.6890 -0.1139 -0.2008
   31MOL   C24620706   5.838   3.789   4.371  0.0261 -0.3326  0.1839
   31MOL   C24720707   5.799   3.871   4.498  0.3554 -0.3522  0.1962
   31MOL   C24820708   5.827   3.796   4.625 -0.4071  0.3387 -0.5079
   31MOL   C24920709   5.980   3.777   4.645  0.5076 -0.2498  0.4126
   31MOL   C25020710   6.016   3.726   4.785  0.8001 -0.1448 -0.1959
   31MOL   C25120711   6.168   3.701   4.788  0.4524 -0.3027  0.7508
   31MOL   O25220712   6.207   3.589   4.766 -0.5821 -0.1921 -0.2850
   31MOL   H25320713   5.948   3.206   4.254 -2.6282  0.8816 -2.0982
   31MOL   H25420714   6.035   3.385   4.048 -0.2853  0.7195  0.3375
   31MOL   H25520715   6.123   3.426   4.196  0.4131 -1.5533  0.8120
   31MOL   H25620716   5.911   3.452   4.322 -1.1749  0.9802 -0.4140
   31MOL   H25720717   5.819   3.397   4.184  0.4973 -1.7655  0.4063
   31MOL   H25820718   5.971   3.657   4.172 -0.7294  0.4514  0.4221
   31MOL   H25920719   5.880   3.574   4.048 -1.2262  2.4375 -0.1404
   31MOL   H26020720   5.676   3.570   4.159  0.6354 -1.7359  0.6466
   31MOL   H26120721   5.723   3.729   4.125 -2.5122 -0.4047  0.9747
   31MOL   H26220722   5.777   3.587   4.392  0.2341 -1.9402 -2.6519
   31MOL   H26320723   5.642   3.689   4.362  0.8142  1.1003 -0.3538
   31MOL   H26420724   5.942   3.760   4.378  0.0103 -0.1477  1.2146
   31MOL   H26520725   5.835   3.860   4.289  2.3043  0.0475  0.4016
   31MOL   H26620726   5.694   3.901   4.502  0.5373  0.2198  0.8143
   31MOL   H26720727   5.869   3.955   4.507 -0.1712  0.2056 -0.7939
   31MOL   H26820728   5.781   3.846   4.710  0.4587  1.8319 -0.9075
   31MOL   H26920729   5.778   3.699   4.616  3.6483 -1.7844 -0.9112
   31MOL   H27020730   6.038   3.865   4.619 -1.0650  1.0614  1.2288
   31MOL   H27120731   6.011   3.707   4.567 -0.2110  0.9386 -0.9773
   31MOL   H27220732   5.970   3.628   4.802 -0.1870  0.0071 -1.8355
   31MOL   H27320733   5.977   3.785   4.868  0.7919  0.8284 -0.8817
   31MOL   N27420734   6.245   3.807   4.806  0.9251  0.3932  0.2573
   31MOL   C27520735   6.389   3.794   4.824 -0.1711 -0.3593 -0.4752
   31MOL   C27620736   6.457   3.768   4.686  0.2073 -0.1968 -0.0434
   31MOL   C27720737   6.607   3.749   4.692 -0.3858 -0.6473 -0.0964
   31MOL   C27820738   6.646   3.609   4.756  0.1879  0.1371  0.1771
   31MOL   C27920739   6.784   3.572   4.706  0.1881 -0.2694  0.3618
   31MOL   C28020740   6.832   3.445   4.775  0.4178  0.3195  0.3559
   31MOL   C28120741   6.953   3.377   4.704 -0.0018  0.4197 -0.3670
   31MOL   C28220742   6.920   3.312   4.563 -0.2069 -0.1504  0.0996
   31MOL   C28320743   7.047   3.262   4.497 -0.3258 -0.0488 -0.4048
   31MOL   C28420744   7.013   3.152   4.396  0.1359 -0.1861 -0.5584
   31MOL   C28520745   6.981   3.014   4.444 -0.3200  0.1982  0.3878
   31MOL   O28620746   7.014   2.976   4.561 -0.7361 -0.0872 -0.2676
   31MOL   H28720747   6.203   3.898   4.795 -0.5534 -0.2942  0.0509
   31MOL   H28820748   6.409   3.718   4.899  1.3557  1.9383  1.5048
   31MOL   H28920749   6.423   3.890   4.863  2.5030 -0.4530 -2.3957
   31MOL   H29020750   6.420   3.845   4.618 -0.1604  0.0069  0.3802
   31MOL   H29120751   6.416   3.675   4.646  0.1015  0.0999 -0.6333
   31MOL   H29220752   6.639   3.752   4.587 -0.5869 -1.3218 -0.1823
   31MOL   H29320753   6.661   3.833   4.735  0.7116 -1.3075 -0.1572
   31MOL   H29420754   6.572   3.534   4.729 -2.5729  1.9670  2.3810
   31MOL   H29520755   6.642   3.619   4.864 -1.8659 -2.5595  0.3807
   31MOL   H29620756   6.850   3.649   4.746  1.6668 -1.5017  0.3077
   31MOL   H29720757   6.780   3.565   4.597 -1.5018 -1.7385  0.4962
   31MOL   H29820758   6.840   3.465   4.881 -0.2104  0.9074  0.3011
   31MOL   H29920759   6.753   3.370   4.782 -1.7457  2.4490 -0.4924
   31MOL   H30020760   6.985   3.292   4.764 -2.3860  0.1393  0.5720
   31MOL   H30120761   7.029   3.455   4.705  1.0422 -0.5936 -0.6610
   31MOL   H30220762   6.851   3.231   4.586 -0.5352  0.5974  1.8214
   31MOL   H30320763   6.867   3.384   4.501 -0.0743 -0.1606 -0.0259
   31MOL   H30420764   7.107   3.226   4.581  0.4154  0.4065 -0.7361
   31MOL   H30520765   7.086   3.351   4.449 -1.1297  0.8344  0.5597
   31MOL   H30620766   7.102   3.139   4.334 -0.2395 -0.2455 -1.0954
   31MOL   H30720767   6.932   3.183   4.330 -0.2652  1.6204  0.7356
   31MOL   N30820768   6.917   2.934   4.365  0.0557  0.0367 -0.1474
   31MOL   C30920769   6.896   2.795   4.391 -0.3341  0.3561 -0.5300
   31MOL   C31020770   6.976   2.713   4.291  0.7035  0.3042  0.0689
   31MOL   C31120771   6.976   2.563   4.330  0.1023  0.4612 -0.2828
   31MOL   C31220772   7.087   2.484   4.264 -0.6638  0.0413  0.3628
   31MOL   C31320773   7.068   2.466   4.110 -0.4038  0.4553  0.4680
   31MOL   C31420774   7.207   2.439   4.044  1.2758 -0.1573 -0.0585
   31MOL   C31520775   7.266   2.303   4.082 -0.2016 -0.7797 -0.5910
   31MOL   C31620776   7.384   2.264   4.005 -0.1551  0.1947 -0.2210
   31MOL   C31720777   7.424   2.119   4.047 -0.0321 -0.4934 -0.1201
   31MOL   C31820778   7.566   2.081   4.016  0.3165 -0.9007 -0.0421
   31MOL   C31920779   7.590   1.941   4.073 -0.1361 -0.0707 -0.5038
   31MOL   O32020780   7.522   1.894   4.168 -0.2248 -0.1565 -0.0377
   31MOL   H32120781   6.903   2.963   4.270  1.2970  0.8877 -0.0684
   31MOL   H32220782   6.792   2.762   4.385  0.3565 -2.0921  0.0532
   31MOL   H32320783   6.933   2.761   4.488 -2.7038  1.1685  0.6807
   31MOL   H32420784   7.078   2.751   4.297  1.1774 -0.8986 -0.2815
   31MOL   H32520785   6.936   2.726   4.191  0.4939 -2.9272 -0.3182
   31MOL   H32620786   6.996   2.555   4.437  0.5814  0.1197 -0.3954
   31MOL   H32720787   6.877   2.526   4.302  0.6910  0.5745 -2.6322
   31MOL   H32820788   7.076   2.391   4.320  1.7846  0.7326  2.0655
   31MOL   H32920789   7.186   2.527   4.279 -0.4950 -0.3002  0.2214
   31MOL   H33020790   7.031   2.563   4.075 -1.9663 -0.2731  0.0607
   31MOL   H33120791   6.997   2.386   4.090 -0.4102  0.3080  1.0805
   31MOL   H33220792   7.191   2.440   3.936  1.7339  1.3311 -0.1243
   31MOL   H33320793   7.278   2.519   4.067 -0.7298  2.0415 -1.2875
   31MOL   H33420794   7.192   2.227   4.055  1.1974 -2.4310  0.1104
   31MOL   H33520795   7.285   2.285   4.188 -0.9981 -3.7533 -0.9019
   31MOL   H33620796   7.361   2.275   3.899  3.4700  1.0138 -1.0087
   31MOL   H33720797   7.470   2.326   4.031 -0.4809  1.2385 -1.5797
   31MOL   H33820798   7.350   2.051   4.003  0.8247 -1.5972  0.1168
   31MOL   H33920799   7.415   2.111   4.155  2.0701 -2.5325 -0.0697
   31MOL   H34020800   7.631   2.161   4.050 -0.3854 -1.2459  2.1919
   31MOL   H34120801   7.578   2.079   3.908 -0.6050 -2.1462 -0.1375
   31MOL   N34220802   7.694   1.880   4.017 -0.2476  0.3800 -0.1392
   31MOL   C34320803   0.019   1.740   4.054  0.4899 -0.5782 -0.4414
   31MOL   C34420804   0.110   1.733   4.168 -0.3302 -0.0554 -0.5299
   31MOL   C34520805   0.156   1.585   4.206  0.1787 -0.6701 -0.0656
   31MOL   C34620806   0.255   1.594   4.323  0.3894  0.3772  0.4021
   31MOL   C34720807   0.286   1.455   4.378 -0.0071 -0.7317  0.4880
   31MOL   C34820808   0.338   1.451   4.530  0.0861  0.2911  0.4849
   31MOL   C34920809   0.392   1.313   4.566  0.4485  0.6529  0.3678
   31MOL   C35020810   0.409   1.283   4.716  0.0237 -0.1776  0.6485
   31MOL   C35120811   0.438   1.133   4.727 -0.2186  0.3833 -0.3126
   31MOL   C35220812   0.483   1.090   4.868  0.7586  0.1106  0.1565
   31MOL   C35320813   0.359   1.088   4.964 -0.1072  0.1750  0.5884
   31MOL   O35420814   0.248   1.044   4.933 -0.3775  0.0196 -0.3101
   31MOL   H35520815   0.041   1.935   3.960 -1.5000  0.8160 -1.1192
   31MOL   H35620816   7.648   1.677   4.070 -0.3789  0.6637 -0.1995
   31MOL   H35720817   0.071   1.692   3.971 -0.3302 -1.3329 -0.5313
   31MOL   H35820818   0.068   1.784   4.255 -1.2535  2.6055 -2.4753
   31MOL   H35920819   0.198   1.791   4.140  0.6075 -1.4336 -0.5121
   31MOL   H36020820   0.076   1.513   4.220 -0.1576 -0.1491  0.7583
   31MOL   H36120821   0.211   1.555   4.117  1.5552  3.2729 -0.6351
   31MOL   H36220822   0.212   1.658   4.399 -1.8405 -0.6449  0.0344
   31MOL   H36320823   0.340   1.654   4.288  1.1785 -2.7885 -3.5161
   31MOL   H36420824   0.367   1.415   4.317 -0.5117 -2.3038  0.8167
   31MOL   H36520825   0.198   1.396   4.354 -0.9621  0.5151  0.8970
   31MOL   H36620826   0.403   1.535   4.554  1.3955 -1.0426  1.7214
   31MOL   H36720827   0.251   1.475   4.592 -0.5414  1.8583 -0.9738
   31MOL   H36820828   0.486   1.291   4.515  1.2735  1.2905  1.5781
   31MOL   H36920829   0.334   1.229   4.529  1.5628  0.1631 -0.2851
   31MOL   H37020830   0.497   1.337   4.749 -0.1416 -0.1870  1.1045
   31MOL   H37120831   0.328   1.311   4.783  1.0967 -0.1567  1.9517
   31MOL   H37220832   0.525   1.110   4.665  1.0399  2.3393  0.6391
   31MOL   H37320833   0.355   1.067   4.704  0.9552 -0.8976 -0.9383
   31MOL   H37420834   0.552   1.156   4.921 -0.9019 -0.2162  2.8681
   31MOL   H37520835   0.524   0.990   4.855  0.1142 -0.3405  1.4589
   31MOL   N37620836   0.378   1.121   5.092 -0.7591  0.1304  0.4279
   31MOL   C37720837   0.277   1.137   5.194  0.7215 -0.1192 -0.2806
   31MOL   C37820838   0.336   1.170   5.328  0.6108  0.3572  0.2284
   31MOL   C37920839   0.403   1.049   5.395  0.5726 -0.2322  0.9334
   31MOL   C38020840   0.460   1.098   5.526 -0.0036  0.3233 -0.2883
   31MOL   C38120841   0.519   0.983   5.611  0.4843 -0.5511  0.2063
   31MOL   C38220842   0.550   1.017   5.757 -0.5264  0.4524 -0.3649
   31MOL   C38320843   0.595   0.891   5.840 -0.1784 -0.0190 -0.4834
   31MOL   C38420844   0.644   0.926   5.978 -0.5230 -0.1036  0.1977
   31MOL   C38520845   0.545   1.020   6.058 -0.7334 -0.4450 -0.8510
   31MOL   C38620846   0.428   0.930   6.122 -0.1642  0.3078 -0.1264
   31MOL   C38720847   0.315   0.897   6.021  0.0681 -0.7899 -0.3297
   31MOL   O38820848   0.286   0.987   5.939 -0.3221  1.2462 -0.1619
   31MOL   H38920849   0.471   1.154   5.114 -0.4851  0.1788 -0.7530
   31MOL   H39020850   0.209   1.219   5.176  1.3172  0.6350  0.8434
   31MOL   H39120851   0.216   1.047   5.201 -1.4153  1.3146 -0.2113
   31MOL   H39220852   0.271   1.224   5.397 -2.6571 -2.0607 -0.8704
   31MOL   H39320853   0.412   1.246   5.307  1.0174 -0.0288  0.3037
   31MOL   H39420854   0.340   0.963   5.415  1.6712 -0.9914  1.1460
   31MOL   H39520855   0.478   1.004   5.330 -0.2151 -0.2614  0.0221
   31MOL   H39620856   0.374   1.139   5.579 -1.3633 -1.3682 -1.1458
   31MOL   H39720857   0.534   1.176   5.509 -1.0918  2.0552  2.6325
   31MOL   H39820858   0.601   0.935   5.558 -0.6725 -0.9417 -1.2648
   31MOL   H39920859   0.440   0.910   5.627  0.1292  0.4149  3.2968
   31MOL   H40020860   0.638   1.082   5.755  1.0873 -1.7216 -3.1074
   31MOL   H40120861   0.478   1.079   5.811 -1.1987  1.1918 -2.0820
   31MOL   H40220862   0.681   0.843   5.794 -0.2702  1.7335 -2.5659
   31MOL   H40320863   0.519   0.813   5.846 -0.4084  0.3366  1.9384
   31MOL   H40420864   0.655   0.840   6.043 -1.2038 -1.6986 -1.7576
   31MOL   H40520865   0.746   0.964   5.979 -0.6218  0.2753 -1.8516
   31MOL   H40620866   0.508   1.117   6.023 -0.3139 -0.6794 -1.9374
   31MOL   H40720867   0.599   1.046   6.149  0.7608 -0.3367 -1.7633
   31MOL   H40820868   0.371   0.990   6.193  0.1836  2.0347 -1.2734
   31MOL   H40920869   0.449   0.836   6.172  0.6419  0.2127 -0.6346
   31MOL   N41020870   0.248   0.785   6.020 -0.7576  0.6204  0.1442
   31MOL   C41120871   0.140   0.754   5.928 -0.2187 -0.5585 -0.0187
   31MOL   C41220872   0.192   0.695   5.795 -0.0380  0.1431  0.4941
   31MOL   C41320873   0.084   0.673   5.692  1.1992  0.0598  0.6745
   31MOL   C41420874   0.125   0.619   5.552  0.0063 -0.4290 -0.8354
   31MOL   C41520875   0.228   0.703   5.483  0.2427 -0.5416 -0.2341
   31MOL   C41620876   0.259   0.648   5.343  0.0607 -0.3001  0.5891
   31MOL   C41720877   0.361   0.733   5.264  0.4902 -0.0124  0.1591
   31MOL   C41820878   0.422   0.660   5.143 -0.1624  0.0809  0.5052
   31MOL   C41920879   0.533   0.550   5.170  0.3066 -0.8484  0.3064
   31MOL   C42020880   0.608   0.498   5.041  0.1687  0.0981 -0.2221
   31MOL   C42120881   0.741   0.433   5.070 -0.2904  0.5518  0.5040
   31MOL   O42220882   0.832   0.503   5.112 -0.1920 -0.2147 -0.0807
   31MOL   H42320883   0.259   0.737   6.108  1.2175 -0.5074 -0.6990
   31MOL   H42420884   0.078   0.673   5.967  0.3091 -1.9393 -1.9927
   31MOL   H42520885   0.069   0.837   5.918  0.9712  0.6490  1.2925
   31MOL   H42620886   0.239   0.601   5.822 -0.4964 -0.1504  0.2652
   31MOL   H42720887   0.275   0.755   5.756  0.3708  0.3807  1.7287
   31MOL   H42820888   0.006   0.615   5.741 -1.8870  2.9196 -0.6439
   31MOL   H42920889   0.028   0.765   5.674  1.2571  0.1999  1.2091
   31MOL   H43020890   0.043   0.618   5.480 -1.5899 -1.2915  0.9568
   31MOL   H43120891   0.168   0.519   5.558  1.2625  0.1163 -0.6372
   31MOL   H43220892   0.318   0.688   5.544 -0.4320 -0.9946  0.6675
   31MOL   H43320893   0.189   0.805   5.475 -0.6343 -0.7932  0.6924
   31MOL   H43420894   0.301   0.547   5.345  0.1313 -0.3254 -1.2857
   31MOL   H43520895   0.166   0.643   5.287  1.8199 -0.5032 -2.4265
   31MOL   H43620896   0.436   0.766   5.336 -0.2397  2.8505 -0.3112
   31MOL   H43720897   0.311   0.826   5.236  0.7234  0.6924  2.0011
   31MOL   H43820898   0.343   0.611   5.086 -0.1936  0.2735  0.3834
   31MOL   H43920899   0.471   0.733   5.079  0.9067 -0.4812  0.6617
   31MOL   H44020900   0.472   0.466   5.206  0.7156 -0.4743  1.8962
   31MOL   H44120901   0.597   0.584   5.251 -0.4724 -1.5050  1.2163
   31MOL   H44220902   0.626   0.588   4.983 -0.1075  0.8824  0.9072
   31MOL   H44320903   0.549   0.430   4.979 -0.1761 -1.0475  1.3258
   31MOL   N44420904   0.753   0.303   5.043  0.4039  0.1069 -0.0948
   31MOL   C44520905   0.870   0.227   5.084 -0.4123  0.3280 -0.2454
   31MOL   C44620906   0.991   0.260   5.000  0.0095 -1.2772 -0.6916
   31MOL   C44720907   0.985   0.185   4.866 -0.6833 -0.1208  0.5623
   31MOL   C44820908   1.084   0.242   4.759 -0.3376 -0.2724  0.6790
   31MOL   C44920909   1.225   0.224   4.809  0.4884 -0.8069 -0.5476
   31MOL   C45020910   1.333   0.257   4.710  0.1753  0.9203  0.7576
   31MOL   C45120911   1.480   0.234   4.749 -0.0939 -0.1717 -0.0311
   31MOL   C45220912   1.535   0.353   4.828 -0.4125 -0.0166  0.1017
   31MOL   C45320913   1.673   0.307   4.887 -0.2779 -0.1568  0.1802
   31MOL   C45420914   1.764   0.417   4.935 -0.6669 -0.2004  0.3607
   31MOL   C45520915   1.736   0.481   5.077  0.1656  0.1404  0.2398
   31MOL   O45620916   1.674   0.415   5.158 -0.2772 -0.5185 -0.2122
   31MOL   H45720917   0.670   0.256   5.009 -0.2778  1.9803 -1.1084
   31MOL   H45820918   0.888   0.248   5.189 -2.1931 -1.0969  0.3815
   31MOL   H45920919   0.849   0.121   5.071  0.9681  0.0136  0.0556
   31MOL   H46020920   1.078   0.234   5.061  0.0605 -0.6424 -0.4909
   31MOL   H46120921   1.004   0.367   4.988  1.1757 -1.2430  0.8293
   31MOL   H46220922   1.003   0.081   4.896  0.3191  0.4575  2.0026
   31MOL   H46320923   0.885   0.189   4.822  0.2715 -0.2505 -1.6427
   31MOL   H46420924   1.063   0.344   4.727 -0.5479 -0.6187 -0.3136
   31MOL   H46520925   1.078   0.171   4.676 -1.4809  2.3465 -1.5556
   31MOL   H46620926   1.234   0.124   4.851 -1.3945 -1.5494 -1.8227
   31MOL   H46720927   1.246   0.284   4.898 -2.7005  0.0754 -0.3266
   31MOL   H46820928   1.317   0.192   4.624 -2.2966  1.7058  0.5940
   31MOL   H46920929   1.321   0.355   4.664 -1.1520 -0.2419 -1.4525
   31MOL   H47020930   1.534   0.212   4.657  1.0412 -1.4139  0.9175
   31MOL   H47120931   1.479   0.151   4.819  1.6751 -0.4622 -0.3412
   31MOL   H47220932   1.539   0.436   4.757  2.1042 -1.3265 -1.3778
   31MOL   H47320933   1.463   0.381   4.905 -0.3079  0.5980 -0.0185
   31MOL   H47420934   1.725   0.245   4.813 -2.3967 -0.2159 -1.2970
   31MOL   H47520935   1.652   0.232   4.964  0.0077 -1.1451 -0.6918
   31MOL   H47620936   1.772   0.492   4.857 -0.8610 -1.7166 -1.1704
   31MOL   H47720937   1.860   0.366   4.938 -0.3158  0.5380  4.5063
   31MOL   N47820938   1.783   0.608   5.096 -0.3275  0.0355  0.8881
   31MOL   C47920939   1.766   0.683   5.222  0.7355  0.0040  0.1079
   31MOL   C48020940   1.795   0.827   5.197 -0.0041  0.3811 -0.5350
   31MOL   C48120941   1.767   0.913   5.322  0.2659 -0.5538 -0.0171
   31MOL   C48220942   1.833   1.056   5.331 -0.0736 -0.0490 -0.9042
   31MOL   C48320943   1.848   1.100   5.479  0.2970  0.4311  0.3894
   31MOL   C48420944   1.720   1.111   5.554  0.2183  0.2972 -0.3651
   31MOL   C48520945   1.743   1.139   5.700  0.0096  0.3611  0.4054
   31MOL   C48620946   1.615   1.181   5.763 -0.0333 -0.1593 -0.5467
   31MOL   C48720947   1.632   1.217   5.918  0.2352 -0.0125  0.0274
   31MOL   C48820948   1.641   1.103   6.016  0.3392  0.2506  0.5757
   31MOL   C48920949   1.647   1.162   6.159  0.0864 -0.6998  0.2777
   31MOL   O49020950   1.548   1.219   6.197 -0.8748 -0.0674 -0.3139
   31MOL   H49120951   1.841   0.654   5.028  0.4455  1.0129  2.1922
   31MOL   H49220952   1.665   0.674   5.263  0.6092 -0.2123 -0.2449
   31MOL   H49320953   1.844   0.638   5.284  1.0745  1.3949  0.6974
   31MOL   H49420954   1.747   0.867   5.108  0.6669  0.0184 -1.0621
   31MOL   H49520955   1.900   0.826   5.170  0.5197  0.6123  1.4226
   31MOL   H49620956   1.658   0.920   5.319  0.0242 -2.6392  2.0647
   31MOL   H49720957   1.793   0.858   5.412  3.4420  0.5063 -0.2301
   31MOL   H49820958   1.796   1.128   5.257 -1.5113  1.0658  0.8443
   31MOL   H49920959   1.928   1.023   5.289  0.6974 -1.7767  2.0823
   31MOL   H50020960   1.902   1.195   5.487  3.0962 -1.2234  1.5944
   31MOL   H50120961   1.913   1.029   5.529  1.0627  0.7775 -0.1119
   31MOL   H50220962   1.653   1.180   5.502  0.9910  0.4340 -1.1780
   31MOL   H50320963   1.667   1.016   5.551 -0.0737  0.4035  1.0612
   31MOL   H50420964   1.818   1.216   5.714 -0.0048  0.4508 -0.0027
   31MOL   H50520965   1.780   1.046   5.743 -0.0229  0.3848  0.4839
   31MOL   H50620966   1.570   1.268   5.715 -0.8048 -0.2839 -0.0555
   31MOL   H50720967   1.534   1.109   5.759 -2.2721  2.1454  1.8374
   31MOL   H50820968   1.555   1.286   5.952 -0.4396 -0.7123 -0.0689
   31MOL   H50920969   1.717   1.285   5.923  0.8290 -0.8350  1.3033
   31MOL   H51020970   1.726   1.039   5.993 -0.4313 -0.8046  0.6226
   31MOL   H51120971   1.549   1.044   6.019 -1.0386  2.2101 -1.5379
   31MOL   N51220972   1.762   1.144   6.225  0.0299  0.2481  0.6067
   31MOL   C51320973   1.778   1.186   6.365 -0.1957  0.2024 -0.2289
   31MOL   C51420974   1.881   1.303   6.379  0.9190  0.2453  0.5000
   31MOL   C51520975   1.901   1.346   6.520 -0.0120 -0.1310 -0.1175
   31MOL   C51620976   2.008   1.457   6.531  0.8391  0.0911 -0.0307
   31MOL   C51720977   2.024   1.514   6.676 -0.0003  0.2198 -0.2626
   31MOL   C51820978   2.099   1.648   6.668  0.0035 -0.1469 -0.4601
   31MOL   C51920979   2.138   1.710   6.803 -0.6845  0.0005 -0.2104
   31MOL   C52020980   2.022   1.775   6.874 -0.1824 -0.1322 -0.2076
   31MOL   C52120981   2.052   1.810   7.014 -0.7184  0.0394 -0.4961
   31MOL   C52220982   1.927   1.894   7.060 -0.4721  0.0677  0.2241
   31MOL   C52320983   1.951   1.938   7.201  0.2742  0.0563  0.7583
   31MOL   O52420984   2.058   1.906   7.253 -0.4080  0.1227 -0.4581
   31MOL   H52520985   1.831   1.092   6.173 -0.2059  0.5180  0.0301
   31MOL   H52620986   1.683   1.226   6.402 -0.4413 -0.5600 -0.0149
   31MOL   H52720987   1.806   1.098   6.424  2.7599  0.0437 -1.8220
   31MOL   H52820988   1.860   1.395   6.326  0.8825  0.0104  0.1046
   31MOL   H52920989   1.976   1.275   6.335 -0.1870 -2.1602 -0.4510
   31MOL   H53020990   1.803   1.370   6.561 -0.3425  1.5180 -1.7741
   31MOL   H53120991   1.930   1.257   6.576 -3.2002 -1.4817 -0.4833
   31MOL   H53220992   1.994   1.535   6.456  2.7425  2.5052  2.0371
   31MOL   H53320993   2.111   1.422   6.518  0.6937  0.0701 -1.1681
   31MOL   H53420994   2.082   1.445   6.738  1.7459  3.5656  1.9510
   31MOL   H53520995   1.926   1.531   6.722  0.2985  0.8838  0.1246
   31MOL   H53620996   2.188   1.634   6.607  0.3583  1.1693 -0.2728
   31MOL   H53720997   2.039   1.723   6.615  1.1848  1.1629  0.0169
   31MOL   H53820998   2.215   1.786   6.786 -1.8599  1.4785  0.9184
   31MOL   H53920999   2.185   1.634   6.865  3.3469  1.9496 -0.7381
   31MOL   H54021000   1.988   1.868   6.827 -1.3284  1.1564  2.9819
   31MOL   H54121001   1.933   1.712   6.872 -0.2996 -0.0023  0.6309
   31MOL   H54221002   2.141   1.872   7.021 -1.9024  1.5905  1.5408
   31MOL   H54321003   2.058   1.721   7.077 -0.1324  0.4705  0.0615
   31MOL   H54421004   1.836   1.834   7.070 -1.1305  0.7660 -1.5178
   31MOL   H54521005   1.898   1.977   6.997 -1.2383 -0.3842 -0.0227
   31MOL   N54621006   1.857   2.008   7.261  0.2416  0.3913 -0.1622
   31MOL   C54721007   1.873   2.081   7.384 -0.4975 -0.1830  0.3943
   31MOL   C54821008   1.937   2.217   7.359 -0.6336  0.3579  0.3143
   31MOL   C54921009   1.869   2.305   7.257  0.3716  0.8562 -0.2310
   31MOL   C55021010   1.723   2.336   7.288 -0.0341  0.3594 -0.2493
   31MOL   C55121011   1.653   2.412   7.174 -0.2822  0.1180 -0.6822
   31MOL   C55221012   1.709   2.550   7.149  0.5158  0.6809  0.2707
   31MOL   C55321013   1.617   2.633   7.065  0.2307 -0.6557  1.1061
   31MOL   C55421014   1.670   2.778   7.051  0.0001 -0.7154 -0.7534
   31MOL   C55521015   1.573   2.893   7.000 -0.0972 -0.0912  0.0918
   31MOL   C55621016   1.535   2.875   6.853  0.7962 -0.2051  0.1059
   31MOL   C55721017   1.413   2.786   6.828  0.8669 -0.0961 -1.0017
   31MOL   O55821018   1.363   2.720   6.920  0.0884 -0.0640  0.4473
   31MOL   H55921019   1.777   2.030   7.204  0.5440 -0.6978 -1.0388
   31MOL   H56021020   1.777   2.074   7.436  0.5162 -2.2021  2.0732
   31MOL   H56121021   1.935   2.021   7.450 -1.5900  1.4317  2.9757
   31MOL   H56221022   2.032   2.196   7.308 -0.6824  0.5205  0.1537
   31MOL   H56321023   1.953   2.278   7.447  1.7162  0.3929 -0.0843
   31MOL   H56421024   1.928   2.396   7.264  0.2987  0.8344  0.7798
   31MOL   H56521025   1.881   2.265   7.157  0.4112  0.5349 -0.0971
   31MOL   H56621026   1.723   2.393   7.381  0.2783 -0.9074  0.5449
   31MOL   H56721027   1.678   2.238   7.307 -0.5120  0.8867  1.4278
   31MOL   H56821028   1.549   2.421   7.204 -0.2012  1.1990 -0.7245
   31MOL   H56921029   1.669   2.352   7.084  0.7852  0.6973 -0.8821
   31MOL   H57021030   1.734   2.602   7.241 -1.1586 -2.2183  2.4615
   31MOL   H57121031   1.800   2.535   7.091 -0.2686 -0.7624 -0.6194
   31MOL   H57221032   1.512   2.625   7.093  0.5189 -1.2469  2.0426
   31MOL   H57321033   1.612   2.583   6.969  2.8046  0.8336  0.1566
   31MOL   H57421034   1.700   2.817   7.149 -0.9468  0.4834 -0.9265
   31MOL   H57521035   1.761   2.766   6.991  0.5047 -1.6659  0.1845
   31MOL   H57621036   1.616   2.992   7.014  0.8653 -0.6889  1.5864
   31MOL   H57721037   1.485   2.894   7.065 -1.1794  1.1613 -1.3478
   31MOL   H57821038   1.618   2.832   6.796  1.1031  0.5889 -0.0646
   31MOL   H57921039   1.511   2.973   6.810  1.9997 -0.8223 -2.0431
   31MOL   N58021040   1.376   2.764   6.698  0.4078  0.1497  0.2607
   31MOL   C58121041   1.263   2.689   6.644  0.1178  0.4764 -0.5269
   31MOL   C58221042   1.147   2.787   6.621 -0.1183 -0.0443 -0.0236
   31MOL   C58321043   1.022   2.722   6.569  0.3040 -0.1733 -0.6231
   31MOL   C58421044   0.909   2.824   6.562 -0.0453 -0.1957  0.3915
   31MOL   C58521045   0.777   2.772   6.509 -0.0671 -0.2069 -0.1354
   31MOL   C58621046   0.657   2.867   6.538 -0.3449  0.0358  0.2011
   31MOL   C58721047   0.526   2.815   6.471  0.0211  0.0688  0.7365
   31MOL   C58821048   0.396   2.892   6.495 -0.1355 -0.4207  0.4255
   31MOL   C58921049   0.391   3.032   6.429  0.8346  0.1224 -0.0718
   31MOL   C59021050   0.261   3.104   6.475 -0.7363  0.8460 -0.1265
   31MOL   C59121051   0.141   3.058   6.389  0.1741  0.2111 -0.2222
   31MOL   O59221052   0.056   2.992   6.445  0.2529  0.2364  0.0567
   31MOL   H59321053   1.402   2.843   6.641 -2.9989 -0.2668 -2.0023
   31MOL   H59421054   1.297   2.652   6.548  1.3710  0.8112 -0.2230
   31MOL   H59521055   1.236   2.604   6.707  4.4224  0.4828  1.5333
   31MOL   H59621056   1.175   2.862   6.547  0.1083  0.9321  1.0460
   31MOL   H59721057   1.135   2.849   6.709  1.6991 -1.5218  1.3105
   31MOL   H59821058   1.027   2.673   6.472  0.6122 -1.2580 -0.0559
   31MOL   H59921059   0.982   2.655   6.645  0.6884  1.2157  0.8287
   31MOL   H60021060   0.936   2.906   6.496  1.6607  0.1448  1.4878
   31MOL   H60121061   0.884   2.874   6.655 -0.9083  1.8335 -0.9125
   31MOL   H60221062   0.767   2.669   6.544 -0.5492 -1.0506 -2.6309
   31MOL   H60321063   0.776   2.775   6.400 -0.6739 -0.8130 -0.1528
   31MOL   H60421064   0.647   2.885   6.645  1.3656 -0.3289  0.4449
   31MOL   H60521065   0.683   2.960   6.488 -2.0992  0.0504 -0.7191
   31MOL   H60621066   0.505   2.717   6.513 -0.8727  0.6513  1.6478
   31MOL   H60721067   0.529   2.810   6.362  1.1585  2.7429  0.6169
   31MOL   H60821068   0.308   2.837   6.459  0.5770 -1.5481  0.3804
   31MOL   H60921069   0.393   2.907   6.603 -0.7009  0.5949  0.2770
   31MOL   H61021070   0.400   3.033   6.320  2.0274  1.7318  0.0140
   31MOL   H61121071   0.473   3.099   6.454 -1.6469  2.2740  2.6931
   31MOL   H61221072   0.285   3.208   6.453 -0.4422  0.6776 -0.6102
   31MOL   H61321073   0.243   3.077   6.579  1.1490 -1.2875 -0.2967
   31MOL   N61421074   0.136   3.099   6.262  0.0927 -0.3280  0.0546
   31MOL   C61521075   0.042   3.061   6.152 -0.3250  0.3277 -0.3891
   31MOL   C61621076   7.633   3.155   6.150  0.0877 -0.8539  0.2614
   31MOL   C61721077   7.553   3.193   6.276  0.6650  0.0482 -0.4190
   31MOL   C61821078   7.415   3.253   6.247 -0.3743 -0.3605 -0.0176
   31MOL   C61921079   7.336   3.297   6.373  0.2481 -0.2331  0.0452
   31MOL   C62021080   7.308   3.195   6.479  0.5449 -0.1421 -0.2200
   31MOL   C62121081   7.198   3.251   6.572 -0.2313  0.2956 -0.0643
   31MOL   C62221082   7.182   3.174   6.703 -0.0229 -0.4052 -0.6396
   31MOL   C62321083   7.116   3.267   6.803 -0.4564 -0.0540  0.0388
   31MOL   C62421084   7.124   3.200   6.939 -0.0290  0.3342  0.1931
   31MOL   C62521085   6.985   3.155   6.996  0.1616 -0.3912 -0.2279
   31MOL   O62621086   6.878   3.220   6.969 -0.2794 -0.5924 -0.0571
   31MOL   H62721087   0.201   3.171   6.235  0.1880  0.0225  1.1997
   31MOL   H62821088   0.003   2.959   6.161  1.9995 -0.7923 -2.3830
   31MOL   H62921089   0.094   3.061   6.056  0.7237 -0.6636  0.1616
   31MOL   H63021090   7.560   3.113   6.080 -0.0615  0.0770 -0.1466
   31MOL   H63121091   7.666   3.245   6.098 -0.2992  0.1691  1.7575
   31MOL   H63221092   7.532   3.105   6.338 -3.1942  1.5236  0.4764
   31MOL   H63321093   7.606   3.260   6.344 -1.9474 -0.6856  2.4619
   31MOL   H63421094   7.342   3.189   6.197 -1.2596  0.6429 -0.0266
   31MOL   H63521095   7.419   3.349   6.196  0.3660 -0.3657  0.0257
   31MOL   H63621096   7.235   3.330   6.349 -0.1908 -0.4652  1.5111
   31MOL   H63721097   7.372   3.392   6.411 -1.8054 -0.0850  1.7401
   31MOL   H63821098   7.281   3.099   6.437 -1.0747 -1.0870  2.8261
   31MOL   H63921099   7.399   3.195   6.539  0.6159 -0.4410 -0.3315
   31MOL   H64021100   7.106   3.259   6.516 -1.0515  0.8977  1.3370
   31MOL   H64121101   7.228   3.355   6.581  1.3661 -0.1721  0.2399
   31MOL   H64221102   7.133   3.079   6.682 -1.1298 -0.3210  1.4850
   31MOL   H64321103   7.281   3.151   6.741 -0.4172  3.4368  3.0547
   31MOL   H64421104   7.017   3.296   6.768  0.1511  0.2287 -1.4853
   31MOL   H64521105   7.184   3.351   6.816  0.2394 -0.8022  1.3002
   31MOL   H64621106   7.165   3.267   7.015  0.5116 -1.4415  1.5299
   31MOL   H64721107   7.184   3.109   6.928  0.2317  0.6002 -0.5879
   31MOL   N64821108   6.976   3.046   7.074  0.7844  0.3778 -0.2463
   31MOL   C64921109   7.077   2.945   7.110 -0.5031 -0.0537  0.1114
   31MOL   C65021110   7.089   2.835   7.008  0.1391 -0.9424  0.5220
   31MOL   C65121111   7.171   2.723   7.071 -0.4092 -0.1906 -0.4274
   31MOL   C65221112   7.320   2.725   7.044  0.3155 -0.2313 -0.4350
   31MOL   C65321113   7.405   2.628   7.128 -0.7268 -0.1445  0.3792
   31MOL   C65421114   7.425   2.685   7.267  0.0129 -0.0632 -0.3479
   31MOL   C65521115   7.538   2.617   7.344 -0.2689  0.4102 -0.3169
   31MOL   C65621116   7.566   2.668   7.483 -1.0035 -0.1412  0.5577
   31MOL   C65721117   7.708   2.640   7.546  0.4980 -0.1622 -0.3727
   31MOL   C65821118   0.008   2.719   7.679 -0.5952  0.5492  0.2081
   31MOL   C65921119   0.154   2.737   7.708 -0.0421 -0.9795  0.0858
   31MOL   O66021120   0.233   2.645   7.683 -0.0472 -0.2853 -0.0482
   31MOL   H66121121   6.885   3.046   7.116  0.3548  2.0819 -1.1397
   31MOL   H66221122   7.057   2.902   7.208 -0.0151 -0.4599  0.0325
   31MOL   H66321123   7.175   2.989   7.129  0.2205 -1.5951 -0.0141
   31MOL   H66421124   7.135   2.867   6.916 -0.8181  3.0372  1.3349
   31MOL   H66521125   6.993   2.792   6.977 -0.4001  0.2399  0.5438
   31MOL   H66621126   7.143   2.709   7.176 -2.0699 -2.2382 -1.1151
   31MOL   H66721127   7.141   2.630   7.024 -1.6327  0.0858 -0.2054
   31MOL   H66821128   7.359   2.825   7.063  1.5840 -0.5851 -1.0770
   31MOL   H66921129   7.333   2.708   6.937  2.1430  1.6670 -0.5537
   31MOL   H67021130   7.497   2.606   7.074  1.1374  0.0691  3.3204
   31MOL   H67121131   7.345   2.538   7.141 -2.0589  0.5019 -1.1246
   31MOL   H67221132   7.449   2.791   7.266  0.3224 -0.0689  2.2520
   31MOL   H67321133   7.332   2.678   7.324  0.6000  0.3096  0.6771
   31MOL   H67421134   7.624   2.618   7.277 -0.4245  1.9189 -0.5027
   31MOL   H67521135   7.532   2.509   7.362 -0.0781  0.5941  0.9323
   31MOL   H67621136   7.543   2.774   7.490 -0.1119 -0.0101  1.6767
   31MOL   H67721137   7.485   2.624   7.542 -0.4841 -0.5084  1.0100
   31MOL   H67821138   0.067   2.664   7.470  1.9531  1.6797  1.5869
   31MOL   H67921139   0.002   2.533   7.569 -1.5785  0.0964  1.9112
   31MOL   H68021140   7.684   2.659   0.045 -1.5820 -3.1489 -2.8620
   31MOL   H68121141   7.679   2.819   7.675  0.7199  1.0503 -2.6732
   31MOL   H68221142   0.180   2.837   0.028  0.1123 -1.1533  0.4605
   32MOL     N121143   0.101   2.614   1.205 -0.5889 -0.3277 -0.3865
   32MOL     C221144   7.691   2.687   1.242 -0.7188  0.8217 -0.2423
   32MOL     C321145   7.652   2.642   1.384 -0.2917  0.1714 -0.8129
   32MOL     C421146   7.534   2.711   1.445  0.5962  0.0813  0.9943
   32MOL     C521147   7.470   2.662   1.574  0.6243  0.5316 -0.4999
   32MOL     C621148   7.372   2.766   1.633 -0.1151  0.2058 -0.3281
   32MOL     C721149   7.319   2.720   1.770  0.0016  0.2238 -0.5770
   32MOL     C821150   7.411   2.750   1.891  0.1344 -0.6673 -0.2360
   32MOL     C921151   7.389   2.886   1.946  0.2267  1.0896 -0.2293
   32MOL    C1021152   7.469   2.909   2.078  0.0233  0.3330  0.0545
   32MOL    C1121153   7.511   3.054   2.109 -0.7655 -0.2620 -0.2138
   32MOL    C1221154   7.647   3.088   2.055  0.4595  0.2988  0.0341
   32MOL    O1321155   0.029   3.054   2.110  0.4366  0.4073  0.3369
   32MOL    H1421156   0.089   2.514   1.209 -0.2530 -0.3219  1.2746
   32MOL    H1521157   7.606   2.673   1.174  1.5092  0.3186 -3.0091
   32MOL    H1621158   0.001   2.793   1.250  1.2181  0.3383  0.0308
   32MOL    H1721159   0.025   2.650   1.447 -0.9707 -1.1476  0.3457
   32MOL    H1821160   7.628   2.536   1.388  0.3005  0.0910  1.5691
   32MOL    H1921161   7.559   2.815   1.467 -1.2424  1.2220 -1.9804
   32MOL    H2021162   7.456   2.709   1.369  0.3556 -0.0315  1.2466
   32MOL    H2121163   7.544   2.646   1.652 -0.8981 -1.9940  0.4905
   32MOL    H2221164   7.423   2.565   1.559  1.2338  0.2040 -0.3013
   32MOL    H2321165   7.285   2.783   1.569 -0.4743 -0.2804  0.0329
   32MOL    H2421166   7.412   2.867   1.645 -2.3244  1.4371 -2.6206
   32MOL    H2521167   7.224   2.775   1.775 -0.0469  0.1604 -0.8017
   32MOL    H2621168   7.298   2.613   1.767 -0.0771  0.1639  1.5859
   32MOL    H2721169   7.513   2.718   1.872  0.4726  0.9253 -1.1964
   32MOL    H2821170   7.387   2.695   1.982  2.1072  1.4615  1.5953
   32MOL    H2921171   7.433   2.959   1.879 -2.0717  2.2165 -0.5737
   32MOL    H3021172   7.282   2.907   1.945 -0.2722 -1.3967 -0.5417
   32MOL    H3121173   7.555   2.841   2.075  0.7938  1.3200 -0.3120
   32MOL    H3221174   7.405   2.879   2.161  0.3576  1.9669  0.9083
   32MOL    H3321175   7.528   3.076   2.214  2.9064  0.7032 -0.9228
   32MOL    H3421176   7.431   3.121   2.079 -0.9824 -0.0949  0.7328
   32MOL    H3521177   0.124   2.630   1.108 -0.5808  0.1773 -0.3049
   32MOL    N3621178   7.649   3.183   1.959  0.1677  0.0662  1.1996
   32MOL    C3721179   0.053   3.247   1.907 -0.2627 -0.0393 -0.3818
   32MOL    C3821180   0.018   3.324   1.784 -0.3358 -0.0314 -0.6168
   32MOL    C3921181   0.146   3.397   1.738 -0.3420  0.0951  0.1187
   32MOL    C4021182   0.117   3.446   1.598 -0.0643  0.3741  0.0874
   32MOL    C4121183   0.251   3.496   1.537 -0.0328  1.2015  0.3222
   32MOL    C4221184   0.229   3.538   1.386 -0.1071 -0.2339 -0.3778
   32MOL    C4321185   0.363   3.552   1.306  0.4473  0.5055  0.2855
   32MOL    C4421186   0.330   3.590   1.162  0.0928 -0.5975 -0.1915
   32MOL    C4521187   0.449   3.605   1.069 -0.3685 -0.3448 -0.7869
   32MOL    C4621188   0.408   3.622   0.917  0.4189 -0.2312 -0.5005
   32MOL    C4721189   0.329   3.501   0.863  0.0380  0.4261  0.0284
   32MOL    O4821190   0.331   3.386   0.910  0.3895 -0.5938 -0.1177
   32MOL    H4921191   7.557   3.215   1.932  0.8164  1.4608  0.5563
   32MOL    H5021192   0.083   3.327   1.975  1.3144  1.5991 -2.9355
   32MOL    H5121193   0.140   3.183   1.895 -0.1875 -0.7557  3.3387
   32MOL    H5221194   7.658   3.395   1.816  0.9010  0.8894  0.2740
   32MOL    H5321195   7.700   3.261   1.701  0.2270  0.8804 -1.5567
   32MOL    H5421196   0.174   3.478   1.805 -3.0562  1.1930 -0.0069
   32MOL    H5521197   0.233   3.332   1.741 -0.9764 -0.7013  1.2262
   32MOL    H5621198   0.040   3.523   1.601 -1.1459 -0.6712 -0.2979
   32MOL    H5721199   0.087   3.362   1.535 -1.0222 -0.3843  1.5182
   32MOL    H5821200   0.314   3.407   1.544 -2.7058 -0.7825 -0.2456
   32MOL    H5921201   0.284   3.580   1.598 -1.1037 -0.1249  2.8022
   32MOL    H6021202   0.170   3.460   1.338  0.6518 -1.1298  0.1052
   32MOL    H6121203   0.176   3.633   1.383  1.8037  0.8823 -0.0442
   32MOL    H6221204   0.424   3.463   1.311  0.9215  0.7627 -0.7780
   32MOL    H6321205   0.422   3.632   1.352 -0.0103 -0.3513  2.4166
   32MOL    H6421206   0.271   3.505   1.127  1.0430 -1.6806  0.8345
   32MOL    H6521207   0.272   3.683   1.155 -1.0634 -1.2195  0.9086
   32MOL    H6621208   0.503   3.511   1.076  0.4610  0.1155 -0.9705
   32MOL    H6721209   0.516   3.681   1.108  1.1432 -1.9926 -0.0855
   32MOL    H6821210   0.495   3.621   0.852  0.2905 -0.6069 -0.6710
   32MOL    H6921211   0.355   3.715   0.898 -1.7977 -1.3501 -0.0599
   32MOL    N7021212   0.258   3.527   0.754 -0.3111 -0.0187  0.2866
   32MOL    C7121213   0.145   3.447   0.706  0.7764  0.0607  0.5477
   32MOL    C7221214   0.092   3.497   0.572  0.0092 -0.2399  0.1971
   32MOL    C7321215   7.697   3.424   0.493  0.4536  0.0312  0.2777
   32MOL    C7421216   7.581   3.414   0.587  0.4047  0.7240  0.2766
   32MOL    C7521217   7.464   3.326   0.530  0.2325 -0.2642  0.1341
   32MOL    C7621218   7.337   3.314   0.622 -0.3914 -0.2787 -0.7773
   32MOL    C7721219   7.238   3.220   0.560 -0.2857  0.2130 -0.0120
   32MOL    C7821220   7.131   3.287   0.459  0.6364 -0.8326 -0.2487
   32MOL    C7921221   7.161   3.269   0.311 -0.1898 -0.1314  0.6736
   32MOL    C8021222   7.057   3.338   0.223 -0.0705 -0.2736  0.2661
   32MOL    C8121223   6.928   3.254   0.213 -0.9662  0.9538 -0.3699
   32MOL    O8221224   6.921   3.138   0.253 -0.0660 -0.0876  0.4558
   32MOL    H8321225   0.265   3.620   0.714  0.8350  0.1147  0.7464
   32MOL    H8421226   0.181   3.346   0.683 -0.2351 -0.2673  0.3734
   32MOL    H8521227   0.069   3.438   0.783 -0.1545 -0.9072 -0.4715
   32MOL    H8621228   0.166   3.521   0.495 -0.5196  0.9319  0.0429
   32MOL    H8721229   0.062   3.600   0.593 -1.2207 -0.6197  0.2791
   32MOL    H8821230   7.671   3.477   0.401 -0.6877  2.7733  2.0870
   32MOL    H8921231   0.024   3.335   0.448 -0.0921 -1.0493  1.8831
   32MOL    H9021232   7.541   3.512   0.612 -0.2560  0.3185  0.8426
   32MOL    H9121233   7.607   3.366   0.681  0.3528  2.1286  1.0232
   32MOL    H9221234   7.511   3.228   0.524 -1.0015 -0.8441 -0.1259
   32MOL    H9321235   7.446   3.361   0.429 -1.0437 -2.6657 -0.5006
   32MOL    H9421236   7.370   3.290   0.723  1.5463  1.5037 -0.9569
   32MOL    H9521237   7.283   3.408   0.629 -3.2396 -1.9053 -0.0219
   32MOL    H9621238   7.178   3.178   0.642 -2.3205 -1.5544 -2.2937
   32MOL    H9721239   7.293   3.141   0.509  1.1063  1.5741 -0.6155
   32MOL    H9821240   7.039   3.241   0.494  1.1200 -2.5471 -1.1716
   32MOL    H9921241   7.118   3.393   0.479 -0.5862 -1.0811  0.2755
   32MOL   H10021242   7.182   3.168   0.275  1.7938 -0.1960  1.9086
   32MOL   H10121243   7.252   3.322   0.284 -0.8066  0.3084 -0.5833
   32MOL   H10221244   7.098   3.334   0.122 -1.2984  0.1861 -0.2670
   32MOL   H10321245   7.042   3.440   0.258  0.6699  0.7234 -2.1761
   32MOL   N10421246   6.826   3.312   0.152  0.3011  0.4512  0.0567
   32MOL   C10521247   6.690   3.274   0.153  0.2923 -0.0513  0.2006
   32MOL   C10621248   6.619   3.330   0.026 -0.1704  0.4532  0.1206
   32MOL   C10721249   6.491   3.253   7.707  1.0602 -0.0421  0.1811
   32MOL   C10821250   6.424   3.311   7.580 -0.3833 -0.2124  0.5162
   32MOL   C10921251   6.349   3.441   7.608 -1.1800  0.1166 -0.2744
   32MOL   C11021252   6.271   3.500   7.490 -0.5678 -0.4139  0.3363
   32MOL   C11121253   6.223   3.643   7.509  0.3670 -0.5718  0.3591
   32MOL   C11221254   6.307   3.767   7.490 -0.2743 -0.1608  0.1991
   32MOL   C11321255   6.216   3.886   7.463  0.2931  0.4169 -0.2525
   32MOL   C11421256   6.126   3.928   7.577  0.1405 -0.2167  0.6843
   32MOL   C11521257   6.194   3.949   7.709  0.1715 -0.9870  0.0895
   32MOL   O11621258   6.275   4.043   7.709 -0.5897 -0.0916  0.2182
   32MOL   H11721259   6.840   3.407   0.121  1.8848  0.2951  0.2262
   32MOL   H11821260   6.672   3.166   0.160  1.3141 -0.0471  4.1726
   32MOL   H11921261   6.637   3.327   0.233  0.5275 -0.3261  0.5410
   32MOL   H12021262   6.695   3.324   7.663 -0.0197  0.1137  0.2930
   32MOL   H12121263   6.597   3.436   0.035  1.1535  0.8045 -0.5515
   32MOL   H12221264   6.522   3.150   7.693  1.3323 -0.0389  0.7608
   32MOL   H12321265   6.414   3.234   0.066 -0.4411  2.5416 -0.6003
   32MOL   H12421266   6.351   3.234   7.558 -0.2468 -0.1838 -0.0423
   32MOL   H12521267   6.496   3.315   7.498 -2.6541 -3.5408 -1.7452
   32MOL   H12621268   6.432   3.504   7.640  1.4060 -2.9428 -0.6940
   32MOL   H12721269   6.283   3.441   7.694  0.6472 -1.5232  1.1666
   32MOL   H12821270   6.329   3.492   7.398 -0.0889  0.2501  0.5710
   32MOL   H12921271   6.180   3.443   7.472 -2.4057  2.2395  0.9829
   32MOL   H13021272   6.177   3.651   7.608 -1.9058  2.3096 -0.8482
   32MOL   H13121273   6.134   3.662   7.450  0.7251 -2.1991 -0.7576
   32MOL   H13221274   6.376   3.785   7.572  1.3698 -0.5664 -1.0481
   32MOL   H13321275   6.366   3.751   7.399  1.9336  3.0338  0.9691
   32MOL   H13421276   6.165   3.878   7.367 -0.8545 -0.2304  0.4027
   32MOL   H13521277   6.286   3.967   7.444  0.2577  0.3876 -0.5013
   32MOL   H13621278   6.039   3.862   7.583 -0.3214  0.2304 -0.8844
   32MOL   H13721279   6.072   4.022   7.568 -0.9266 -0.7545  1.3521
   32MOL   N13821280   6.171   3.876   0.099  0.0302 -0.0790 -0.1159
   32MOL   C13921281   6.220   3.888   0.245 -0.3763 -0.5006  0.4955
   32MOL   C14021282   6.110   3.936   0.345 -0.1631  0.4092 -0.2034
   32MOL   C14121283   6.167   4.002   0.475 -0.7847 -0.3822 -0.6732
   32MOL   C14221284   6.060   4.019   0.590  0.1789  0.1824 -0.1658
   32MOL   C14321285   5.979   3.898   0.645 -0.3487  0.3083  0.2713
   32MOL   C14421286   5.920   3.930   0.791 -0.5135  0.2911  0.0915
   32MOL   C14521287   5.824   4.048   0.783  0.7197 -0.6791 -0.4333
   32MOL   C14621288   5.691   4.013   0.717  0.5826  0.4117  0.0389
   32MOL   C14721289   5.574   4.089   0.777  0.3487  0.3418 -0.3962
   32MOL   C14821290   5.426   4.056   0.732 -0.1574  0.5794  0.1610
   32MOL   C14921291   5.360   3.944   0.812  0.0017  0.5919 -0.3969
   32MOL   O15021292   5.427   3.863   0.878 -0.2388 -0.0349 -0.3492
   32MOL   H15121293   6.099   3.807   0.083  1.6997 -2.5472  2.6553
   32MOL   H15221294   6.281   3.798   0.261  0.4040 -0.2489 -0.9271
   32MOL   H15321295   6.302   3.960   0.243  0.1371 -1.0741 -2.8406
   32MOL   H15421296   6.052   3.848   0.369 -0.2197  0.7048  0.7694
   32MOL   H15521297   6.042   4.012   0.307  0.2155  1.2183  0.7122
   32MOL   H15621298   6.261   3.952   0.498 -2.2919 -2.6687  0.6905
   32MOL   H15721299   6.189   4.100   0.433 -2.4479  0.2998 -0.0267
   32MOL   H15821300   5.990   4.092   0.549 -0.7926  0.9967  2.8567
   32MOL   H15921301   6.105   4.075   0.672 -0.9927 -1.6878  1.7972
   32MOL   H16021302   6.046   3.812   0.647 -0.9263 -0.1353  0.6683
   32MOL   H16121303   5.893   3.867   0.587  0.8736  0.4132 -1.6481
   32MOL   H16221304   5.867   3.842   0.829  1.0447  0.3275  2.4705
   32MOL   H16321305   5.999   3.955   0.862  1.1205  1.8427 -2.1980
   32MOL   H16421306   5.857   4.138   0.731  0.8260  0.8094  2.1416
   32MOL   H16521307   5.811   4.070   0.889 -1.8629  0.8939 -1.0364
   32MOL   H16621308   5.699   4.022   0.609 -1.6604  0.6414 -0.1373
   32MOL   H16721309   5.661   3.911   0.743 -1.6383  0.5141 -2.0455
   32MOL   H16821310   5.593   4.195   0.758 -0.7082  0.6705  0.3326
   32MOL   H16921311   5.571   4.086   0.886 -1.7644 -0.8565 -0.4506
   32MOL   H17021312   5.417   4.037   0.625 -0.3764 -1.5913  0.5330
   32MOL   H17121313   5.370   4.145   0.761 -2.0480 -0.9249  1.2599
   32MOL   N17221314   5.228   3.940   0.801  0.2526 -0.2018  0.4553
   32MOL   C17321315   5.134   3.845   0.861  0.2420  0.0303 -0.1323
   32MOL   C17421316   5.106   3.725   0.769 -0.4207 -0.9720  0.0269
   32MOL   C17521317   5.018   3.751   0.651 -0.9067 -0.3957  0.4096
   32MOL   C17621318   5.014   3.627   0.559  0.0456  0.4778  0.4258
   32MOL   C17721319   4.891   3.638   0.463 -0.2567  0.1950  0.6238
   32MOL   C17821320   4.899   3.550   0.331 -0.2733 -0.0170  0.7553
   32MOL   C17921321   4.840   3.415   0.355  0.7614 -0.7224 -0.4802
   32MOL   C18021322   4.858   3.318   0.243 -0.4994  0.2463  0.0087
   32MOL   C18121323   5.005   3.265   0.225 -0.1565  0.3965 -0.0580
   32MOL   C18221324   5.023   3.178   0.101 -0.2891  0.8793 -0.1729
   32MOL   C18321325   4.987   3.250   7.687  0.2841  0.3595 -0.0033
   32MOL   O18421326   5.007   3.369   7.672 -0.1880 -0.5745  0.0633
   32MOL   H18521327   5.189   4.011   0.740  1.7381 -0.0107 -0.2941
   32MOL   H18621328   5.176   3.818   0.958 -0.0582  4.3285  1.3224
   32MOL   H18721329   5.043   3.903   0.876  0.3011  1.0291 -3.3297
   32MOL   H18821330   5.067   3.643   0.828  2.0037 -2.5546 -0.4756
   32MOL   H18921331   5.199   3.677   0.739 -0.9722 -1.0580 -1.6072
   32MOL   H19021332   4.921   3.783   0.690 -0.7356  2.7107 -1.5937
   32MOL   H19121333   5.046   3.837   0.591 -1.2289  0.5741  1.6260
   32MOL   H19221334   5.006   3.530   0.609 -0.6064  0.6833  0.7136
   32MOL   H19321335   5.106   3.623   0.499 -0.3169  0.6232 -0.1436
   32MOL   H19421336   4.889   3.745   0.445  0.6392  0.3410  1.3231
   32MOL   H19521337   4.794   3.633   0.512 -0.7954 -0.1177 -0.4700
   32MOL   H19621338   4.849   3.601   0.248 -0.8729  0.8916  1.6647
   32MOL   H19721339   5.003   3.542   0.299  0.1423  1.8279  1.5578
   32MOL   H19821340   4.738   3.428   0.391  0.7695 -0.0240 -0.6878
   32MOL   H19921341   4.894   3.383   0.444  2.3189  3.3645  0.1826
   32MOL   H20021342   4.789   3.234   0.246 -1.4939  1.0492 -0.1656
   32MOL   H20121343   4.830   3.363   0.148 -0.2823 -0.0391 -0.1913
   32MOL   H20221344   5.036   3.218   0.319 -2.7302 -1.1535  0.0523
   32MOL   H20321345   5.074   3.349   0.212 -1.8975  1.9779  0.6681
   32MOL   H20421346   4.950   3.098   0.112  0.3028  0.3394 -0.1385
   32MOL   H20521347   5.121   3.133   0.088 -0.1698  1.0976 -0.0299
   32MOL   N20621348   4.931   3.176   7.588 -0.6968 -0.2827 -0.4108
   32MOL   C20721349   4.902   3.229   7.454 -0.0037  0.2983  1.0885
   32MOL   C20821350   4.779   3.152   7.393 -0.0642 -0.1984 -0.6116
   32MOL   C20921351   4.664   3.158   7.493 -0.3341  0.2602 -0.0222
   32MOL   C21021352   4.524   3.134   7.431  0.1819 -0.3947 -0.0833
   32MOL   C21121353   4.455   3.261   7.378 -0.8688  0.1481 -0.0543
   32MOL   C21221354   4.341   3.223   7.275 -1.0060  0.0703 -0.0625
   32MOL   C21321355   4.376   3.191   7.125  0.4455  0.2246 -0.6014
   32MOL   C21421356   4.290   3.076   7.062 -0.5352 -0.0376 -0.4604
   32MOL   C21521357   4.341   3.033   6.926 -0.2333  0.4739  0.2505
   32MOL   C21621358   4.244   2.927   6.860 -0.8108 -0.1560 -1.0971
   32MOL   C21721359   4.274   2.785   6.893  0.4803 -0.1620  0.4444
   32MOL   O21821360   4.368   2.756   6.967 -0.5419 -0.4095 -0.2796
   32MOL   H21921361   4.914   3.082   7.620  0.1228  0.4087  2.2278
   32MOL   H22021362   4.991   3.197   7.400 -1.5039 -1.1212 -0.6127
   32MOL   H22121363   4.886   3.336   7.459 -1.6232  0.1976 -1.0353
   32MOL   H22221364   4.801   3.049   7.365 -3.6869 -1.2219  0.0531
   32MOL   H22321365   4.762   3.204   7.299  0.0837  1.6637  0.3554
   32MOL   H22421366   4.668   3.073   7.562  2.5689  0.1833 -0.2495
   32MOL   H22521367   4.671   3.253   7.545 -0.6299 -0.2375  0.9477
   32MOL   H22621368   4.460   3.117   7.518  1.2713 -0.5199  0.7108
   32MOL   H22721369   4.521   3.045   7.368 -1.2709 -0.5355  0.1652
   32MOL   H22821370   4.537   3.314   7.330 -1.1609  0.8581  0.2184
   32MOL   H22921371   4.414   3.318   7.461 -2.6458  1.7555 -1.9767
   32MOL   H23021372   4.278   3.141   7.309 -0.8167  0.5198  1.4085
   32MOL   H23121373   4.268   3.302   7.290  0.3492  1.3231  0.0991
   32MOL   H23221374   4.484   3.175   7.118  0.3917  0.9791 -3.6490
   32MOL   H23321375   4.364   3.279   7.062  2.2844  1.2120  0.3571
   32MOL   H23421376   4.300   2.996   7.136 -1.8736  0.0473 -0.1586
   32MOL   H23521377   4.183   3.094   7.048 -0.2379  2.2055  0.0049
   32MOL   H23621378   4.444   2.999   6.936 -0.1021  0.5193 -0.8899
   32MOL   H23721379   4.357   3.128   6.875  0.0641  0.2549 -0.0679
   32MOL   H23821380   4.226   2.943   6.754 -1.6347  0.7988 -0.8269
   32MOL   H23921381   4.150   2.939   6.915  0.9522  0.4293  1.9151
   32MOL   N24021382   4.199   2.691   6.837  0.4433  0.2214  0.2805
   32MOL   C24121383   4.212   2.550   6.859  0.4781  0.3730 -0.7081
   32MOL   C24221384   4.131   2.472   6.757  0.1652 -0.6639 -0.0285
   32MOL   C24321385   4.140   2.317   6.788  0.1127 -0.6518 -0.4129
   32MOL   C24421386   4.057   2.229   6.693 -0.4339  0.3782  0.3750
   32MOL   C24521387   4.088   2.231   6.547 -0.1762 -0.3548 -0.7426
   32MOL   C24621388   4.226   2.171   6.518 -0.5237  0.3348 -0.4107
   32MOL   C24721389   4.298   2.232   6.398  1.2397  0.3982 -0.7411
   32MOL   C24821390   4.428   2.172   6.352  0.1224 -0.3216  0.5349
   32MOL   C24921391   4.548   2.232   6.425 -0.0276 -0.6408  0.7302
   32MOL   C25021392   4.687   2.199   6.371  0.1053 -0.5643 -0.1677
   32MOL   C25121393   4.714   2.049   6.355 -0.2609 -0.1071  0.5094
   32MOL   O25221394   4.683   1.973   6.448  0.0956  0.4084 -0.2168
   32MOL   H25321395   4.114   2.727   6.797  1.5639  2.6801  0.0516
   32MOL   H25421396   4.164   2.537   6.956  1.8947 -1.4554 -0.2318
   32MOL   H25521397   4.315   2.516   6.871  0.5062  1.0400  1.0204
   32MOL   H25621398   4.167   2.499   6.657  0.3995 -0.5717  0.0800
   32MOL   H25721399   4.029   2.509   6.759  0.5926  0.5501  0.1321
   32MOL   H25821400   4.243   2.281   6.782  0.8867  1.0348  1.8302
   32MOL   H25921401   4.110   2.290   6.890  0.2500  1.3918  0.1920
   32MOL   H26021402   3.953   2.258   6.700  0.0450  1.4837  3.8563
   32MOL   H26121403   4.068   2.131   6.739 -1.2370  1.5454  3.1836
   32MOL   H26221404   4.083   2.334   6.512 -0.3142  0.1005  0.6249
   32MOL   H26321405   4.008   2.183   6.491  0.0251  0.5441 -1.8067
   32MOL   H26421406   4.290   2.193   6.603  0.3203  0.1339 -0.9804
   32MOL   H26521407   4.214   2.063   6.516  0.2878  0.2465 -2.8155
   32MOL   H26621408   4.314   2.340   6.399  0.6431  0.4924 -0.8082
   32MOL   H26721409   4.224   2.228   6.318  0.2588  2.6843 -0.0060
   32MOL   H26821410   4.422   2.065   6.367  0.1611 -0.1889  1.5270
   32MOL   H26921411   4.443   2.184   6.245 -0.7514 -2.5269  0.1489
   32MOL   H27021412   4.531   2.206   6.529 -0.5295 -0.0606  0.7951
   32MOL   H27121413   4.555   2.341   6.432 -1.4236 -0.4323 -0.7848
   32MOL   H27221414   4.762   2.236   6.441 -0.6298 -1.8810  1.3429
   32MOL   H27321415   4.695   2.247   6.273  2.2329 -0.5663 -0.0147
   32MOL   N27421416   4.768   2.000   6.249 -0.6484  0.0556  0.1173
   32MOL   C27521417   4.837   2.062   6.130  0.1642 -0.2560  0.3062
   32MOL   C27621418   4.869   1.969   6.006  0.3874 -0.5053 -0.2747
   32MOL   C27721419   4.956   2.053   5.897  0.4485 -0.2579 -0.1807
   32MOL   C27821420   5.013   1.959   5.795  0.3426  0.5278  0.1908
   32MOL   C27921421   5.084   2.024   5.674  0.0926 -0.7740  0.4210
   32MOL   C28021422   5.118   1.928   5.567  0.0486  0.3885 -0.6256
   32MOL   C28121423   5.002   1.893   5.477 -0.7783  0.0396 -0.2404
   32MOL   C28221424   5.044   1.778   5.395  0.6094  0.3532 -0.2100
   32MOL   C28321425   4.925   1.714   5.314  0.3385 -0.0180  0.3087
   32MOL   C28421426   4.958   1.578   5.247 -0.5117  0.0590 -0.8443
   32MOL   C28521427   4.966   1.460   5.349  0.0018 -0.1194 -0.5407
   32MOL   O28621428   4.868   1.390   5.379 -0.2611 -0.5244 -0.0916
   32MOL   H28721429   4.795   1.904   6.263 -1.7735 -0.3339 -0.3281
   32MOL   H28821430   4.933   2.099   6.166 -0.9036  1.6658  1.2547
   32MOL   H28921431   4.783   2.148   6.088  0.7225  0.3922  0.8975
   32MOL   H29021432   4.777   1.933   5.960  0.3034 -0.6372 -0.0041
   32MOL   H29121433   4.902   1.876   6.053  0.3492 -0.0812  0.5951
   32MOL   H29221434   4.883   2.122   5.855 -0.1045 -0.2818  0.7121
   32MOL   H29321435   5.039   2.113   5.935 -0.5082  0.8488  0.2214
   32MOL   H29421436   4.949   1.880   5.755  1.1023  0.6262 -1.2245
   32MOL   H29521437   5.087   1.899   5.848  0.4487  1.1392  0.7396
   32MOL   H29621438   5.177   2.076   5.700  0.6961 -0.6372 -1.8591
   32MOL   H29721439   5.019   2.094   5.623  1.1481 -1.4781 -2.0051
   32MOL   H29821440   5.190   1.975   5.500  1.4294  0.0105  0.5645
   32MOL   H29921441   5.171   1.842   5.609 -1.8875 -0.4563  0.1577
   32MOL   H30021442   4.967   1.978   5.419  1.6263  1.0899 -0.2146
   32MOL   H30121443   4.922   1.858   5.543  1.0730 -0.2768  1.8848
   32MOL   H30221444   5.118   1.814   5.323  1.3902  1.6777  1.2353
   32MOL   H30321445   5.080   1.698   5.459 -1.4981  0.9745  1.8176
   32MOL   H30421446   4.900   1.788   5.237  1.4006  0.1313  0.0944
   32MOL   H30521447   4.836   1.698   5.374 -0.6372 -2.1618 -1.6438
   32MOL   H30621448   5.045   1.584   5.182  0.2338  0.2481  0.1652
   32MOL   H30721449   4.885   1.545   5.173  0.1535  1.4420 -2.1383
   32MOL   N30821450   5.091   1.454   5.411  0.4167  0.3250  0.3773
   32MOL   C30921451   5.124   1.373   5.525 -0.6030  0.3694  0.3402
   32MOL   C31021452   5.265   1.315   5.508 -0.4018 -0.5240  0.1727
   32MOL   C31121453   5.290   1.261   5.376 -0.2718  0.7278  1.2844
   32MOL   C31221454   5.416   1.174   5.377 -0.0157 -0.6400  1.0120
   32MOL   C31321455   5.470   1.155   5.234  0.3110  0.1653  0.0988
   32MOL   C31421456   5.558   1.027   5.215 -0.3350 -0.2348  0.1988
   32MOL   C31521457   5.622   1.011   5.074 -0.6785 -0.7854 -0.6151
   32MOL   C31621458   5.534   0.978   4.950 -0.6059  0.4017  0.1160
   32MOL   C31721459   5.619   0.929   4.826 -0.0479 -0.2423 -0.0044
   32MOL   C31821460   5.534   0.879   4.712 -0.6342 -0.4412  0.1305
   32MOL   C31921461   5.607   0.814   4.591 -0.1407  0.3070  0.3867
   32MOL   O32021462   5.670   0.705   4.602 -0.3358 -0.2304  0.7182
   32MOL   H32121463   5.157   1.526   5.382  0.8632  0.8637  2.6561
   32MOL   H32221464   5.044   1.299   5.536  1.3181 -1.4346  2.9245
   32MOL   H32321465   5.111   1.438   5.612 -1.7201  0.1509  0.3518
   32MOL   H32421466   5.274   1.238   5.585 -1.7536 -0.3520  0.5194
   32MOL   H32521467   5.348   1.383   5.529  0.0555 -1.0102 -0.0724
   32MOL   H32621468   5.208   1.199   5.340  0.2698 -0.1301  1.5005
   32MOL   H32721469   5.309   1.341   5.304  1.1856  0.4847  1.3813
   32MOL   H32821470   5.416   1.076   5.424  0.9533 -0.0995  2.1759
   32MOL   H32921471   5.506   1.208   5.429 -0.3988  2.6014 -0.3702
   32MOL   H33021472   5.521   1.243   5.195 -0.2364  1.5597  2.4228
   32MOL   H33121473   5.385   1.138   5.168  0.4735 -0.4725  0.0500
   32MOL   H33221474   5.627   1.032   5.299  0.3533 -1.5331 -0.2747
   32MOL   H33321475   5.504   0.937   5.244  0.0373  0.6652  3.9968
   32MOL   H33421476   5.689   0.927   5.093 -0.1156 -0.3798 -0.8159
   32MOL   H33521477   5.691   1.093   5.058 -2.4434  0.9187  0.3645
   32MOL   H33621478   5.458   0.907   4.984 -1.7660  0.8582 -1.4496
   32MOL   H33721479   5.471   1.063   4.924 -0.1326  0.7714  0.1887
   32MOL   H33821480   5.680   0.847   4.864 -1.6005 -0.2587  2.6209
   32MOL   H33921481   5.686   1.005   4.786 -0.0005 -0.8543 -1.1081
   32MOL   H34021482   5.459   0.948   4.673  1.5868  1.6986 -0.4678
   32MOL   H34121483   5.469   0.800   4.750 -2.3686  1.1942  0.7063
   32MOL   N34221484   5.626   0.888   4.486  0.8648 -0.1618 -0.2428
   32MOL   C34321485   5.707   0.870   4.366 -0.6694  0.0537 -0.6628
   32MOL   C34421486   5.623   0.806   4.247  0.7409 -0.4324 -0.4968
   32MOL   C34521487   5.707   0.797   4.120  0.0476  0.5564  0.1564
   32MOL   C34621488   5.629   0.762   3.993 -0.0200 -0.0654 -0.5967
   32MOL   C34721489   5.561   0.625   3.998 -0.5064 -0.9284 -0.2090
   32MOL   C34821490   5.519   0.580   3.859 -0.5112  0.0486 -0.3027
   32MOL   C34921491   5.465   0.436   3.855  0.7055  0.6614 -0.2963
   32MOL   C35021492   5.316   0.427   3.871  0.1798  0.5667 -0.3798
   32MOL   C35121493   5.265   0.294   3.925  1.1405  0.3874 -0.1620
   32MOL   C35221494   5.278   0.298   4.084  0.2274 -0.3346 -0.3021
   32MOL   C35321495   5.242   0.173   4.158 -0.4279 -0.3865  0.1995
   32MOL   O35421496   5.145   0.107   4.133  0.2938 -0.4475 -0.4817
   32MOL   H35521497   5.582   0.979   4.487 -1.0109 -1.0012 -1.3308
   32MOL   H35621498   5.762   0.961   4.342 -1.9038  1.0996  0.3463
   32MOL   H35721499   5.776   0.791   4.394 -1.0495 -0.2824 -0.6596
   32MOL   H35821500   5.541   0.875   4.234  1.4392  1.1722  2.9352
   32MOL   H35921501   5.585   0.705   4.265  1.6609 -0.7809 -0.4711
   32MOL   H36021502   5.750   0.897   4.120 -0.2610  0.7198  2.7598
   32MOL   H36121503   5.791   0.728   4.134 -0.8113 -0.4966  0.1707
   32MOL   H36221504   5.696   0.759   3.907  0.0687 -0.6132 -0.5044
   32MOL   H36321505   5.558   0.844   3.979 -0.7740  0.1916  4.1068
   32MOL   H36421506   5.484   0.620   4.075  0.4576  3.1340  1.1240
   32MOL   H36521507   5.630   0.547   4.033 -1.1527 -0.7127  1.6174
   32MOL   H36621508   5.436   0.638   3.819 -0.2992  0.9742  0.5729
   32MOL   H36721509   5.597   0.595   3.785 -1.6777  2.0047 -1.1830
   32MOL   H36821510   5.514   0.357   3.912  1.3097  0.4724 -1.0583
   32MOL   H36921511   5.493   0.399   3.756 -0.5338  2.3159 -1.2912
   32MOL   H37021512   5.292   0.507   3.941 -0.1787 -1.2072  1.5415
   32MOL   H37121513   5.264   0.459   3.781  0.5711 -1.2600 -1.2800
   32MOL   H37221514   5.325   0.217   3.876  1.5026 -0.9999  2.3968
   32MOL   H37321515   5.159   0.285   3.900  1.0990  0.9968 -0.2293
   32MOL   H37421516   5.211   0.378   4.116 -0.6862 -0.6689 -1.3560
   32MOL   H37521517   5.369   0.350   4.116  0.7206 -1.2359 -0.2301
   32MOL   N37621518   5.327   0.142   4.255 -0.2204  0.1143  0.6011
   32MOL   C37721519   5.312   0.023   4.339  0.5491  0.0950  0.0667
   32MOL   C37821520   5.385   0.036   4.477 -0.1622 -0.5582  0.4928
   32MOL   C37921521   5.351   0.167   4.553  0.2428 -0.2008 -0.2200
   32MOL   C38021522   5.413   0.172   4.693 -0.3469  0.3811 -0.1880
   32MOL   C38121523   5.398   0.044   4.790  0.0047  0.2399 -0.5695
   32MOL   C38221524   5.427   0.096   4.937 -0.5231 -0.3548 -0.5562
   32MOL   C38321525   5.407   7.710   5.049  0.1801  0.1283 -0.0552
   32MOL   C38421526   5.479   7.579   5.021  0.1643  0.6530 -0.1700
   32MOL   C38521527   5.452   7.481   5.140  0.9583  0.1485 -0.2500
   32MOL   C38621528   5.507   7.337   5.110  0.0308 -0.7450 -0.3867
   32MOL   C38721529   5.646   7.331   5.167  0.1617 -0.4843 -0.3010
   32MOL   O38821530   5.746   7.357   5.097 -0.3288  0.4396  0.2268
   32MOL   H38921531   5.411   0.196   4.271 -1.2142  0.9438  3.2613
   32MOL   H39021532   5.206   0.012   4.361  0.7638 -1.5435  0.3398
   32MOL   H39121533   5.338   7.641   4.299 -3.0367 -1.2049  0.7313
   32MOL   H39221534   5.492   0.034   4.461 -0.0696  1.5063  0.6997
   32MOL   H39321535   5.351   7.673   4.543 -0.8836  1.1315  2.1843
   32MOL   H39421536   5.388   0.251   4.494 -0.6816  0.2229 -0.2071
   32MOL   H39521537   5.244   0.174   4.570  0.4564 -0.6823  1.3828
   32MOL   H39621538   5.374   0.254   4.753  0.9327  1.4803 -0.8501
   32MOL   H39721539   5.517   0.201   4.683 -0.6131  1.7557  0.8164
   32MOL   H39821540   5.469   7.682   4.762 -0.9492 -1.0634  0.5675
   32MOL   H39921541   5.306   7.703   4.779 -0.5297  1.2798 -1.6684
   32MOL   H40021542   5.531   0.129   4.935 -0.8008  0.4913 -2.1122
   32MOL   H40121543   5.369   0.185   4.962 -0.1750 -0.5658  1.0604
   32MOL   H40221544   5.298   7.698   5.055  0.0836  1.6868  1.7229
   32MOL   H40321545   5.444   0.029   5.145  1.9685 -0.9079 -0.3528
   32MOL   H40421546   5.448   7.532   4.928  0.2026 -0.7363  0.5045
   32MOL   H40521547   5.587   7.596   5.015  0.6608 -1.6661  1.3607
   32MOL   H40621548   5.343   7.472   5.142  0.9162  0.8457  1.6413
   32MOL   H40721549   5.481   7.527   5.234 -0.8325 -0.0563  0.4318
   32MOL   H40821550   5.509   7.319   5.003  0.4999 -0.5391 -0.4137
   32MOL   H40921551   5.449   7.260   5.161 -0.5272  0.4290  0.8160
   32MOL   N41021552   5.661   7.284   5.290 -0.6232 -0.4543 -0.1868
   32MOL   C41121553   5.780   7.269   5.367 -0.6391 -0.1614  0.6926
   32MOL   C41221554   5.839   7.128   5.351 -0.5028 -0.3296 -0.5296
   32MOL   C41321555   5.741   7.015   5.387 -0.2939 -0.2148  0.0538
   32MOL   C41421556   5.709   6.986   5.532  0.5811 -0.1904  0.0018
   32MOL   C41521557   5.834   6.966   5.626  0.8730 -0.5758 -0.0955
   32MOL   C41621558   5.790   6.931   5.771  0.2946  0.1427  0.1739
   32MOL   C41721559   5.908   6.922   5.871  0.8804  0.2064 -0.3388
   32MOL   C41821560   6.010   6.815   5.830  0.5231 -0.0981  0.1508
   32MOL   C41921561   6.113   6.801   5.940  0.2438 -0.0729 -0.0035
   32MOL   C42021562   6.061   6.733   6.074 -0.5297 -0.0709  0.2368
   32MOL   C42121563   6.175   6.723   6.179  0.4398 -0.1244  0.6925
   32MOL   O42221564   6.294   6.755   6.143 -0.2800 -0.3165 -0.2222
   32MOL   H42321565   5.580   7.276   5.350 -0.7169  2.1660  0.0866
   32MOL   H42421566   5.851   7.344   5.333 -0.8121  0.9929  2.7497
   32MOL   H42521567   5.774   7.287   5.475  1.6038  2.1153  0.4913
   32MOL   H42621568   5.935   7.128   5.404  0.1805 -3.5592 -1.6547
   32MOL   H42721569   5.876   7.100   5.252  1.4652 -1.3939  0.4700
   32MOL   H42821570   5.645   7.032   5.337 -0.8808 -3.3740  0.0204
   32MOL   H42921571   5.766   6.922   5.337 -3.6716 -1.0735 -0.1844
   32MOL   H43021572   5.647   6.896   5.532 -1.2310  0.9573 -3.8088
   32MOL   H43121573   5.638   7.051   5.583 -1.6415 -1.8179 -0.9239
   32MOL   H43221574   5.886   7.061   5.633 -0.7568  0.1785  2.1192
   32MOL   H43321575   5.899   6.895   5.574 -0.8919 -1.6542 -0.9038
   32MOL   H43421576   5.722   7.009   5.804  0.8759  1.0398 -0.7056
   32MOL   H43521577   5.740   6.835   5.775  3.6024 -1.6126  0.5373
   32MOL   H43621578   5.865   6.904   5.970 -0.1445 -1.1483 -1.0054
   32MOL   H43721579   5.964   7.015   5.877  2.0770 -0.5241  0.0444
   32MOL   H43821580   5.955   6.722   5.815  0.6866 -0.3542  1.1359
   32MOL   H43921581   6.052   6.834   5.731  1.7945 -2.7960  0.1290
   32MOL   H44021582   6.153   6.898   5.968  1.1664 -0.0595 -1.3199
   32MOL   H44121583   6.197   6.738   5.913 -0.2727 -2.3295  3.2894
   32MOL   H44221584   6.012   6.636   6.061 -0.7385  0.2437 -1.4002
   32MOL   H44321585   5.979   6.792   6.115  1.2884  3.4162 -1.0328
   32MOL   N44421586   6.139   6.677   6.300 -0.1677 -0.2532 -0.0343
   32MOL   C44521587   6.238   6.671   6.410  0.7142  0.0379  0.1569
   32MOL   C44621588   6.164   6.689   6.550  0.3505  0.6757  0.2499
   32MOL   C44721589   6.091   6.830   6.557 -0.4588  0.8104 -0.2539
   32MOL   C44821590   6.016   6.844   6.697 -0.3351  0.0412  0.3062
   32MOL   C44921591   5.984   6.992   6.728  0.3932 -0.2617  0.0690
   32MOL   C45021592   5.860   7.050   6.651  0.0740 -0.1798  0.3027
   32MOL   C45121593   5.725   7.046   6.731 -0.3202  0.2700 -1.0679
   32MOL   C45221594   5.672   6.904   6.762 -0.1473  0.9128 -0.2452
   32MOL   C45321595   5.531   6.906   6.831  1.5268  0.8094  0.6834
   32MOL   C45421596   5.417   6.926   6.729  0.1362 -0.4836  0.1122
   32MOL   C45521597   5.372   6.802   6.655  0.1691  0.0474 -0.2854
   32MOL   O45621598   5.432   6.696   6.680 -0.3821 -0.0736  0.5461
   32MOL   H45721599   6.044   6.650   6.318 -0.9083  2.1473 -0.2732
   32MOL   H45821600   6.301   6.583   6.405  0.4529 -0.1862  0.8242
   32MOL   H45921601   6.301   6.759   6.397  0.2840  0.2835 -0.2696
   32MOL   H46021602   6.233   6.692   6.634  0.5481 -0.1727  0.1195
   32MOL   H46121603   6.098   6.603   6.558 -1.2769  1.8678 -0.0128
   32MOL   H46221604   6.166   6.909   6.555  0.5086 -0.1008 -0.2090
   32MOL   H46321605   6.013   6.834   6.480  0.1509 -0.6943 -0.9450
   32MOL   H46421606   6.092   6.811   6.768  0.1072 -0.4952 -0.4197
   32MOL   H46521607   5.927   6.781   6.701  0.1605 -0.6623  0.1675
   32MOL   H46621608   6.071   7.048   6.692 -0.6940  1.3888 -0.0242
   32MOL   H46721609   5.980   7.021   6.832 -1.2639  0.6134 -0.2230
   32MOL   H46821610   5.890   7.154   6.638  0.5961 -0.2106  1.1603
   32MOL   H46921611   5.848   7.008   6.551 -0.3250 -1.6190  0.9316
   32MOL   H47021612   5.655   7.090   6.660  0.4227 -0.1070 -2.0392
   32MOL   H47121613   5.733   7.107   6.821 -0.0988 -1.7174  0.2779
   32MOL   H47221614   5.662   6.846   6.670  2.4874 -1.5090  0.9079
   32MOL   H47321615   5.749   6.865   6.829 -1.4256  0.7709  1.1528
   32MOL   H47421616   5.536   6.993   6.896  2.1109  1.2307  0.0734
   32MOL   H47521617   5.501   6.822   6.895  1.2489  1.3684  1.2993
   32MOL   H47621618   5.442   7.009   6.662 -0.0158  1.6761  2.6189
   32MOL   H47721619   5.336   6.962   6.793 -0.2288  0.3664 -0.8172
   32MOL   N47821620   5.270   6.810   6.578  0.2970  0.6228  0.2139
   32MOL   C47921621   5.206   6.695   6.507 -0.4376 -0.1934 -0.6724
   32MOL   C48021622   5.111   6.748   6.396 -0.9467  0.4585  0.1761
   32MOL   C48121623   5.010   6.641   6.352 -1.1128 -0.5788 -0.0192
   32MOL   C48221624   4.901   6.696   6.250 -0.3377  0.2909 -0.4764
   32MOL   C48321625   4.968   6.739   6.123 -0.9179 -0.0511 -0.3987
   32MOL   C48421626   4.882   6.798   6.009 -0.0553  0.2914  0.3624
   32MOL   C48521627   4.819   6.688   5.928 -0.8982  0.5005  0.6169
   32MOL   C48621628   4.747   6.740   5.806  0.1414 -0.4082  0.4126
   32MOL   C48721629   4.673   6.639   5.719  0.2645 -0.4689 -0.2101
   32MOL   C48821630   4.760   6.558   5.616  0.0238 -0.1876  0.4393
   32MOL   C48921631   4.788   6.635   5.489 -0.0241 -0.2966  0.1692
   32MOL   O49021632   4.688   6.668   5.420 -0.7041 -0.1303  0.1906
   32MOL   H49121633   5.214   6.893   6.569 -2.3097 -1.3206 -2.2430
   32MOL   H49221634   5.282   6.627   6.467  0.2008  1.2025 -1.8585
   32MOL   H49321635   5.141   6.647   6.580 -0.7063  0.4384 -0.4986
   32MOL   H49421636   5.178   6.782   6.317 -1.4077 -0.5266 -0.6381
   32MOL   H49521637   5.037   6.821   6.428  0.6451  1.6905  1.1448
   32MOL   H49621638   5.056   6.553   6.307  0.5359 -0.7935  2.0159
   32MOL   H49721639   4.956   6.605   6.440 -0.7358  1.6984  1.1839
   32MOL   H49821640   4.847   6.778   6.296 -0.2096  0.3660 -0.4606
   32MOL   H49921641   4.832   6.611   6.246  0.3392 -0.3915  1.6450
   32MOL   H50021642   5.030   6.655   6.091 -0.9244 -1.0037  1.9746
   32MOL   H50121643   5.039   6.818   6.146 -0.1196 -1.1794  1.0927
   32MOL   H50221644   4.813   6.871   6.051 -0.8204 -1.2851  1.9193
   32MOL   H50321645   4.945   6.844   5.934 -1.2072  0.3097 -0.6037
   32MOL   H50421646   4.748   6.641   5.997 -2.5177  0.1082 -1.2862
   32MOL   H50521647   4.899   6.616   5.913 -0.7796  0.4858  1.2874
   32MOL   H50621648   4.680   6.824   5.826  0.5404 -0.4627  1.9921
   32MOL   H50721649   4.819   6.793   5.743 -0.5637  0.5999  0.4425
   32MOL   H50821650   4.599   6.688   5.656  0.1935 -2.6602 -1.8792
   32MOL   H50921651   4.609   6.571   5.775 -0.0567  0.3978  0.4712
   32MOL   H51021652   4.717   6.461   5.593  0.8912 -0.9051  1.7695
   32MOL   H51121653   4.854   6.534   5.666  0.1036  0.0506  0.4046
   32MOL   N51221654   4.917   6.667   5.463 -0.5316  0.5712 -0.3735
   32MOL   C51321655   4.958   6.775   5.378  0.6861  0.6067  0.1550
   32MOL   C51421656   5.106   6.763   5.350  0.5317  1.3325 -0.4729
   32MOL   C51521657   5.150   6.871   5.251 -0.2848 -0.3689 -0.2327
   32MOL   C51621658   5.306   6.880   5.241  0.2458 -0.4999 -0.3409
   32MOL   C51721659   5.374   6.751   5.192 -0.2332 -0.1688 -0.3593
   32MOL   C51821660   5.525   6.741   5.168 -0.0946 -0.8886 -0.0061
   32MOL   C51921661   5.571   6.836   5.056  0.3753 -0.7667 -0.1794
   32MOL   C52021662   5.713   6.793   5.017 -0.3777  0.0925 -0.5817
   32MOL   C52121663   5.772   6.874   4.904  0.0884  0.4090 -0.8321
   32MOL   C52221664   5.798   7.024   4.931 -0.1524  0.4104  0.1536
   32MOL   C52321665   5.941   7.063   4.979 -0.5262  0.6428  0.0017
   32MOL   O52421666   6.031   6.989   5.016  0.2574 -0.3240  0.3110
   32MOL   H52521667   4.995   6.629   5.514 -0.6075  1.8063  0.6928
   32MOL   H52621668   4.896   6.768   5.289 -1.6248  0.0221  1.7510
   32MOL   H52721669   4.921   6.868   5.420  0.3360 -0.0926  1.4250
   32MOL   H52821670   5.129   6.672   5.296 -0.2267 -0.4471  2.1128
   32MOL   H52921671   5.172   6.766   5.437  1.4740  1.4887 -1.1709
   32MOL   H53021672   5.115   6.835   5.154 -2.4775  0.5061  0.2111
   32MOL   H53121673   5.099   6.965   5.271  1.5298  0.3457  1.1922
   32MOL   H53221674   5.340   6.904   5.342 -0.6298  0.6227 -0.2996
   32MOL   H53321675   5.332   6.966   5.178  0.2863  0.6812  1.2500
   32MOL   H53421676   5.321   6.732   5.099  1.0541  1.3056 -1.4150
   32MOL   H53521677   5.344   6.665   5.253  0.9652 -0.0241  0.4591
   32MOL   H53621678   5.588   6.752   5.256  0.1433  0.7261 -0.3632
   32MOL   H53721679   5.536   6.639   5.129  0.4115 -0.9898  0.3998
   32MOL   H53821680   5.568   6.943   5.074  1.5478 -1.2996  3.6208
   32MOL   H53921681   5.508   6.811   4.970 -2.3249  3.4671  0.4086
   32MOL   H54021682   5.780   6.784   5.101  1.6454 -0.9677 -2.2593
   32MOL   H54121683   5.715   6.687   4.988  3.6085 -1.0270  3.3091
   32MOL   H54221684   5.698   6.868   4.823 -0.0035  2.4587 -0.9259
   32MOL   H54321685   5.864   6.828   4.869  1.2214 -0.2283  2.8092
   32MOL   H54421686   5.730   7.067   5.003  1.7276  3.1650  0.3746
   32MOL   H54521687   5.785   7.067   4.831 -0.8660 -0.8360 -0.2917
   32MOL   N54621688   5.958   7.193   4.987 -0.6525 -0.6443 -0.0331
   32MOL   C54721689   6.071   7.267   5.040  0.7212 -0.0999 -0.0419
   32MOL   C54821690   6.054   7.418   5.010  0.1332  0.8341  0.4498
   32MOL   C54921691   6.144   7.507   5.111 -0.0055 -0.1669 -0.0409
   32MOL   C55021692   6.147   7.655   5.092 -0.2176  0.5069 -0.1477
   32MOL   C55121693   6.274   0.000   5.146 -0.3220 -0.8142 -0.3455
   32MOL   C55221694   6.279   7.708   5.303 -0.5284  0.4887 -0.6245
   32MOL   C55321695   6.407   0.058   5.359  0.1324  0.0992 -1.1119
   32MOL   C55421696   6.425   0.072   5.515  0.0280  1.0290  0.7938
   32MOL   C55521697   6.554   0.141   5.560  0.6248 -0.8304  0.3519
   32MOL   C55621698   6.577   0.186   5.703  0.0444 -0.2470  0.5387
   32MOL   C55721699   6.464   0.272   5.760 -0.6367 -0.1133 -0.2921
   32MOL   O55821700   6.427   0.377   5.710 -0.3017  0.3319 -0.5202
   32MOL   H55921701   5.894   7.243   4.927 -0.8031  1.2277  1.6547
   32MOL   H56021702   6.054   7.244   5.145 -2.9354 -2.1045 -0.9563
   32MOL   H56121703   6.166   7.228   5.005  0.9125  1.9824 -1.9845
   32MOL   H56221704   5.954   7.460   5.020  0.5962  1.8687  0.8571
   32MOL   H56321705   6.093   7.433   4.910  0.0747 -1.0993  0.1245
   32MOL   H56421706   6.132   7.478   5.215  0.8818  0.1932  0.1750
   32MOL   H56521707   6.245   7.470   5.093  0.2222 -0.6707  2.1372
   32MOL   H56621708   6.060   7.701   5.140 -0.2960  0.1255  0.0768
   32MOL   H56721709   6.143   7.688   4.988  0.1268  0.0910 -0.2901
   32MOL   H56821710   6.272   0.108   5.131  1.4632 -0.1574  3.3754
   32MOL   H56921711   6.363   7.684   5.092 -1.8770 -1.9008 -2.3019
   32MOL   H57021712   6.186   0.032   5.342  0.4897  1.2105  1.1122
   32MOL   H57121713   6.286   7.608   5.345  2.0976  0.8318 -0.1441
   32MOL   H57221714   6.418   0.162   5.327  0.1712  1.0218  1.7362
   32MOL   H57321715   6.499   0.017   5.318  1.2588  0.9690  0.4495
   32MOL   H57421716   6.348   0.146   5.536 -1.4974 -0.8321  1.8706
   32MOL   H57521717   6.413   7.690   5.561  1.5430  0.1469 -0.6344
   32MOL   H57621718   6.577   0.226   5.496  0.0100 -0.8087  0.1545
   32MOL   H57721719   6.630   0.069   5.532  0.3634 -1.3419  0.9561
   32MOL   H57821720   6.664   0.251   5.699 -0.2768  0.1813  0.5755
   32MOL   H57921721   6.609   0.103   5.767 -1.2465 -0.1378  1.3504
   32MOL   N58021722   6.396   0.214   5.861 -0.0799  0.5936  0.0501
   32MOL   C58121723   6.275   0.264   5.925 -0.5188 -0.2591  0.0958
   32MOL   C58221724   6.310   0.334   6.064  0.0893 -0.4189  0.0234
   32MOL   C58321725   6.428   0.430   6.066  0.3755  0.0009  0.2568
   32MOL   C58421726   6.430   0.561   5.974  0.3331  0.1162 -0.6878
   32MOL   C58521727   6.320   0.659   6.020  0.1730  0.3317 -1.1301
   32MOL   C58621728   6.315   0.793   5.944 -0.7272  0.1276 -0.5129
   32MOL   C58721729   6.209   0.892   5.977  0.0069 -0.5143  0.0157
   32MOL   C58821730   6.210   1.017   5.882  0.5776  0.3307 -0.4725
   32MOL   C58921731   6.081   1.099   5.893  0.1981 -0.5097  0.1769
   32MOL   C59021732   6.091   1.232   5.825 -0.3153 -0.6822 -0.7778
   32MOL   C59121733   5.943   1.276   5.795 -0.0329  0.0400  0.0057
   32MOL   O59221734   5.879   1.325   5.890 -0.2307 -0.2687  1.0052
   32MOL   H59321735   6.432   0.127   5.898 -2.4549  0.2363  1.6284
   32MOL   H59421736   6.223   0.331   5.857 -1.3501 -1.2675 -0.2765
   32MOL   H59521737   6.207   0.179   5.931 -1.7868  0.7323  0.1290
   32MOL   H59621738   6.313   0.266   6.149  2.3208 -0.1686  0.1864
   32MOL   H59721739   6.229   0.400   6.095 -1.2132 -1.2728 -1.5410
   32MOL   H59821740   6.441   0.452   6.172 -1.9353 -0.4930  0.6609
   32MOL   H59921741   6.511   0.366   6.034 -0.2119  0.6726 -2.7661
   32MOL   H60021742   6.409   0.530   5.871  0.7990  0.4209 -0.8788
   32MOL   H60121743   6.525   0.609   5.999  0.4795 -1.0866  1.1353
   32MOL   H60221744   6.338   0.678   6.126  1.4447  0.9767 -1.4516
   32MOL   H60321745   6.223   0.612   6.008 -0.0291 -0.0963  1.7420
   32MOL   H60421746   6.409   0.842   5.968  0.0554 -0.7411 -1.7206
   32MOL   H60521747   6.326   0.766   5.839 -0.3643 -0.1262 -0.4102
   32MOL   H60621748   6.226   0.919   6.081 -0.6497 -2.6839  0.7066
   32MOL   H60721749   6.113   0.841   5.972 -0.9460  1.2747 -0.5330
   32MOL   H60821750   6.294   1.086   5.890  1.2219 -0.6498  1.3846
   32MOL   H60921751   6.208   0.977   5.780  1.7198 -1.4623  0.1902
   32MOL   H61021752   6.064   1.128   5.997  1.1402 -1.4210  0.5950
   32MOL   H61121753   5.990   1.040   5.875 -0.4741  1.4605 -3.2173
   32MOL   H61221754   6.170   1.230   5.750  0.7458  1.1361  0.2481
   32MOL   H61321755   6.120   1.302   5.904 -1.3114 -0.0618 -0.9543
   32MOL   N61421756   5.893   1.263   5.672  0.1784  0.0102 -0.3665
   32MOL   C61521757   5.759   1.291   5.635  0.2322 -0.3139  0.3672
   32MOL   C61621758   5.645   1.226   5.726 -0.0406  0.2560  0.4770
   32MOL   C61721759   5.671   1.079   5.753  0.1136 -0.0747 -0.0487
   32MOL   C61821760   5.554   1.013   5.815  0.5905 -0.4334 -0.1254
   32MOL   C61921761   5.511   1.079   5.947 -0.2877  0.0057 -0.3852
   32MOL   C62021762   5.401   0.993   6.019 -0.4186 -0.4788 -0.0901
   32MOL   C62121763   5.368   1.074   6.151 -0.1165  0.7148  1.1204
   32MOL   C62221764   5.263   1.012   6.236 -0.1284  0.4264  0.9313
   32MOL   C62321765   5.214   1.094   6.353  0.3611 -0.4473 -0.6592
   32MOL   C62421766   5.161   0.998   6.463 -0.5297 -0.3205  0.1444
   32MOL   C62521767   5.068   1.068   6.561 -0.1642 -0.7117 -0.1071
   32MOL   O62621768   5.086   1.185   6.584 -0.7271  0.1992 -0.1754
   32MOL   H62721769   5.949   1.221   5.599 -1.3981 -1.6942 -0.6378
   32MOL   H62821770   5.745   1.274   5.529  1.9483  3.4364 -0.5551
   32MOL   H62921771   5.743   1.398   5.652 -0.5359 -0.1605 -1.2490
   32MOL   H63021772   5.541   1.251   5.709  0.8110  2.6954 -1.5106
   32MOL   H63121773   5.650   1.275   5.823  1.7860  0.6970  0.1845
   32MOL   H63221774   5.698   1.024   5.663  2.3373  2.2979 -0.9098
   32MOL   H63321775   5.758   1.063   5.816 -0.7253 -0.6892  0.9756
   32MOL   H63421776   5.580   0.908   5.831  0.9425 -0.2145  0.7455
   32MOL   H63521777   5.467   1.007   5.749  0.9283 -0.5182 -0.5610
   32MOL   H63621778   5.478   1.182   5.938 -2.1023 -0.6843 -2.1385
   32MOL   H63721779   5.601   1.076   6.008 -0.7087 -1.5807  0.1807
   32MOL   H63821780   5.307   0.967   5.969 -0.8595  0.6980  0.1172
   32MOL   H63921781   5.448   0.898   6.045 -0.2213 -0.7989 -1.5684
   32MOL   H64021782   5.341   1.179   6.141  0.5966  0.8266  0.3375
   32MOL   H64121783   5.463   1.076   6.205  0.7259 -1.3407 -0.2538
   32MOL   H64221784   5.172   0.988   6.181 -1.1322  0.3929  2.5989
   32MOL   H64321785   5.312   0.918   6.259  1.3817  0.5442 -1.5828
   32MOL   H64421786   5.150   1.175   6.319  2.0289  1.6379  1.0150
   32MOL   H64521787   5.295   1.146   6.404 -1.1767  1.5601 -0.1949
   32MOL   H64621788   5.251   0.970   6.517 -1.8047 -0.7202  2.1209
   32MOL   H64721789   5.130   0.902   6.422  3.1356 -2.2154  1.5732
   32MOL   N64821790   4.964   1.002   6.615 -0.5298 -0.1243 -0.3410
   32MOL   C64921791   4.895   1.055   6.729 -0.1537 -0.9669  0.2311
   32MOL   C65021792   4.938   0.997   6.855  0.2683  0.3093 -0.4655
   32MOL   C65121793   4.894   0.851   6.866  0.4171  0.3982  0.0703
   32MOL   C65221794   4.917   0.791   7.008  0.2772  0.2491 -0.4146
   32MOL   C65321795   4.864   0.658   7.053 -0.2708 -0.5215  0.1540
   32MOL   C65421796   4.909   0.622   7.199 -0.1912  0.2090  0.3467
   32MOL   C65521797   4.858   0.708   7.315  0.1046 -0.2458 -0.1664
   32MOL   C65621798   4.898   0.653   7.456  0.5930 -0.3554 -0.8951
   32MOL   C65721799   4.890   0.768   7.570 -0.6817  0.3871  0.6709
   32MOL   C65821800   4.751   0.836   7.603 -0.4851  0.1827 -0.4735
   32MOL   C65921801   4.640   0.737   7.608  0.8358  0.2933  0.2891
   32MOL   O66021802   4.649   0.635   7.672  0.1872  0.3263 -0.4024
   32MOL   H66121803   4.959   0.902   6.601  2.2774 -0.4514  0.7108
   32MOL   H66221804   4.786   1.058   6.720 -0.1748 -0.3751  0.6219
   32MOL   H66321805   4.909   1.163   6.742  3.0258 -1.0580 -1.8367
   32MOL   H66421806   4.904   1.044   6.948  1.9298  0.3113  0.1566
   32MOL   H66521807   5.047   1.005   6.851  0.7375 -1.2560  4.7225
   32MOL   H66621808   4.786   0.844   6.849  0.1339  0.9565  1.5449
   32MOL   H66721809   4.952   0.781   6.807 -1.3087  0.3512 -1.6156
   32MOL   H66821810   4.892   0.863   7.086 -0.9120 -0.9803  0.3787
   32MOL   H66921811   5.025   0.795   7.023  0.2753 -1.7279  0.2564
   32MOL   H67021812   4.897   0.585   6.979 -0.3300  1.1780 -1.5826
   32MOL   H67121813   4.755   0.665   7.045 -0.2668  0.8566  1.1666
   32MOL   H67221814   4.872   0.520   7.207  0.7478 -0.0097  2.1189
   32MOL   H67321815   5.018   0.616   7.197 -0.1912  0.5367 -0.8376
   32MOL   H67421816   4.751   0.725   7.307 -0.0749 -0.9531  0.6734
   32MOL   H67521817   4.907   0.804   7.299 -0.5889  0.4611  1.8718
   32MOL   H67621818   4.830   0.571   7.478 -0.0400  0.6695  1.1028
   32MOL   H67721819   5.001   0.617   7.463  1.5957  2.0661 -2.5602
   32MOL   H67821820   4.974   0.836   7.558 -0.0191 -0.8645 -2.3775
   32MOL   H67921821   4.917   0.729   7.668 -0.6903  1.0074  0.9174
   32MOL   H68021822   4.730   0.901   7.518 -1.2657  0.0731 -0.3651
   32MOL   H68121823   4.748   0.894   7.695 -2.0308  2.1332 -1.7147
   32MOL   H68221824   4.547   0.767   7.559 -0.0185 -0.9969  1.0926
   33MOL     N121825   3.684   2.993   4.468  0.1543 -0.0672  0.7475
   33MOL     C221826   3.609   3.029   4.349  0.2159 -0.2821 -0.1963
   33MOL     C321827   3.478   3.104   4.389  0.1467 -0.2540 -0.1492
   33MOL     C421828   3.423   3.193   4.279 -0.5060 -0.5392  0.1032
   33MOL     C521829   3.293   3.253   4.306 -0.1104 -0.1932  0.3522
   33MOL     C621830   3.241   3.330   4.191  0.2164 -0.3321 -0.2574
   33MOL     C721831   3.108   3.406   4.207 -1.1729  0.1023 -0.7665
   33MOL     C821832   3.080   3.513   4.094  0.2262 -0.1611 -0.5060
   33MOL     C921833   3.018   3.465   3.963 -1.0784 -0.2518  0.3266
   33MOL    C1021834   2.861   3.462   3.972  0.0379  0.3286  0.1698
   33MOL    C1121835   2.800   3.460   3.827  0.0990  0.2256 -0.1974
   33MOL    C1221836   2.672   3.383   3.812 -0.1653  0.3189 -0.2503
   33MOL    O1321837   2.568   3.413   3.877  0.3484 -0.1769  0.0437
   33MOL    H1421838   3.611   2.980   4.537  0.0396  1.2596  0.8896
   33MOL    H1521839   3.585   2.942   4.288  2.9798 -1.9133  0.9648
   33MOL    H1621840   3.664   3.091   4.278  1.0482 -2.5513 -1.6021
   33MOL    H1721841   3.510   3.171   4.469 -0.7854  1.6209 -1.3221
   33MOL    H1821842   3.394   3.042   4.420 -0.4761  0.3125 -0.6843
   33MOL    H1921843   3.488   3.277   4.257 -0.0784 -0.7821  0.4409
   33MOL    H2021844   3.418   3.128   4.192  0.6133 -2.0954  1.1707
   33MOL    H2121845   3.309   3.321   4.389  1.2139  0.1771 -0.1962
   33MOL    H2221846   3.222   3.179   4.344 -0.8304  0.7623  0.8699
   33MOL    H2321847   3.233   3.281   4.094 -0.6192  1.0188 -0.8891
   33MOL    H2421848   3.313   3.410   4.174  0.2209 -0.1542  0.5611
   33MOL    H2521849   3.037   3.324   4.220 -0.2935 -0.2422  2.2264
   33MOL    H2621850   3.104   3.465   4.299 -1.3803  1.5742 -1.7097
   33MOL    H2721851   3.184   3.541   4.074  0.3067 -0.4310 -0.4746
   33MOL    H2821852   3.028   3.599   4.135  3.1097  0.0860  2.9075
   33MOL    H2921853   3.032   3.534   3.880 -0.3912 -3.3549 -2.2510
   33MOL    H3021854   3.062   3.370   3.932  0.2284  0.9177 -1.5294
   33MOL    H3121855   2.813   3.545   4.024 -1.2904 -0.6155  0.4845
   33MOL    H3221856   2.823   3.370   4.018 -0.6087 -1.0080 -2.8993
   33MOL    H3321857   2.873   3.417   3.759  0.2424 -0.6340  0.4947
   33MOL    H3421858   2.775   3.560   3.791 -1.6827  0.3158  1.2136
   33MOL    H3521859   3.731   3.077   4.498  0.9341  0.4474 -1.7854
   33MOL    N3621860   2.674   3.286   3.719  0.0330 -0.2805 -0.1774
   33MOL    C3721861   2.558   3.207   3.682  0.0343  0.0429 -0.1880
   33MOL    C3821862   2.598   3.070   3.634  0.8493  0.3237 -0.9443
   33MOL    C3921863   2.479   2.975   3.613 -0.1977  0.2809  0.1926
   33MOL    C4021864   2.526   2.839   3.575 -0.5694  0.0903 -0.0648
   33MOL    C4121865   2.411   2.742   3.560 -0.3643  0.3948 -1.0228
   33MOL    C4221866   2.474   2.602   3.541  0.3711 -0.3410  1.1676
   33MOL    C4321867   2.377   2.509   3.461 -0.2550 -0.0865 -0.0492
   33MOL    C4421868   2.448   2.385   3.407 -0.3038  0.1384 -0.3048
   33MOL    C4521869   2.348   2.302   3.311 -0.5719  0.0045 -0.6718
   33MOL    C4621870   2.415   2.168   3.259 -0.3407  0.0194  0.4969
   33MOL    C4721871   2.538   2.190   3.176  0.4779  0.0023  0.1611
   33MOL    O4821872   2.540   2.291   3.099  0.1549 -0.2691 -0.4502
   33MOL    H4921873   2.753   3.276   3.657  0.8862  0.7282  0.7335
   33MOL    H5021874   2.496   3.203   3.771  0.8707 -1.0452  0.3613
   33MOL    H5121875   2.498   3.258   3.606 -1.2408 -0.4313  0.4964
   33MOL    H5221876   2.673   3.035   3.704  1.5803  1.0187 -1.3785
   33MOL    H5321877   2.650   3.073   3.538  1.0474 -0.7407 -0.8816
   33MOL    H5421878   2.425   2.973   3.708  1.9105  1.2133  1.4607
   33MOL    H5521879   2.417   3.027   3.540 -0.8434 -1.1308 -0.2728
   33MOL    H5621880   2.600   2.816   3.652 -1.3670  0.1167  0.7170
   33MOL    H5721881   2.573   2.853   3.477 -4.0592  0.2472 -1.7963
   33MOL    H5821882   2.355   2.779   3.474 -1.8221  3.0002  0.9575
   33MOL    H5921883   2.346   2.728   3.647 -0.4820 -1.0946 -1.3364
   33MOL    H6021884   2.569   2.606   3.487 -0.3802  2.4545 -0.0736
   33MOL    H6121885   2.490   2.550   3.635  2.4577  0.3034  1.1952
   33MOL    H6221886   2.350   2.555   3.365 -0.2976 -2.2332 -1.0889
   33MOL    H6321887   2.283   2.485   3.512 -0.6170 -0.7922 -1.0240
   33MOL    H6421888   2.525   2.433   3.346  0.9766  0.4418  1.5026
   33MOL    H6521889   2.491   2.319   3.482 -0.8251  1.5678  1.2875
   33MOL    H6621890   2.330   2.371   3.229 -0.7140 -2.6978 -2.9596
   33MOL    H6721891   2.255   2.276   3.361 -0.8462  0.3414 -1.0008
   33MOL    H6821892   2.347   2.108   3.199 -0.5297  0.9833 -0.2787
   33MOL    H6921893   2.454   2.114   3.345 -0.7069  0.9846  1.2716
   33MOL    N7021894   2.636   2.099   3.179 -0.0359  0.3370 -0.0695
   33MOL    C7121895   2.772   2.116   3.128 -0.4839 -0.2550  0.1087
   33MOL    C7221896   2.791   2.033   3.006 -0.2062 -0.9526  0.5206
   33MOL    C7321897   2.942   2.026   2.956 -0.3234 -0.1032  0.2037
   33MOL    C7421898   2.943   1.936   2.828 -0.7735  0.2375  0.0711
   33MOL    C7521899   3.084   1.887   2.779 -0.4354  0.3175 -0.3514
   33MOL    C7621900   3.072   1.764   2.680  0.6042 -0.5310 -0.0049
   33MOL    C7721901   3.193   1.669   2.670  0.1043  0.0837  0.3520
   33MOL    C7821902   3.172   1.566   2.554 -0.2647  0.3627  0.0320
   33MOL    C7921903   3.288   1.468   2.550 -0.5970 -0.4619  0.3558
   33MOL    C8021904   3.424   1.528   2.499 -0.2335 -0.7896  0.3953
   33MOL    C8121905   3.527   1.416   2.485 -0.6228  0.5360  0.6453
   33MOL    O8221906   3.523   1.320   2.567 -0.4657 -0.0450  0.2096
   33MOL    H8321907   2.626   2.020   3.241  1.1149  0.8661  0.8137
   33MOL    H8421908   2.800   2.217   3.102  1.0493 -0.6086  0.3543
   33MOL    H8521909   2.839   2.091   3.211  0.1134 -1.2770 -0.6730
   33MOL    H8621910   2.730   2.072   2.925 -0.6634  0.8660  1.7114
   33MOL    H8721911   2.761   1.930   3.026  0.9893 -1.1423  1.3955
   33MOL    H8821912   2.977   2.121   2.917  0.4998  0.2581  1.7729
   33MOL    H8921913   3.014   1.988   3.029 -0.5215 -0.9946 -0.0570
   33MOL    H9021914   2.894   1.979   2.740 -1.0097 -2.4212 -1.1274
   33MOL    H9121915   2.892   1.845   2.858  1.5775 -1.5651 -1.1965
   33MOL    H9221916   3.143   1.856   2.865  0.3645 -0.1456 -1.0569
   33MOL    H9321917   3.142   1.966   2.731  2.2511 -0.8628  0.8785
   33MOL    H9421918   2.993   1.697   2.714 -0.1483 -1.1123 -2.7934
   33MOL    H9521919   3.039   1.799   2.583  0.5921 -3.1004 -0.9628
   33MOL    H9621920   3.220   1.631   2.768 -0.3969  2.5594  1.4810
   33MOL    H9721921   3.288   1.715   2.643  0.3862 -1.0063 -0.5376
   33MOL    H9821922   3.080   1.509   2.557 -0.4882  0.5713 -1.9517
   33MOL    H9921923   3.171   1.621   2.460  1.4296  2.8080  1.3899
   33MOL   H10021924   3.256   1.396   2.474 -0.2690  1.4162 -1.6366
   33MOL   H10121925   3.291   1.415   2.645 -2.3236 -1.0654  0.0890
   33MOL   H10221926   3.471   1.602   2.564  0.2450  0.3018 -1.1456
   33MOL   H10321927   3.404   1.569   2.400  1.8675 -0.4037  0.1042
   33MOL   N10421928   3.624   1.435   2.393  0.0093 -0.2938  0.7927
   33MOL   C10521929   3.747   1.353   2.383 -0.0056  0.3172  0.3681
   33MOL   C10621930   3.802   1.364   2.237 -0.2167 -0.2467  0.3392
   33MOL   C10721931   3.931   1.283   2.215  0.6038 -0.3446  0.0275
   33MOL   C10821932   3.914   1.133   2.225 -0.1570  0.0429 -0.1056
   33MOL   C10921933   4.051   1.064   2.214  0.5584 -0.2686  0.2303
   33MOL   C11021934   4.055   0.923   2.284 -0.3116  0.0510 -0.1873
   33MOL   C11121935   4.188   0.851   2.262 -0.7511 -0.5025  0.0710
   33MOL   C11221936   4.175   0.704   2.303 -0.1037  0.4309 -0.0551
   33MOL   C11321937   4.289   0.616   2.257 -0.3027  0.1382  0.1085
   33MOL   C11421938   4.271   0.468   2.303  0.4803  0.7688 -1.1204
   33MOL   C11521939   4.374   0.378   2.243  0.0527 -0.5596  0.6337
   33MOL   O11621940   4.491   0.401   2.245 -0.3120  0.0321  0.2834
   33MOL   H11721941   3.634   1.525   2.349 -2.1236  0.1668  1.1838
   33MOL   H11821942   3.826   1.374   2.455  2.1714 -2.6586 -1.0512
   33MOL   H11921943   3.724   1.250   2.410 -0.1861  0.6159  1.4013
   33MOL   H12021944   3.814   1.467   2.203 -1.5943  0.7021  2.5681
   33MOL   H12121945   3.731   1.314   2.171 -1.4613  1.9815 -0.0560
   33MOL   H12221946   3.970   1.307   2.117  0.3325  0.5299  0.1303
   33MOL   H12321947   4.007   1.310   2.289 -1.2254  0.7228  1.5681
   33MOL   H12421948   3.855   1.098   2.140 -1.6527 -1.3366  1.4795
   33MOL   H12521949   3.869   1.094   2.316  0.6851 -0.9667 -0.1133
   33MOL   H12621950   4.134   1.128   2.243  2.0712 -1.5377 -1.1997
   33MOL   H12721951   4.069   1.050   2.108 -0.5309  1.9466 -0.2757
   33MOL   H12821952   4.047   0.929   2.393  0.2256 -1.1895 -0.0700
   33MOL   H12921953   3.965   0.869   2.254  0.0293 -1.3466  1.2356
   33MOL   H13021954   4.274   0.901   2.307  0.2608  0.0172 -2.2961
   33MOL   H13121955   4.198   0.844   2.153 -2.8793  1.5003 -0.3051
   33MOL   H13221956   4.171   0.689   2.411 -0.1286 -0.9428 -0.2366
   33MOL   H13321957   4.080   0.672   2.261  0.1056  0.5525 -0.6221
   33MOL   H13421958   4.383   0.653   2.296 -0.1144  1.8288 -1.8287
   33MOL   H13521959   4.298   0.621   2.148  0.0328  4.5658  0.2813
   33MOL   H13621960   4.171   0.442   2.268 -1.0078  4.3522  0.2002
   33MOL   H13721961   4.285   0.444   2.408  1.0086  2.1580 -0.8597
   33MOL   N13821962   4.334   0.275   2.170 -0.1259 -0.3311  0.5223
   33MOL   C13921963   4.408   0.207   2.071  0.3494 -0.1908  0.9537
   33MOL   C14021964   4.326   0.088   2.007 -0.0469  0.9710  0.1830
   33MOL   C14121965   4.208   0.129   1.918  0.4939  0.4981  0.0775
   33MOL   C14221966   4.258   0.163   1.778  0.1425  0.4220 -0.1103
   33MOL   C14321967   4.146   0.213   1.687  0.2568  0.1849  0.7571
   33MOL   C14421968   4.192   0.299   1.571 -0.0460  0.6934 -0.3464
   33MOL   C14521969   4.289   0.211   1.476  0.1715  0.1094  0.5912
   33MOL   C14621970   4.334   0.298   1.357 -0.2119  0.0328  0.4684
   33MOL   C14721971   4.424   0.223   1.269  0.2390 -0.5291 -0.9140
   33MOL   C14821972   4.453   0.309   1.141  0.5310  0.0266  0.6299
   33MOL   C14921973   4.334   0.323   1.047 -0.4093  0.2531  0.9249
   33MOL   O15021974   4.253   0.232   1.028 -0.1231 -0.3719 -0.0409
   33MOL   H15121975   4.236   0.248   2.176 -0.4252  0.0578 -2.0078
   33MOL   H15221976   4.436   0.279   1.994 -2.7706  1.2898  1.1333
   33MOL   H15321977   4.496   0.159   2.113  1.1589 -0.6287 -1.1629
   33MOL   H15421978   4.287   0.017   2.080  0.5692 -2.2015 -2.4575
   33MOL   H15521979   4.396   0.027   1.949  0.0907  1.5037 -0.2056
   33MOL   H15621980   4.137   0.047   1.910  1.0824 -0.2025  1.7872
   33MOL   H15721981   4.152   0.212   1.961  1.0135  1.0984 -0.3819
   33MOL   H15821982   4.289   0.067   1.736  0.0967  1.6978 -3.1738
   33MOL   H15921983   4.338   0.235   1.790  0.0182  0.7409 -1.1188
   33MOL   H16021984   4.075   0.276   1.740 -1.3798 -1.7612  0.9748
   33MOL   H16121985   4.088   0.129   1.648  0.1244  1.2041 -1.3389
   33MOL   H16221986   4.105   0.331   1.514  0.0446  1.1500 -0.2299
   33MOL   H16321987   4.251   0.388   1.590 -2.8297  2.7096 -0.8730
   33MOL   H16421988   4.227   0.126   1.446 -1.8378  2.4526 -2.2307
   33MOL   H16521989   4.377   0.171   1.525  1.3163  0.0909 -1.4375
   33MOL   H16621990   4.242   0.327   1.305 -0.4870 -1.1606  0.2631
   33MOL   H16721991   4.386   0.388   1.388 -1.0483  0.3742  0.9033
   33MOL   H16821992   4.383   0.127   1.239  0.2170 -0.2857 -1.6686
   33MOL   H16921993   4.519   0.198   1.317 -0.1444 -0.1205  0.0713
   33MOL   H17021994   4.526   0.252   1.083 -0.2688  0.2409 -0.6018
   33MOL   H17121995   4.503   0.403   1.165  1.0494 -0.2977  0.8403
   33MOL   N17221996   4.328   0.439   0.974  0.1623 -0.2409 -0.9087
   33MOL   C17321997   4.241   0.455   0.858  0.3656 -0.0827 -0.0947
   33MOL   C17421998   4.149   0.580   0.866 -0.0841 -0.4041  0.1910
   33MOL   C17521999   4.042   0.557   0.974  0.2266 -0.0169  0.1275
   33MOL   C17622000   3.947   0.685   0.984 -0.5470  0.2166 -0.1373
   33MOL   C17722001   3.831   0.669   1.086  0.0064  0.0654  0.4695
   33MOL   C17822002   3.874   0.621   1.231  0.7206  0.3922 -0.4594
   33MOL   C17922003   3.978   0.712   1.301 -0.2334 -0.6418 -0.4017
   33MOL   C18022004   4.002   0.664   1.452  0.4328 -0.3685  1.6005
   33MOL   C18122005   4.136   0.707   1.504 -0.5710  0.2932  0.2342
   33MOL   C18222006   4.148   0.857   1.530  0.0613  0.0521 -0.0847
   33MOL   C18322007   4.293   0.905   1.557 -0.1642 -0.2072  0.0583
   33MOL   O18422008   4.385   0.906   1.468  0.0995 -0.3078 -0.0512
   33MOL   H18522009   4.402   0.506   0.990 -2.0790  2.3031 -0.9143
   33MOL   H18622010   4.305   0.470   0.772 -0.6142  0.0049 -0.8228
   33MOL   H18722011   4.179   0.371   0.826 -0.3492  0.2874  0.2831
   33MOL   H18822012   4.085   0.581   0.778 -0.4648  1.0837  0.4652
   33MOL   H18922013   4.202   0.675   0.881 -0.8186 -0.2999  2.3736
   33MOL   H19022014   3.978   0.470   0.959  1.0318 -0.6790  0.4954
   33MOL   H19122015   4.085   0.552   1.074  1.9401 -1.5583 -0.6660
   33MOL   H19222016   3.901   0.704   0.887 -0.1756 -0.1411 -0.3806
   33MOL   H19322017   4.018   0.767   0.991 -1.9101  1.4691 -0.7030
   33MOL   H19422018   3.749   0.610   1.046 -0.1678 -1.0150  2.3748
   33MOL   H19522019   3.788   0.768   1.100 -0.2908  0.4416 -2.6377
   33MOL   H19622020   3.787   0.612   1.296 -0.3467 -2.0235 -2.1567
   33MOL   H19722021   3.907   0.517   1.222  1.1550  0.5644 -0.8648
   33MOL   H19822022   3.943   0.815   1.298 -0.8954 -0.8570 -0.0127
   33MOL   H19922023   4.065   0.695   1.237  0.6588  3.5967 -0.4550
   33MOL   H20022024   3.922   0.702   1.515  0.8294  1.1586  1.2112
   33MOL   H20122025   3.996   0.555   1.452  2.1549 -0.5100 -1.2384
   33MOL   H20222026   4.214   0.670   1.437 -0.7697  1.3741 -0.6012
   33MOL   H20322027   4.159   0.654   1.597 -0.8695  3.2103  2.0490
   33MOL   H20422028   4.077   0.899   1.601 -1.4824 -1.6803 -0.5776
   33MOL   H20522029   4.106   0.918   1.450 -1.0679  1.1058  1.2688
   33MOL   N20622030   4.308   0.954   1.680  0.0104  0.7724 -0.3430
   33MOL   C20722031   4.432   1.021   1.727 -0.2415  0.1693 -0.1111
   33MOL   C20822032   4.441   1.178   1.733  0.8380 -0.9000 -0.3733
   33MOL   C20922033   4.315   1.245   1.787  0.2349  0.0346 -0.3462
   33MOL   C21022034   4.324   1.390   1.824 -0.0365  0.5661  0.7991
   33MOL   C21122035   4.197   1.431   1.898  0.4930 -0.2237  0.0601
   33MOL   C21222036   4.190   1.572   1.948  0.5866 -0.6955  0.2394
   33MOL   C21322037   4.067   1.585   2.031 -0.0616 -0.0176  0.0641
   33MOL   C21422038   3.928   1.604   1.963 -0.0356  1.2124  0.1730
   33MOL   C21522039   3.912   1.735   1.883 -0.3097  0.2630 -0.0649
   33MOL   C21622040   3.777   1.723   1.815 -0.6557  0.3787 -0.4359
   33MOL   C21722041   3.730   1.861   1.780  0.1396  0.3409 -0.7086
   33MOL   O21822042   3.719   1.952   1.865 -0.1149  0.1970  0.4691
   33MOL   H21922043   4.235   0.949   1.749  0.2272  0.1420 -0.1618
   33MOL   H22022044   4.521   0.983   1.676 -0.7148 -1.6296  0.3634
   33MOL   H22122045   4.449   0.989   1.830 -0.4143  0.9828  0.1741
   33MOL   H22222046   4.467   1.215   1.634 -0.3462  0.6540 -0.1255
   33MOL   H22322047   4.523   1.208   1.798  0.7832 -0.2237 -0.6067
   33MOL   H22422048   4.228   1.228   1.725 -0.1668 -0.7649  0.4315
   33MOL   H22522049   4.281   1.189   1.874  1.7398  0.3200  0.4554
   33MOL   H22622050   4.348   1.453   1.739  1.0064 -0.9464 -0.0381
   33MOL   H22722051   4.416   1.404   1.881 -1.3496  1.0762  2.8510
   33MOL   H22822052   4.175   1.361   1.979  2.3082 -0.8820  0.0202
   33MOL   H22922053   4.124   1.409   1.820  0.9181 -1.6295  0.0349
   33MOL   H23022054   4.271   1.582   2.020  0.2712 -4.1515  1.1631
   33MOL   H23122055   4.209   1.654   1.878  1.3445 -1.3062 -0.2768
   33MOL   H23222056   4.081   1.675   2.091  0.9018 -0.0403 -0.1191
   33MOL   H23322057   4.062   1.499   2.098 -1.6440  0.2516  0.2932
   33MOL   H23422058   3.916   1.516   1.901 -1.6886  2.0116 -0.6620
   33MOL   H23522059   3.850   1.591   2.038  1.8636  2.4634  2.4565
   33MOL   H23622060   3.988   1.731   1.804 -1.0402 -2.6583 -0.6960
   33MOL   H23722061   3.926   1.821   1.948  0.7084  0.5179 -0.6025
   33MOL   H23822062   3.713   1.668   1.884 -0.4476  0.5797 -0.0826
   33MOL   H23922063   3.771   1.649   1.735  2.5722  1.0689 -1.3595
   33MOL   N24022064   3.701   1.871   1.657  0.5373  0.0789  0.2226
   33MOL   C24122065   3.676   1.999   1.588 -0.0817  0.6042  0.4676
   33MOL   C24222066   3.526   2.033   1.566 -0.8507  0.2697  0.3740
   33MOL   C24322067   3.433   1.922   1.510 -0.2999 -0.0535  0.3789
   33MOL   C24422068   3.280   1.960   1.521 -0.4314  0.4869 -0.3436
   33MOL   C24522069   3.237   2.003   1.666 -0.0708 -0.3948 -0.3120
   33MOL   C24622070   3.082   1.987   1.678 -0.4729  0.3626 -0.8155
   33MOL   C24722071   3.029   2.026   1.819 -0.2284  0.3016  0.5271
   33MOL   C24822072   2.876   2.027   1.839 -0.2321 -0.6571 -0.0677
   33MOL   C24922073   2.804   2.130   1.749 -0.4323  0.2852  0.0151
   33MOL   C25022074   2.661   2.149   1.782  0.4575 -0.1035 -0.3860
   33MOL   C25122075   2.633   2.229   1.909 -0.5193  0.2524 -0.2080
   33MOL   O25222076   2.692   2.337   1.925  0.2470  0.1029  0.3052
   33MOL   H25322077   3.709   1.786   1.603  2.2044 -0.3148  1.0457
   33MOL   H25422078   3.732   2.003   1.495  1.3574  2.0462  1.3614
   33MOL   H25522079   3.719   2.080   1.646  2.8493  0.5271 -1.4790
   33MOL   H25622080   3.517   2.120   1.501  0.4195  0.5417  0.5440
   33MOL   H25722081   3.499   2.067   1.666  3.5709  0.8330  1.4905
   33MOL   H25822082   3.457   1.899   1.406  1.2784 -0.9107  0.9239
   33MOL   H25922083   3.438   1.828   1.564  0.4058 -0.4002 -0.2792
   33MOL   H26022084   3.218   1.875   1.493 -0.8861  0.0435  1.8878
   33MOL   H26122085   3.250   2.038   1.451  1.7652 -1.2165 -3.2479
   33MOL   H26222086   3.280   2.100   1.690 -1.5249  0.3508 -0.6363
   33MOL   H26322087   3.280   1.939   1.743  0.5215 -0.4105 -0.6578
   33MOL   H26422088   3.040   2.046   1.596 -0.5754  0.2649 -0.8324
   33MOL   H26522089   3.062   1.880   1.671 -0.7130  0.2344  1.5995
   33MOL   H26622090   3.060   2.128   1.840 -1.8413  0.2649  3.2025
   33MOL   H26722091   3.074   1.958   1.892  1.2097 -2.2070 -2.5335
   33MOL   H26822092   2.835   1.927   1.845  0.1480 -0.8323 -0.3390
   33MOL   H26922093   2.868   2.064   1.941 -0.6571 -0.2590 -0.2439
   33MOL   H27022094   2.801   2.091   1.647 -0.7960  1.6605 -0.5154
   33MOL   H27122095   2.871   2.214   1.767  1.8609 -1.8069  1.5224
   33MOL   H27222096   2.621   2.047   1.789 -0.0909  0.2108  1.3126
   33MOL   H27322097   2.605   2.200   1.704 -1.0868 -2.4725 -0.8905
   33MOL   N27422098   2.543   2.177   1.995  0.1274 -0.2064 -0.2728
   33MOL   C27522099   2.507   2.230   2.124  0.7316  0.4594  0.2897
   33MOL   C27622100   2.561   2.134   2.231 -0.2087 -0.3871 -0.2774
   33MOL   C27722101   2.717   2.118   2.234  0.2341 -0.0567  0.0284
   33MOL   C27822102   2.762   2.032   2.353 -0.5548  0.7068  0.9146
   33MOL   C27922103   2.913   2.064   2.379 -0.2226 -1.1222 -0.6555
   33MOL   C28022104   3.002   1.993   2.267  0.5006  0.1992 -0.5349
   33MOL   C28122105   3.157   1.992   2.308  0.2494  0.2130 -0.5838
   33MOL   C28222106   3.241   1.888   2.232  0.0980 -0.2562 -0.0223
   33MOL   C28322107   3.386   1.880   2.285  0.3997  0.0085  0.4207
   33MOL   C28422108   3.488   1.814   2.192 -0.7569 -0.1930 -0.6359
   33MOL   C28522109   3.627   1.799   2.254 -0.7442 -0.7926 -0.1513
   33MOL   O28622110   3.644   1.696   2.324  0.0371  0.2830  0.2941
   33MOL   H28722111   2.485   2.104   1.956  1.8804 -1.0586 -1.3608
   33MOL   H28822112   2.398   2.227   2.131  0.6865  2.6756  0.7368
   33MOL   H28922113   2.530   2.335   2.143  0.9906  0.1536  1.6924
   33MOL   H29022114   2.528   2.033   2.205  0.2623 -0.4377 -0.6799
   33MOL   H29122115   2.527   2.162   2.331  0.4419  2.6955 -0.8739
   33MOL   H29222116   2.745   2.072   2.139 -1.1035 -0.4887 -0.1596
   33MOL   H29322117   2.766   2.215   2.230 -3.6258  1.9976  0.7207
   33MOL   H29422118   2.736   1.930   2.324 -2.4465  1.7121 -1.1211
   33MOL   H29522119   2.704   2.053   2.442 -2.2150  0.8526 -0.1809
   33MOL   H29622120   2.942   2.017   2.474 -0.9130 -0.6649 -0.2110
   33MOL   H29722121   2.927   2.172   2.386 -1.4364 -0.9424 -0.8035
   33MOL   H29822122   2.972   1.888   2.267 -0.4604  0.4627 -1.5016
   33MOL   H29922123   2.978   2.038   2.171  1.8848 -1.2332 -1.5657
   33MOL   H30022124   3.162   1.965   2.413  1.1835  1.1369 -0.3822
   33MOL   H30122125   3.197   2.092   2.289 -0.5253  0.3712 -1.4350
   33MOL   H30222126   3.203   1.786   2.228  0.2189 -0.2549 -1.6064
   33MOL   H30322127   3.240   1.913   2.126 -0.5550 -0.0398  0.0344
   33MOL   H30422128   3.380   1.831   2.383  0.8202 -2.1211 -0.5894
   33MOL   H30522129   3.428   1.979   2.304 -1.5616  1.1480 -1.0029
   33MOL   H30622130   3.521   1.881   2.113 -0.5614 -0.1722 -0.5374
   33MOL   H30722131   3.453   1.719   2.151 -2.4434 -1.5521  3.6360
   33MOL   N30822132   3.720   1.895   2.233  0.0959 -0.8678 -0.3961
   33MOL   C30922133   3.848   1.896   2.302 -0.3276 -0.5226 -0.2217
   33MOL   C31022134   3.924   2.017   2.245  0.3698  0.6021 -0.0957
   33MOL   C31122135   4.064   2.031   2.309  0.2213  0.2661 -0.3256
   33MOL   C31222136   4.132   2.165   2.262 -0.6334 -0.4648 -0.2290
   33MOL   C31322137   4.258   2.203   2.343  0.4863  0.1216 -0.4462
   33MOL   C31422138   4.332   2.324   2.285 -0.2318 -0.1902 -0.3197
   33MOL   C31522139   4.258   2.459   2.297 -0.1390  0.1731 -0.0130
   33MOL   C31622140   4.203   2.500   2.157 -0.5925  0.1877  0.0017
   33MOL   C31722141   4.102   2.619   2.169  0.2676 -0.0312 -1.1612
   33MOL   C31822142   3.953   2.592   2.208  0.0145  0.9062  0.6424
   33MOL   C31922143   3.865   2.528   2.094 -0.2428 -0.3000  0.1181
   33MOL   O32022144   3.898   2.540   1.977 -0.2949 -0.1178 -0.1098
   33MOL   H32122145   3.698   1.973   2.173  0.4718 -1.2056 -0.9808
   33MOL   H32222146   3.903   1.804   2.283 -2.3018 -1.8672  0.3586
   33MOL   H32322147   3.818   1.900   2.406  1.7668  0.6245  0.3629
   33MOL   H32422148   3.862   2.106   2.259 -0.1851  0.0192  1.2634
   33MOL   H32522149   3.937   2.020   2.137  0.8926  0.1082 -0.0507
   33MOL   H32622150   4.061   2.030   2.418 -1.0677 -1.1669 -0.3639
   33MOL   H32722151   4.135   1.951   2.290 -0.2801  0.0410 -1.2810
   33MOL   H32822152   4.057   2.241   2.284 -0.8586 -1.0037  0.9214
   33MOL   H32922153   4.157   2.161   2.156 -3.3477  2.1754 -1.0178
   33MOL   H33022154   4.325   2.117   2.336  0.9927  0.3872  0.9870
   33MOL   H33122155   4.238   2.213   2.449 -1.5692 -1.3546 -0.6713
   33MOL   H33222156   4.431   2.335   2.330 -0.6741 -0.5130  0.7455
   33MOL   H33322157   4.371   2.315   2.184 -2.1373 -1.0136 -1.0012
   33MOL   H33422158   4.328   2.538   2.323  1.6719 -1.3410 -0.1486
   33MOL   H33522159   4.173   2.477   2.363 -0.5989 -1.3641 -0.1549
   33MOL   H33622160   4.283   2.531   2.090 -3.0766  2.1061 -2.1828
   33MOL   H33722161   4.143   2.418   2.119 -0.7618  0.8780 -1.2407
   33MOL   H33822162   4.105   2.668   2.071 -0.5136  0.3225 -1.0175
   33MOL   H33922163   4.144   2.687   2.244 -0.2007 -2.2376  1.1727
   33MOL   H34022164   3.912   2.686   2.244  1.1139  0.5974  2.7518
   33MOL   H34122165   3.954   2.532   2.299  1.0040  0.6011  0.4416
   33MOL   N34222166   3.753   2.472   2.134 -0.0158 -0.6081  1.0448
   33MOL   C34322167   3.661   2.403   2.036  0.1835 -0.0347 -0.1949
   33MOL   C34422168   3.589   2.300   2.116 -0.3938  0.1483  0.1324
   33MOL   C34522169   3.485   2.240   2.033 -0.2865 -0.4274 -0.0437
   33MOL   C34622170   3.360   2.320   1.999 -0.0642 -0.2548  0.0820
   33MOL   C34722171   3.262   2.377   2.108  0.2917  0.7349 -0.0449
   33MOL   C34822172   3.290   2.505   2.183 -0.5708 -0.1884  0.0951
   33MOL   C34922173   3.172   2.550   2.268 -0.6233 -0.5610  1.1108
   33MOL   C35022174   3.181   2.700   2.318 -0.0714  0.7347 -0.2421
   33MOL   C35122175   3.302   2.720   2.408  0.1015  0.2817  0.1774
   33MOL   C35222176   3.292   2.848   2.500 -0.7149 -0.3551  0.6335
   33MOL   C35322177   3.193   2.840   2.616 -0.3504 -0.2149  0.1903
   33MOL   O35422178   3.103   2.758   2.626 -0.2045  0.5532  0.2345
   33MOL   H35522179   3.732   2.464   2.232 -0.6746  1.3647  1.0748
   33MOL   H35622180   3.590   2.476   1.999 -1.2781 -0.8031  1.0161
   33MOL   H35722181   3.718   2.362   1.953 -1.3481 -0.8404 -0.8699
   33MOL   H35822182   3.543   2.361   2.194  0.7969  1.7005 -0.3497
   33MOL   H35922183   3.658   2.227   2.156 -1.2888 -0.6845  0.1845
   33MOL   H36022184   3.524   2.198   1.940  0.1248  1.4839 -0.7651
   33MOL   H36122185   3.447   2.154   2.088 -0.2604 -1.7556 -2.0502
   33MOL   H36222186   3.302   2.255   1.934 -1.3947 -0.4772  1.4609
   33MOL   H36322187   3.384   2.391   1.920 -1.4216 -1.0749 -1.0881
   33MOL   H36422188   3.241   2.297   2.179 -1.7525 -0.6990 -2.1615
   33MOL   H36522189   3.172   2.398   2.050 -0.1752  1.4622  0.9253
   33MOL   H36622190   3.378   2.484   2.244 -0.7420 -1.7842 -0.1634
   33MOL   H36722191   3.326   2.584   2.117  0.2177  1.5814  2.5803
   33MOL   H36822192   3.164   2.481   2.352  2.2545 -2.2711  0.0347
   33MOL   H36922193   3.084   2.531   2.207  0.7813 -3.1108 -0.1872
   33MOL   H37022194   3.184   2.777   2.241 -3.9645  0.6511 -0.5879
   33MOL   H37122195   3.092   2.728   2.374 -0.2633 -0.8726  0.2851
   33MOL   H37222196   3.397   2.732   2.356  0.4123 -0.0644  0.6564
   33MOL   H37322197   3.339   2.628   2.455  1.0047  0.5437 -0.0177
   33MOL   H37422198   3.267   2.936   2.440  1.8704  0.9122  1.3806
   33MOL   H37522199   3.390   2.879   2.536 -0.6808  2.6419 -1.8012
   33MOL   N37622200   3.199   2.935   2.711 -0.8140 -0.1177  0.5375
   33MOL   C37722201   3.317   3.023   2.738  0.5954  0.0323  0.2895
   33MOL   C37822202   3.273   3.123   2.839 -0.9107  0.4901  0.0043
   33MOL   C37922203   3.179   3.229   2.776  0.3374  0.2494 -0.3090
   33MOL   C38022204   3.128   3.338   2.867 -0.4968 -0.2352 -0.2044
   33MOL   C38122205   3.231   3.445   2.904  0.8436 -0.3576 -0.6501
   33MOL   C38222206   3.178   3.571   2.967 -0.6355 -0.0136  0.0422
   33MOL   C38322207   3.076   3.565   3.084 -0.3812  0.1630  0.5869
   33MOL   C38422208   3.137   3.517   3.220  0.0858  0.2988  0.9002
   33MOL   C38522209   3.039   3.442   3.302 -0.3588  0.4098  0.0206
   33MOL   C38622210   3.093   3.430   3.444  0.2113  0.2564  0.5068
   33MOL   C38722211   3.023   3.309   3.512 -0.6991 -0.4943  0.4344
   33MOL   O38822212   2.901   3.293   3.500 -0.3545  0.6397  0.8998
   33MOL   H38922213   3.124   2.920   2.777 -0.4241 -0.4087  0.9128
   33MOL   H39022214   3.395   2.965   2.785  1.4952 -1.7222 -3.2056
   33MOL   H39122215   3.350   3.068   2.644 -0.2914 -1.1988 -0.6339
   33MOL   H39222216   3.362   3.168   2.884 -0.9308 -0.0451  0.5783
   33MOL   H39322217   3.237   3.075   2.929  0.6457  0.4268  0.6131
   33MOL   H39422218   3.228   3.284   2.695 -1.4255  0.4298 -1.2728
   33MOL   H39522219   3.089   3.180   2.740 -0.1320  1.9633 -1.5430
   33MOL   H39622220   3.077   3.303   2.957 -1.1208 -3.3459 -1.7069
   33MOL   H39722221   3.039   3.375   2.817 -0.3384  0.9155  0.3561
   33MOL   H39822222   3.281   3.469   2.810  3.5277 -1.4685  0.4131
   33MOL   H39922223   3.314   3.404   2.963 -0.2103  0.8035  1.7395
   33MOL   H40022224   3.265   3.629   2.998 -1.0731  1.0209 -0.6565
   33MOL   H40122225   3.118   3.627   2.896 -0.0731  0.1773 -0.2858
   33MOL   H40222226   3.007   3.485   3.055  0.1260  0.7276 -2.3586
   33MOL   H40322227   3.017   3.656   3.094 -0.9977 -0.5357  4.1674
   33MOL   H40422228   3.219   3.451   3.190  1.0518  1.9955 -0.3331
   33MOL   H40522229   3.177   3.596   3.284 -1.3115  0.9241  1.0105
   33MOL   H40622230   3.023   3.349   3.246  0.9347  0.6810 -0.8171
   33MOL   H40722231   2.938   3.482   3.310 -0.8939 -1.1371  1.3633
   33MOL   H40822232   3.089   3.527   3.492  1.2015  1.3581 -1.5775
   33MOL   H40922233   3.196   3.397   3.437  0.3443  0.9362 -0.9505
   33MOL   N41022234   3.100   3.230   3.588  0.2581 -1.0750 -0.4250
   33MOL   C41122235   3.037   3.130   3.671  0.1917  0.2639  0.0332
   33MOL   C41222236   3.051   3.002   3.598 -0.1890 -0.2295  0.5773
   33MOL   C41322237   2.980   2.888   3.671  0.1078  0.0891 -0.2776
   33MOL   C41422238   2.930   2.784   3.571  0.0644  0.5127  0.3855
   33MOL   C41522239   3.033   2.696   3.499 -0.2543 -0.5996 -0.1544
   33MOL   C41622240   2.954   2.579   3.436  0.2074  0.0099 -0.0213
   33MOL   C41722241   3.055   2.486   3.371 -0.3486 -0.4479  0.9972
   33MOL   C41822242   2.989   2.375   3.283  0.1514 -0.3023  0.3096
   33MOL   C41922243   3.089   2.294   3.206  0.2669  0.1144 -0.1872
   33MOL   C42022244   3.191   2.224   3.299  0.0414 -0.0881 -0.0301
   33MOL   C42122245   3.258   2.102   3.230 -0.2689  0.4040 -0.2271
   33MOL   O42222246   3.307   2.115   3.121  0.3479  0.1484 -0.3589
   33MOL   H42322247   3.196   3.257   3.604 -0.2642  0.0456  0.9027
   33MOL   H42422248   3.087   3.130   3.767  1.2302 -2.9294 -0.4584
   33MOL   H42522249   2.934   3.148   3.702  0.9210 -1.2409  3.5323
   33MOL   H42622250   3.152   2.974   3.565 -1.0060 -0.5589 -1.7618
   33MOL   H42722251   2.995   3.020   3.506  0.8492  4.0236  0.6732
   33MOL   H42822252   3.034   2.851   3.759 -1.0032  0.5295  0.6118
   33MOL   H42922253   2.884   2.912   3.717  0.7589 -0.2652  1.3344
   33MOL   H43022254   2.861   2.841   3.508 -0.1787 -0.1044  0.0928
   33MOL   H43122255   2.878   2.715   3.636 -0.9984 -0.0152 -1.0075
   33MOL   H43222256   3.115   2.668   3.565  0.0556  0.5984 -0.0262
   33MOL   H43322257   3.079   2.753   3.418  0.9741 -0.7118  0.4544
   33MOL   H43422258   2.897   2.518   3.507  0.3521 -2.9013 -2.3077
   33MOL   H43522259   2.883   2.615   3.363  0.4114  1.2898  0.3969
   33MOL   H43622260   3.119   2.437   3.445  2.2356 -1.9122 -2.0559
   33MOL   H43722261   3.116   2.547   3.304  0.4508 -2.3403 -0.0576
   33MOL   H43822262   2.927   2.313   3.349 -1.1824  0.1937 -0.4623
   33MOL   H43922263   2.915   2.420   3.217 -0.7212  2.0583  2.7702
   33MOL   H44022264   3.144   2.351   3.131  1.8407 -0.9030  0.1582
   33MOL   H44122265   3.038   2.213   3.152  0.6490  0.9243 -1.8127
   33MOL   H44222266   3.143   2.190   3.391  0.0957  1.0048  0.4161
   33MOL   H44322267   3.264   2.298   3.331 -0.7619  1.0137 -0.6954
   33MOL   N44422268   3.279   1.994   3.309 -0.4482  0.5181  0.0930
   33MOL   C44522269   3.332   1.869   3.262  0.6493  0.1446 -0.1799
   33MOL   C44622270   3.216   1.773   3.226 -0.2170 -0.0880 -0.0472
   33MOL   C44722271   3.248   1.630   3.240  0.2412 -0.1345 -0.0993
   33MOL   C44822272   3.298   1.568   3.110 -1.0528  0.3876  0.3650
   33MOL   C44922273   3.316   1.416   3.125  0.1425  0.3536 -0.7208
   33MOL   C45022274   3.376   1.348   3.000 -0.0582  0.2197 -0.2348
   33MOL   C45122275   3.402   1.197   3.008  0.6601  0.3084  1.0022
   33MOL   C45222276   3.514   1.152   3.098  0.1899 -0.1568  0.0778
   33MOL   C45322277   3.517   1.001   3.126 -0.6929 -0.2547  0.5047
   33MOL   C45422278   3.639   0.954   3.203  0.6395  0.1144  0.4715
   33MOL   C45522279   3.772   0.940   3.121 -0.9117 -0.8608  0.3231
   33MOL   O45622280   3.763   0.933   2.996  0.5564  0.3295 -0.3569
   33MOL   H45722281   3.260   1.992   3.408  0.6958  1.4637  0.3302
   33MOL   H45822282   3.410   1.875   3.185  1.2045 -2.0616  0.1609
   33MOL   H45922283   3.389   1.832   3.347  2.9770  0.8887 -1.3527
   33MOL   H46022284   3.192   1.802   3.124 -1.6273  0.2626  0.3794
   33MOL   H46122285   3.121   1.795   3.273 -0.5852  0.3696 -1.0027
   33MOL   H46222286   3.324   1.612   3.316 -0.2682  0.5006  0.5726
   33MOL   H46322287   3.153   1.584   3.266 -0.1797  0.9861  0.4194
   33MOL   H46422288   3.388   1.621   3.080 -0.9580 -0.1142 -0.2483
   33MOL   H46522289   3.232   1.581   3.025 -1.9658  0.8021  1.1337
   33MOL   H46622290   3.224   1.363   3.149  0.5543  0.1673  0.4813
   33MOL   H46722291   3.383   1.395   3.209 -2.0798 -0.3878  0.9306
   33MOL   H46822292   3.313   1.365   2.913 -1.3610 -0.0722  0.6428
   33MOL   H46922293   3.463   1.407   2.968 -0.6493  2.4222  1.9976
   33MOL   H47022294   3.428   1.170   2.906 -0.8564 -1.2471  1.0075
   33MOL   H47122295   3.315   1.137   3.034  1.1900 -1.2716 -0.8286
   33MOL   H47222296   3.607   1.196   3.062 -0.0200  2.7437  2.8236
   33MOL   H47322297   3.507   1.197   3.197 -0.2425 -0.9713  0.4223
   33MOL   H47422298   3.512   0.958   3.026 -0.8109 -0.7195  0.7090
   33MOL   H47522299   3.431   0.973   3.187  0.0068 -2.5212  0.4830
   33MOL   H47622300   3.619   0.861   3.257 -1.3476 -1.4212 -2.7376
   33MOL   H47722301   3.659   1.029   3.280 -0.4818 -0.0805  0.9535
   33MOL   N47822302   3.883   0.959   3.190  0.1628  0.7764 -0.0668
   33MOL   C47922303   4.013   0.966   3.122  0.7624 -0.0095 -0.4639
   33MOL   C48022304   4.062   0.827   3.090  0.3145 -0.2111  0.2278
   33MOL   C48122305   4.195   0.815   3.021 -0.5093  0.6939  0.2993
   33MOL   C48222306   4.200   0.838   2.871 -0.7688  0.0842  0.3025
   33MOL   C48322307   4.305   0.753   2.795  0.3274  0.6929  0.1341
   33MOL   C48422308   4.449   0.789   2.833 -0.4359  0.4120  0.0182
   33MOL   C48522309   4.505   0.919   2.761  0.5543 -0.3001  0.2393
   33MOL   C48622310   4.539   0.916   2.614 -0.1586 -0.1637  0.5498
   33MOL   C48722311   4.632   1.033   2.584 -0.6444 -0.2061  0.3715
   33MOL   C48822312   4.742   1.005   2.476  0.5580  0.2757  0.0003
   33MOL   C48922313   4.852   1.103   2.467 -0.3768 -1.2291  0.0965
   33MOL   O49022314   4.831   1.225   2.479  1.2527 -0.5118  0.0241
   33MOL   H49122315   3.886   0.977   3.289  1.9006  0.7156 -0.0863
   33MOL   H49222316   4.024   1.038   3.041  0.6628 -1.4720 -1.8022
   33MOL   H49322317   4.079   1.004   3.200 -1.4017  0.0045  1.4331
   33MOL   H49422318   3.989   0.786   3.021  2.9541 -1.7976 -1.7099
   33MOL   H49522319   4.065   0.760   3.176 -1.9857 -0.3480  0.2207
   33MOL   H49622320   4.263   0.889   3.063  0.7058 -1.0594  1.5470
   33MOL   H49722321   4.241   0.716   3.032 -1.2466  0.0761 -1.8429
   33MOL   H49822322   4.207   0.944   2.847  1.2398 -0.4114 -1.4152
   33MOL   H49922323   4.106   0.802   2.829  0.0165 -0.3896 -1.0640
   33MOL   H50022324   4.284   0.757   2.688  0.3088  1.9198  0.1823
   33MOL   H50122325   4.297   0.645   2.813  0.8993  0.6917  0.3633
   33MOL   H50222326   4.443   0.793   2.942  2.0735 -1.3385  0.2533
   33MOL   H50322327   4.512   0.701   2.823 -1.4389 -0.2576 -0.4960
   33MOL   H50422328   4.595   0.946   2.815 -0.5591 -0.7751  2.3678
   33MOL   H50522329   4.444   1.007   2.780  0.2747 -0.5672  0.5891
   33MOL   H50622330   4.581   0.818   2.589  0.6826  0.8670 -2.2832
   33MOL   H50722331   4.447   0.920   2.556 -1.2720  0.0335  2.3116
   33MOL   H50822332   4.695   1.050   2.671  1.8743  0.0126 -1.4512
   33MOL   H50922333   4.584   1.127   2.558  1.1685  1.5803  3.2370
   33MOL   H51022334   4.698   1.008   2.377 -1.4959 -0.6554  0.8614
   33MOL   H51122335   4.792   0.909   2.488  1.9525  0.9545 -0.2370
   33MOL   N51222336   4.974   1.056   2.453 -0.0637  0.5881 -0.3492
   33MOL   C51322337   5.097   1.133   2.425 -0.3572 -0.4950 -0.9422
   33MOL   C51422338   5.109   1.142   2.276  1.1347  0.4231  1.1235
   33MOL   C51522339   5.217   1.234   2.238 -0.1128  0.1550  0.2232
   33MOL   C51622340   5.235   1.247   2.081 -0.1019 -0.5891  0.0277
   33MOL   C51722341   5.320   1.363   2.037 -0.7359 -0.5545  0.2754
   33MOL   C51822342   5.341   1.372   1.890 -0.3832  0.5191  0.8954
   33MOL   C51922343   5.435   1.491   1.853  0.1698  1.3762 -0.4381
   33MOL   C52022344   5.365   1.628   1.871  0.1233  0.0043 -0.4106
   33MOL   C52122345   5.458   1.754   1.854 -0.2613  0.6447 -1.1028
   33MOL   C52222346   5.393   1.898   1.872 -0.1019  0.2956  0.9659
   33MOL   C52322347   5.377   1.939   2.016  0.0047  0.5544 -0.0205
   33MOL   O52422348   5.481   1.933   2.083  0.1374 -0.4082 -0.0033
   33MOL   H52522349   4.999   0.958   2.447  1.1493  0.9853 -2.0832
   33MOL   H52622350   5.097   1.225   2.484  1.6770 -0.3092 -1.1870
   33MOL   H52722351   5.192   1.089   2.456  1.4254  1.0480 -4.0037
   33MOL   H52822352   5.011   1.180   2.246  0.1485 -1.5036  1.8686
   33MOL   H52922353   5.122   1.041   2.238  2.4151  0.5780  1.1197
   33MOL   H53022354   5.197   1.333   2.279 -0.0614  0.5108 -0.5983
   33MOL   H53122355   5.312   1.215   2.288 -0.5572 -0.3389  0.8909
   33MOL   H53222356   5.135   1.253   2.040 -0.5412 -0.6931  1.0769
   33MOL   H53322357   5.269   1.156   2.031  0.6640  0.7153 -1.8497
   33MOL   H53422358   5.419   1.350   2.081  0.1605  0.7728 -1.2975
   33MOL   H53522359   5.276   1.455   2.074  0.0012  0.1292 -0.5252
   33MOL   H53622360   5.391   1.283   1.853 -2.6043  1.3837 -4.4912
   33MOL   H53722361   5.243   1.374   1.844  0.4344 -0.6367 -0.9166
   33MOL   H53822362   5.471   1.493   1.750 -0.2083  2.0401 -0.5660
   33MOL   H53922363   5.526   1.492   1.912 -0.9602  1.0616  1.3455
   33MOL   H54022364   5.291   1.636   1.792  1.2764  1.4637 -1.3809
   33MOL   H54122365   5.311   1.643   1.964  1.3221  0.6407  0.1882
   33MOL   H54222366   5.511   1.757   1.759  3.4701 -0.1376  0.8383
   33MOL   H54322367   5.539   1.750   1.926  0.0752 -0.3996 -1.5238
   33MOL   H54422368   5.301   1.895   1.814  0.5744 -1.4538 -0.0302
   33MOL   H54522369   5.440   1.974   1.809  0.7535 -2.0149 -1.2339
   33MOL   N54622370   5.255   1.964   2.063 -0.8050  0.3818  0.0355
   33MOL   C54722371   5.208   1.991   2.202  0.0587 -0.1215  0.0662
   33MOL   C54822372   5.112   1.884   2.251  0.3230 -0.2335 -0.0434
   33MOL   C54922373   5.164   1.739   2.260  0.6252 -0.3690  0.0360
   33MOL   C55022374   5.052   1.645   2.307 -0.7799 -0.3446 -0.0137
   33MOL   C55122375   4.946   1.625   2.192 -1.1245 -0.6318  0.0013
   33MOL   C55222376   4.854   1.516   2.249 -0.6788 -0.2372 -0.5153
   33MOL   C55322377   4.736   1.472   2.164  0.0875  0.5329 -0.2531
   33MOL   C55422378   4.654   1.352   2.218 -0.0263 -0.2591  0.4748
   33MOL   C55522379   4.522   1.349   2.138  0.7055  1.2480  0.3436
   33MOL   C55622380   4.425   1.251   2.213 -0.1274  0.1742  0.4370
   33MOL   C55722381   4.351   1.312   2.336  0.3519 -0.1688 -0.4497
   33MOL   O55822382   4.288   1.425   2.341 -0.4393  0.2629 -0.4496
   33MOL   H55922383   5.186   1.954   1.989 -1.3997 -2.5803  0.9028
   33MOL   H56022384   5.298   1.997   2.263  0.6505 -0.3067 -0.7847
   33MOL   H56122385   5.161   2.090   2.206 -1.6234 -0.9123  0.2726
   33MOL   H56222386   5.026   1.901   2.186  1.3159  3.0271 -0.6010
   33MOL   H56322387   5.077   1.916   2.349 -2.4008 -0.0028 -1.0649
   33MOL   H56422388   5.201   1.705   2.163 -2.5985 -0.7092 -1.1642
   33MOL   H56522389   5.249   1.738   2.328  0.0884  1.1617  0.7432
   33MOL   H56622390   5.006   1.690   2.395  0.1879 -2.4169  1.5765
   33MOL   H56722391   5.103   1.553   2.335  0.3737 -0.0491 -1.1314
   33MOL   H56822392   5.006   1.584   2.111  1.3046  0.2868  1.2763
   33MOL   H56922393   4.897   1.715   2.155  2.1794  1.5807  0.8075
   33MOL   H57022394   4.921   1.432   2.267  0.7860  1.0163 -0.0227
   33MOL   H57122395   4.815   1.547   2.346 -0.3431 -0.8003 -0.1966
   33MOL   H57222396   4.765   1.455   2.060  0.4655  0.0046 -0.0672
   33MOL   H57322397   4.676   1.562   2.160  1.3701  1.3865 -0.7848
   33MOL   H57422398   4.721   1.268   2.196  1.1104  1.3632 -2.6043
   33MOL   H57522399   4.638   1.347   2.325 -0.3168 -1.6617  0.3780
   33MOL   H57622400   4.538   1.319   2.035 -0.0451  0.5852  0.4165
   33MOL   H57722401   4.466   1.442   2.122  1.7078  1.6567 -0.8851
   33MOL   H57822402   4.453   1.148   2.236  3.0373  1.1831  1.2844
   33MOL   H57922403   4.351   1.236   2.134 -0.5892 -1.8963  1.2074
   33MOL   N58022404   4.364   1.231   2.441 -0.1561 -0.1457 -0.0875
   33MOL   C58122405   4.299   1.244   2.569  0.5093  0.7820  0.1160
   33MOL   C58222406   4.151   1.191   2.561 -0.1652  0.4634 -0.0084
   33MOL   C58322407   4.071   1.241   2.683  0.3324 -0.0140 -0.3258
   33MOL   C58422408   3.929   1.197   2.702 -0.4792 -0.0847  0.0874
   33MOL   C58522409   3.840   1.288   2.775 -1.0119  0.0550  0.0069
   33MOL   C58622410   3.875   1.301   2.923 -0.4163  0.4355  0.2069
   33MOL   C58722411   3.794   1.402   3.005 -0.0547  0.0794 -0.0428
   33MOL   C58822412   3.789   1.388   3.158 -0.5112  0.0749  0.3916
   33MOL   C58922413   3.686   1.485   3.216  0.1431 -0.8837  0.0278
   33MOL   C59022414   3.652   1.466   3.368 -0.6009  0.5055 -0.1207
   33MOL   C59122415   3.764   1.504   3.465  0.2957 -0.1574  0.5493
   33MOL   O59222416   3.885   1.484   3.439 -0.0857 -0.1078 -0.1359
   33MOL   H59322417   4.419   1.147   2.426 -1.3476 -1.1856  1.2486
   33MOL   H59422418   4.358   1.194   2.646  0.2491 -0.9334 -0.7737
   33MOL   H59522419   4.312   1.350   2.592  1.5500  0.4720  0.9957
   33MOL   H59622420   4.150   1.082   2.563  0.1516  0.4498 -0.3850
   33MOL   H59722421   4.103   1.224   2.468 -1.5727  0.5026  0.7305
   33MOL   H59822422   4.124   1.217   2.775  0.6315 -0.0200 -0.4999
   33MOL   H59922423   4.067   1.350   2.678 -0.6316  0.0326  1.1126
   33MOL   H60022424   3.920   1.092   2.731  1.4381 -0.9172 -2.1270
   33MOL   H60122425   3.888   1.199   2.601 -0.5180  3.6531  0.1143
   33MOL   H60222426   3.737   1.252   2.779 -1.9677  2.9276  4.3305
   33MOL   H60322427   3.827   1.385   2.728 -0.2915  0.1531  0.0111
   33MOL   H60422428   3.861   1.200   2.961 -1.0508  0.3231 -0.3277
   33MOL   H60522429   3.979   1.334   2.928 -0.2513  0.1439 -1.2200
   33MOL   H60622430   3.694   1.411   2.960  0.3442  0.3077 -0.9024
   33MOL   H60722431   3.835   1.500   2.981  0.5512  0.1365  1.2146
   33MOL   H60822432   3.757   1.288   3.188 -0.2002 -0.2440 -0.3413
   33MOL   H60922433   3.888   1.405   3.200  0.0499 -0.6262 -0.6207
   33MOL   H61022434   3.599   1.474   3.152  0.5469  0.4552 -0.7675
   33MOL   H61122435   3.719   1.588   3.205 -0.3786 -0.8486 -1.3043
   33MOL   H61222436   3.647   1.357   3.367 -0.9445  0.4438  2.8010
   33MOL   H61322437   3.562   1.522   3.391 -1.8608 -0.9336 -1.4171
   33MOL   N61422438   3.719   1.558   3.583 -0.1031 -0.2506  0.1453
   33MOL   C61522439   3.805   1.588   3.699 -0.1281 -0.7801  0.2500
   33MOL   C61622440   3.739   1.572   3.833 -0.0040  0.1594  0.2932
   33MOL   C61722441   3.803   1.620   3.957 -0.1732  0.3626  0.7560
   33MOL   C61822442   3.721   1.608   4.080 -0.0744 -0.4730 -0.8033
   33MOL   C61922443   3.797   1.568   4.210 -0.5450 -0.6346  1.2992
   33MOL   C62022444   3.827   1.409   4.205 -0.0082  0.5274 -0.4005
   33MOL   C62122445   3.713   1.337   4.279  0.2107 -0.0682 -0.0632
   33MOL   C62222446   3.750   1.191   4.299  0.9559 -0.0468 -0.9192
   33MOL   C62322447   3.746   1.107   4.170  0.2214  0.8824 -0.2753
   33MOL   C62422448   3.595   1.088   4.131  0.4127 -0.8135 -0.1288
   33MOL   C62522449   3.572   0.999   4.014 -0.0910  0.4590 -0.5528
   33MOL   O62622450   3.652   0.994   3.917  0.2846  0.4457 -0.1118
   33MOL   H62722451   3.622   1.539   3.603 -0.3983 -0.2100 -1.1809
   33MOL   H62822452   3.834   1.693   3.694 -1.4217 -0.4323 -0.2348
   33MOL   H62922453   3.893   1.525   3.709  1.0444  0.8367  0.2109
   33MOL   H63022454   3.729   1.463   3.833  0.6400  0.0854 -1.0571
   33MOL   H63122455   3.636   1.606   3.818  0.1799 -0.0808 -1.6380
   33MOL   H63222456   3.902   1.577   3.968 -0.5713 -0.7113  0.2590
   33MOL   H63322457   3.818   1.728   3.954 -0.8155  0.4441  0.3345
   33MOL   H63422458   3.642   1.533   4.077 -0.4341 -0.2686  2.1204
   33MOL   H63522459   3.689   1.711   4.094 -0.0134 -0.2428 -2.2213
   33MOL   H63622460   3.748   1.599   4.302  0.2183  2.8000  0.5998
   33MOL   H63722461   3.899   1.607   4.206  0.5484 -3.4899 -0.1141
   33MOL   H63822462   3.831   1.383   4.100 -0.2108  1.3819 -0.6243
   33MOL   H63922463   3.925   1.393   4.249  0.3577  1.5071 -0.8588
   33MOL   H64022464   3.618   1.344   4.227  0.3324  3.4051  0.0771
   33MOL   H64122465   3.701   1.395   4.370 -2.6078 -2.6990  1.3444
   33MOL   H64222466   3.851   1.183   4.339  0.7942 -1.4585 -0.8024
   33MOL   H64322467   3.681   1.158   4.376 -1.3102  2.5019 -1.7735
   33MOL   H64422468   3.789   1.012   4.201  2.0691  1.4797 -0.9031
   33MOL   H64522469   3.806   1.134   4.083  1.4030  0.5977  0.4446
   33MOL   H64622470   3.538   1.178   4.107 -0.0351 -0.6799  1.3928
   33MOL   H64722471   3.543   1.045   4.217  0.4618  1.4518  1.0596
   33MOL   N64822472   3.453   0.935   4.020  0.0463 -0.7132  0.0940
   33MOL   C64922473   3.417   0.817   3.940 -0.2811  0.0256  0.3364
   33MOL   C65022474   3.486   0.690   3.998  0.2978 -0.5836 -0.1479
   33MOL   C65122475   3.442   0.560   3.931  0.1103  0.3567 -0.4566
   33MOL   C65222476   3.522   0.442   3.978  0.2158  0.1298 -0.0143
   33MOL   C65322477   3.667   0.454   3.934 -0.1468  0.4171 -0.2862
   33MOL   C65422478   3.752   0.331   3.940  0.3919 -0.2510 -0.0496
   33MOL   C65522479   3.888   0.346   3.865  0.6119  0.3005 -0.4498
   33MOL   C65622480   3.983   0.230   3.842  0.3787  0.3581 -0.1074
   33MOL   C65722481   4.081   0.269   3.731  0.2739  0.3597  0.1775
   33MOL   C65822482   4.171   0.393   3.760 -0.4571 -0.8786 -0.2538
   33MOL   C65922483   4.293   0.365   3.854 -0.0334 -0.5638 -0.4683
   33MOL   O66022484   4.306   0.260   3.917 -0.0168 -0.3268 -0.0855
   33MOL   H66122485   3.393   0.949   4.100 -1.3621  1.1204 -1.2391
   33MOL   H66222486   3.444   0.827   3.835 -1.0712  0.2205  0.1458
   33MOL   H66322487   3.308   0.807   3.948 -0.4196  2.4211  1.7065
   33MOL   H66422488   3.458   0.692   4.104 -0.0110 -0.8085 -0.2246
   33MOL   H66522489   3.594   0.704   3.989 -0.1312  1.7872 -2.0469
   33MOL   H66622490   3.338   0.538   3.954  0.2281 -0.7592 -0.9863
   33MOL   H66722491   3.436   0.573   3.823 -2.8761 -2.0053 -0.6423
   33MOL   H66822492   3.484   0.345   3.946  0.5241  0.1210 -0.3475
   33MOL   H66922493   3.530   0.435   4.087 -2.2334 -0.4856  0.1577
   33MOL   H67022494   3.719   0.535   3.985 -0.7362  0.0447  0.9272
   33MOL   H67122495   3.668   0.473   3.827  0.1786  1.6151 -0.0746
   33MOL   H67222496   3.781   0.307   4.042  2.0950  2.0578  0.0594
   33MOL   H67322497   3.699   0.241   3.911 -0.8250  0.8586 -1.3789
   33MOL   H67422498   3.928   0.434   3.916 -3.9735  0.6366  2.8233
   33MOL   H67522499   3.869   0.392   3.768 -3.6984  0.7533  0.4969
   33MOL   H67622500   4.034   0.204   3.934  1.3849 -1.7105 -1.2100
   33MOL   H67722501   3.917   0.151   3.803  0.4652 -1.3424  3.0557
   33MOL   H67822502   4.038   0.285   3.632  1.9641  1.6128 -0.3771
   33MOL   H67922503   4.144   0.179   3.725  0.9651  0.8687 -0.3380
   33MOL   H68022504   4.109   0.473   3.799  0.6660  0.9414 -2.1060
   33MOL   H68122505   4.212   0.435   3.668  2.9622 -1.3048  1.0033
   33MOL   H68222506   4.371   0.440   3.856  3.2365 -3.8789  2.0420
   34MOL     N122507   3.387   6.744   6.609  0.5121 -0.0673 -0.0401
   34MOL     C222508   3.369   6.631   6.524  0.0718  0.2013  0.3689
   34MOL     C322509   3.225   6.636   6.478 -0.4720 -0.8730 -0.2936
   34MOL     C422510   3.188   6.520   6.387  0.4209 -0.5133  0.2220
   34MOL     C522511   3.038   6.501   6.354 -0.2228  0.5709 -0.3974
   34MOL     C622512   3.003   6.396   6.242  0.3621  0.6476 -0.0323
   34MOL     C722513   3.038   6.247   6.277  0.0967 -0.1167  0.0709
   34MOL     C822514   2.955   6.193   6.395 -0.4418 -0.6881 -0.3343
   34MOL     C922515   2.813   6.153   6.358  0.1142 -0.2623 -0.6157
   34MOL    C1022516   2.739   6.105   6.485 -0.4737  0.2445  0.9927
   34MOL    C1122517   2.594   6.068   6.446 -0.2104  0.1394  0.1014
   34MOL    C1222518   2.523   5.986   6.548  0.2466 -0.4854  0.0507
   34MOL    O1322519   2.571   5.974   6.663 -0.1910  0.1296  0.2623
   34MOL    H1422520   3.478   6.747   6.653  0.5402 -0.8523 -0.0432
   34MOL    H1522521   3.383   6.540   6.581 -1.5922  0.2136  0.8138
   34MOL    H1622522   3.437   6.638   6.438  0.3453  0.9265  0.6376
   34MOL    H1722523   3.214   6.730   6.424 -2.4874 -2.2650 -2.4060
   34MOL    H1822524   3.156   6.640   6.563 -0.8060  1.8561 -0.6447
   34MOL    H1922525   3.243   6.530   6.294 -0.3837  3.4378  0.1024
   34MOL    H2022526   3.228   6.429   6.433  0.2639  0.3213  2.0577
   34MOL    H2122527   3.001   6.594   6.310 -0.6589 -0.1504 -1.5805
   34MOL    H2222528   2.983   6.485   6.447  1.0355  1.3236  0.4903
   34MOL    H2322529   3.061   6.417   6.152 -0.7318  1.8354 -0.4779
   34MOL    H2422530   2.900   6.399   6.206  0.4126 -0.3766 -0.2629
   34MOL    H2522531   3.021   6.191   6.185 -2.3262 -0.5496  0.7362
   34MOL    H2622532   3.145   6.255   6.295  0.3434  0.2010 -1.4848
   34MOL    H2722533   2.979   6.246   6.486  2.1553 -1.0018 -0.7802
   34MOL    H2822534   3.011   6.103   6.424  0.0665 -0.1879  0.2376
   34MOL    H2922535   2.756   6.238   6.322 -0.4204  0.4893  1.9098
   34MOL    H3022536   2.822   6.069   6.288 -1.5139 -1.3560  0.4610
   34MOL    H3122537   2.744   6.182   6.562 -0.8917  1.5156 -0.2380
   34MOL    H3222538   2.777   6.009   6.522 -2.6198 -1.0732 -0.0805
   34MOL    H3322539   2.595   6.004   6.357 -1.1800 -0.5545  0.5764
   34MOL    H3422540   2.544   6.161   6.420 -0.8711 -0.4484 -0.8102
   34MOL    H3522541   3.318   6.734   6.683 -1.4273  0.7550 -1.6968
   34MOL    N3622542   2.412   5.927   6.500  0.3997  0.2537  0.0054
   34MOL    C3722543   2.320   5.839   6.571 -0.1881  0.1498  0.1577
   34MOL    C3822544   2.194   5.800   6.497  0.6545 -0.4766 -0.3041
   34MOL    C3922545   2.111   5.687   6.562  0.2273 -0.3430 -0.1219
   34MOL    C4022546   1.983   5.644   6.485  0.1862  0.0033 -0.6706
   34MOL    C4122547   2.011   5.562   6.365  0.2162  0.2109  0.3981
   34MOL    C4222548   1.893   5.549   6.264 -0.9165 -0.0951 -0.2510
   34MOL    C4322549   1.941   5.473   6.145  0.3299  0.6590  0.2697
   34MOL    C4422550   1.849   5.489   6.022 -0.4992  0.2443  0.2296
   34MOL    C4522551   1.856   5.622   5.949  0.2128  0.3557  0.6752
   34MOL    C4622552   1.748   5.648   5.850  0.3027 -0.0543 -0.2676
   34MOL    C4722553   1.617   5.700   5.916 -0.2300  0.3833  0.5735
   34MOL    O4822554   1.611   5.703   6.040  0.2741 -0.0603  1.0656
   34MOL    H4922555   2.398   5.918   6.400 -2.5748 -0.1282  0.3928
   34MOL    H5022556   2.368   5.745   6.594 -3.7933 -1.5951  0.9120
   34MOL    H5122557   2.294   5.875   6.671  1.5717  0.2383  0.5930
   34MOL    H5222558   2.218   5.778   6.393 -3.6817 -0.8070 -1.3472
   34MOL    H5322559   2.121   5.882   6.499 -0.1651 -1.0889 -2.6656
   34MOL    H5422560   2.180   5.602   6.566  1.3178  0.5655  0.9383
   34MOL    H5522561   2.089   5.703   6.667  2.8476 -0.0320  0.4183
   34MOL    H5622562   1.931   5.734   6.451 -2.4042 -0.7243  1.1896
   34MOL    H5722563   1.905   5.605   6.551  0.0322  0.9350 -0.2930
   34MOL    H5822564   2.029   5.459   6.396  1.6690  0.6130  0.9339
   34MOL    H5922565   2.088   5.617   6.312 -1.4425 -0.2775 -2.5818
   34MOL    H6022566   1.796   5.521   6.305 -0.0974  0.7466  2.3810
   34MOL    H6122567   1.876   5.647   6.219  0.8347 -0.2210 -1.2416
   34MOL    H6222568   1.928   5.373   6.187 -0.2553 -0.2777 -2.0784
   34MOL    H6322569   2.046   5.489   6.119  0.3359 -1.9931 -1.5125
   34MOL    H6422570   1.864   5.406   5.953 -0.1239  0.8205 -0.3886
   34MOL    H6522571   1.746   5.480   6.057 -0.0557 -2.2246  0.9487
   34MOL    H6622572   1.947   5.628   5.891  0.9595  0.4087  1.8282
   34MOL    H6722573   1.858   5.710   6.013  0.1901 -0.6099  2.0301
   34MOL    H6822574   1.721   5.556   5.798 -0.6970 -0.9077  1.7414
   34MOL    H6922575   1.778   5.719   5.772  0.8282 -0.5022 -0.4781
   34MOL    N7022576   1.512   5.736   5.839 -0.1601 -0.3482  0.2423
   34MOL    C7122577   1.382   5.784   5.892 -0.2517  0.1405 -0.1739
   34MOL    C7222578   1.272   5.793   5.779 -0.2011 -0.2968  0.7424
   34MOL    C7322579   1.146   5.843   5.832  0.1064 -0.9289 -0.3604
   34MOL    C7422580   1.045   5.893   5.724 -0.3313 -0.7684 -0.4227
   34MOL    C7522581   0.921   5.962   5.787 -0.6620  0.9383 -0.2779
   34MOL    C7622582   0.856   6.038   5.672 -0.2507 -0.3321  0.6658
   34MOL    C7722583   0.724   6.098   5.711 -0.3748  0.0535 -0.6870
   34MOL    C7822584   0.678   6.207   5.610 -0.6600 -0.3828 -0.0460
   34MOL    C7922585   0.535   6.251   5.620  0.6139  0.1592 -0.0029
   34MOL    C8022586   0.478   6.311   5.491  0.7273  0.0937 -0.1441
   34MOL    C8122587   0.552   6.438   5.448  0.2882  0.7297 -0.3405
   34MOL    O8222588   0.537   6.542   5.513 -0.2397 -0.1725 -0.0434
   34MOL    H8322589   1.517   5.719   5.740  0.9659  0.8940  0.0681
   34MOL    H8422590   1.341   5.708   5.959 -1.7338 -1.4113 -2.6983
   34MOL    H8522591   1.401   5.880   5.939 -1.3610  0.6504 -0.7245
   34MOL    H8622592   1.255   5.691   5.743  0.4724 -0.1355 -0.0432
   34MOL    H8722593   1.307   5.857   5.699 -0.7580  0.5171  1.1496
   34MOL    H8822594   1.081   5.778   5.890  0.2390 -2.7792 -2.2416
   34MOL    H8922595   1.168   5.926   5.899  2.1151  0.4494 -2.6142
   34MOL    H9022596   1.022   5.819   5.648 -2.2899 -1.3785  0.7147
   34MOL    H9122597   1.102   5.973   5.677 -1.2671 -0.2562 -0.6846
   34MOL    H9222598   0.949   6.026   5.871  0.0220 -0.4927  0.5978
   34MOL    H9322599   0.850   5.887   5.821  0.8987 -0.2248  0.4891
   34MOL    H9422600   0.921   6.122   5.647 -1.6725  0.4053 -0.5961
   34MOL    H9522601   0.845   5.980   5.580 -1.7466  1.6053 -0.4184
   34MOL    H9622602   0.725   6.138   5.812 -0.8920 -0.6288 -0.4094
   34MOL    H9722603   0.645   6.023   5.704 -1.9820  1.7829 -1.7808
   34MOL    H9822604   0.746   6.288   5.632 -1.2786 -0.3184  1.7257
   34MOL    H9922605   0.701   6.172   5.510  0.2652 -1.7275  0.6147
   34MOL   H10022606   0.521   6.322   5.702  1.1325 -0.8801  1.0118
   34MOL   H10122607   0.468   6.168   5.644  0.7374  0.6062  1.9998
   34MOL   H10222608   0.379   6.343   5.526 -0.4810 -1.0124 -2.4724
   34MOL   H10322609   0.467   6.241   5.408  0.5341  2.6376 -2.3475
   34MOL   N10422610   0.624   6.431   5.335  0.0541 -0.3953  0.2524
   34MOL   C10522611   0.709   6.536   5.286 -0.3422  0.1354  0.4073
   34MOL   C10622612   0.859   6.516   5.320  0.0907  0.3848 -0.4664
   34MOL   C10722613   0.960   6.599   5.238 -0.7236  0.1970 -0.2920
   34MOL   C10822614   1.113   6.559   5.259  0.9231  0.4348  0.1854
   34MOL   C10922615   1.209   6.625   5.159  0.4900 -1.2182  0.3927
   34MOL   C11022616   1.348   6.561   5.152 -0.0221 -0.0030  1.3319
   34MOL   C11122617   1.423   6.591   5.023  0.3112 -0.1653  0.4153
   34MOL   C11222618   1.579   6.569   5.034  0.3830  0.1402  0.3559
   34MOL   C11322619   1.649   6.574   4.895  0.1979 -0.0346  0.6609
   34MOL   C11422620   1.796   6.551   4.888 -0.3695 -1.2975 -0.2194
   34MOL   C11522621   1.846   6.408   4.873 -0.2654 -0.0501  0.2623
   34MOL   O11622622   1.768   6.319   4.867  0.4846  0.2054  0.1613
   34MOL   H11722623   0.617   6.339   5.294  1.8974  0.8063 -2.8674
   34MOL   H11822624   0.691   6.528   5.179 -0.6516  0.7800  0.4096
   34MOL   H11922625   0.673   6.636   5.309 -0.7523  0.5341 -1.8672
   34MOL   H12022626   0.890   6.412   5.308 -1.7637 -0.1565 -0.7344
   34MOL   H12122627   0.879   6.521   5.427  2.1491  2.7504 -0.9118
   34MOL   H12222628   0.922   6.588   5.136  1.6463 -4.4941 -0.8142
   34MOL   H12322629   0.960   6.706   5.258  0.4853  0.0011  0.7613
   34MOL   H12422630   1.109   6.451   5.244 -1.0460  0.5299 -0.0870
   34MOL   H12522631   1.153   6.575   5.360 -1.4599  0.9008  1.0962
   34MOL   H12622632   1.216   6.730   5.186 -1.8506 -1.2256  1.0966
   34MOL   H12722633   1.163   6.606   5.062 -0.0539 -1.0838  0.6247
   34MOL   H12822634   1.397   6.603   5.241 -0.5232 -0.7853  1.9834
   34MOL   H12922635   1.342   6.456   5.178 -1.4932 -0.0924  0.6520
   34MOL   H13022636   1.411   6.693   4.986  1.7294 -0.8632 -2.0962
   34MOL   H13122637   1.380   6.524   4.949 -2.3082 -0.4209  2.1214
   34MOL   H13222638   1.623   6.650   5.093  1.2047 -0.4876  0.6207
   34MOL   H13322639   1.596   6.478   5.093 -0.6400 -1.5142 -1.8465
   34MOL   H13422640   1.640   6.678   4.864 -3.6716 -0.3088  0.5714
   34MOL   H13522641   1.603   6.514   4.816  0.9391 -0.4978  0.5839
   34MOL   H13622642   1.850   6.615   4.958 -0.0044  0.1196 -1.7725
   34MOL   H13722643   1.820   6.599   4.793  0.7471  1.5424  1.4272
   34MOL   N13822644   1.978   6.387   4.871 -0.2847 -0.5454  0.0506
   34MOL   C13922645   2.033   6.253   4.874 -0.1557 -0.3185  0.4299
   34MOL   C14022646   2.089   6.219   4.733  0.0235  0.4021 -0.2884
   34MOL   C14122647   2.121   6.067   4.708  0.0314 -0.1649  0.2475
   34MOL   C14222648   2.167   6.045   4.566  0.1793 -0.2347  0.2062
   34MOL   C14322649   2.059   6.068   4.456  0.4657 -0.0501  0.5089
   34MOL   C14422650   2.103   6.009   4.327  0.1703  0.2716  1.0349
   34MOL   C14522651   2.013   6.022   4.202 -0.6447 -0.3201  0.1243
   34MOL   C14622652   1.909   5.908   4.200 -0.5397 -0.0536 -0.1274
   34MOL   C14722653   1.800   5.917   4.095 -0.2523  0.5526 -0.0809
   34MOL   C14822654   1.704   5.797   4.086 -1.1176  0.6060  0.0977
   34MOL   C14922655   1.753   5.670   4.023  0.4704  0.4579  0.2713
   34MOL   O15022656   1.871   5.665   3.979 -0.1468  0.3061 -0.1459
   34MOL   H15122657   2.035   6.469   4.889 -0.3546 -1.0658  2.9655
   34MOL   H15222658   2.116   6.253   4.946  2.8085  2.1444 -2.7900
   34MOL   H15322659   1.963   6.171   4.889  0.1308 -0.3157  1.8451
   34MOL   H15422660   2.174   6.279   4.700 -0.8223  1.1743 -1.0918
   34MOL   H15522661   2.011   6.245   4.661  1.1371 -0.6434 -1.9110
   34MOL   H15622662   2.192   6.040   4.786 -1.6118 -0.1202  1.7986
   34MOL   H15722663   2.026   6.020   4.731  0.0943  0.0727  1.0004
   34MOL   H15822664   2.199   5.941   4.571 -0.1367 -0.3186  0.5133
   34MOL   H15922665   2.251   6.110   4.543  0.1476 -0.3506 -0.2551
   34MOL   H16022666   2.049   6.176   4.458 -0.5200 -0.1404  1.3265
   34MOL   H16122667   1.967   6.023   4.493  0.7666 -1.1428 -0.0353
   34MOL   H16222668   2.196   6.063   4.310 -0.1616  0.5261 -0.0041
   34MOL   H16322669   2.127   5.904   4.346  3.2747  0.2293 -2.5172
   34MOL   H16422670   2.077   6.017   4.114  0.6683 -0.7119  1.0845
   34MOL   H16522671   1.962   6.118   4.198 -1.3871 -0.6254  1.7888
   34MOL   H16622672   1.965   5.815   4.205  2.7321  1.8206 -0.3783
   34MOL   H16722673   1.854   5.917   4.294  3.6219  0.2976  2.4083
   34MOL   H16822674   1.847   5.922   3.997 -0.2205  0.8663 -0.0511
   34MOL   H16922675   1.744   6.007   4.122 -1.7415 -0.4837  0.3779
   34MOL   H17022676   1.613   5.835   4.039 -1.0093  2.0383  1.0182
   34MOL   H17122677   1.651   5.766   4.176 -1.5984 -5.4411 -2.0651
   34MOL   N17222678   1.681   5.556   4.027  0.2069 -0.1223  0.0567
   34MOL   C17322679   1.543   5.547   4.075 -0.1098  0.6013 -0.4371
   34MOL   C17422680   1.527   5.502   4.222  0.8701 -0.2389  0.4521
   34MOL   C17522681   1.380   5.471   4.253  0.7554 -0.0233 -0.3387
   34MOL   C17622682   1.294   5.600   4.247  0.3370  0.6534 -0.1751
   34MOL   C17722683   1.243   5.652   4.382 -0.4092  0.8585 -0.8328
   34MOL   C17822684   1.165   5.780   4.383 -0.0148 -0.2359  0.5090
   34MOL   C17922685   1.117   5.807   4.529 -0.5830  0.2886  0.1634
   34MOL   C18022686   1.219   5.901   4.607 -0.1305  0.9875 -0.8444
   34MOL   C18122687   1.150   5.943   4.744 -0.2115  0.1679  0.7694
   34MOL   C18222688   1.248   6.026   4.834 -0.0300 -0.5586 -0.2498
   34MOL   C18322689   1.185   6.054   4.968 -0.0736  0.0198 -0.0616
   34MOL   O18422690   1.072   6.095   4.982  0.3834  0.6127 -0.3088
   34MOL   H18522691   1.727   5.475   3.989  1.2927  0.7842 -0.5966
   34MOL   H18622692   1.494   5.644   4.061 -1.2106  0.0476 -0.5149
   34MOL   H18722693   1.497   5.470   4.012 -0.1357  1.8098 -1.9170
   34MOL   H18822694   1.565   5.575   4.294  2.5673 -0.3464 -0.3148
   34MOL   H18922695   1.588   5.412   4.234  1.6761  0.4063  1.3799
   34MOL   H19022696   1.353   5.398   4.176 -0.8083 -1.2524  1.3151
   34MOL   H19122697   1.376   5.426   4.352 -2.1759  0.5322 -0.1542
   34MOL   H19222698   1.211   5.597   4.177  1.4219  0.7289 -1.4985
   34MOL   H19322699   1.357   5.672   4.193  2.0216 -1.1688 -0.7179
   34MOL   H19422700   1.326   5.666   4.450 -0.5869 -2.0723  0.0612
   34MOL   H19522701   1.180   5.579   4.433  4.3357 -1.2259  2.3450
   34MOL   H19622702   1.214   5.864   4.334 -1.0577 -0.3887 -0.8103
   34MOL   H19722703   1.074   5.767   4.325  0.9951  0.6433 -1.3479
   34MOL   H19822704   1.103   5.716   4.588  0.5484 -0.0432 -0.0528
   34MOL   H19922705   1.021   5.853   4.508 -1.2777 -0.1063  2.3441
   34MOL   H20022706   1.310   5.844   4.625  0.5137  2.4054  0.5472
   34MOL   H20122707   1.247   5.987   4.547  1.5088 -0.3148 -1.9909
   34MOL   H20222708   1.127   5.853   4.801  0.1133 -0.2147  0.3011
   34MOL   H20322709   1.057   5.996   4.726 -0.4281 -0.0831  1.1527
   34MOL   H20422710   1.268   6.123   4.788 -0.1460 -0.6032 -0.3916
   34MOL   H20522711   1.335   5.961   4.844  0.6983  0.7201  2.1764
   34MOL   N20622712   1.257   6.025   5.076 -0.5826 -0.6485  0.3688
   34MOL   C20722713   1.220   6.034   5.216 -1.0873 -0.1073  0.3138
   34MOL   C20822714   1.322   6.109   5.299  0.5364  0.0289  0.3722
   34MOL   C20922715   1.278   6.134   5.437  0.2400 -0.0409 -0.0439
   34MOL   C21022716   1.386   6.207   5.524  0.1142  0.7281  0.2052
   34MOL   C21122717   1.456   6.334   5.468 -0.3259  0.8276 -0.4895
   34MOL   C21222718   1.556   6.394   5.574  0.1113  0.3485 -0.7241
   34MOL   C21322719   1.650   6.501   5.518 -0.1260 -0.1217 -0.2235
   34MOL   C21422720   1.788   6.446   5.465  0.1937  0.1968  0.1927
   34MOL   C21522721   1.880   6.553   5.411 -0.5490  0.5718  0.2469
   34MOL   C21622722   2.022   6.508   5.346  0.5851 -0.6470  0.4304
   34MOL   C21722723   2.116   6.468   5.460  0.1331 -0.0811 -0.4954
   34MOL   O21822724   2.125   6.541   5.554 -0.1733 -0.3471  0.3596
   34MOL   H21922725   1.349   5.985   5.063 -0.9496 -1.5707  0.6374
   34MOL   H22022726   1.197   5.934   5.254  0.7839 -1.2413 -1.4436
   34MOL   H22122727   1.119   6.074   5.220 -0.6488  0.8166  3.0989
   34MOL   H22222728   1.328   6.207   5.250 -1.4416 -0.1656 -0.3246
   34MOL   H22322729   1.419   6.060   5.301  0.7414  0.2626 -1.8398
   34MOL   H22422730   1.187   6.194   5.439  1.8394  2.4195  2.0253
   34MOL   H22522731   1.247   6.044   5.491 -2.9758 -0.0784 -1.8308
   34MOL   H22622732   1.451   6.141   5.582 -1.5888 -1.3327 -0.1716
   34MOL   H22722733   1.331   6.257   5.604 -0.0778  0.6711  0.1079
   34MOL   H22822734   1.389   6.414   5.437  2.5285  2.8601 -1.6215
   34MOL   H22922735   1.515   6.305   5.381 -0.1656  0.0343 -0.1258
   34MOL   H23022736   1.513   6.420   5.671  0.8666  0.7689 -0.4940
   34MOL   H23122737   1.615   6.309   5.609  0.9535  2.1881  2.5277
   34MOL   H23222738   1.668   6.575   5.595 -2.0092  3.6093 -3.2009
   34MOL   H23322739   1.588   6.560   5.450 -0.1473  2.0108  1.6024
   34MOL   H23422740   1.839   6.386   5.540  0.2987  1.3339  1.0434
   34MOL   H23522741   1.771   6.386   5.376  0.1624  2.9288 -1.7304
   34MOL   H23622742   1.897   6.620   5.496  2.3289  2.0188 -1.4071
   34MOL   H23722743   1.830   6.621   5.344 -1.2123 -0.3077 -0.1562
   34MOL   H23822744   2.062   6.602   5.308 -1.1690  0.8294  2.1354
   34MOL   H23922745   2.019   6.432   5.268  1.3287  0.7042 -0.9386
   34MOL   N24022746   2.187   6.358   5.453  1.0380  0.4661 -0.3974
   34MOL   C24122747   2.279   6.308   5.551 -0.0796 -0.0256  0.7826
   34MOL   C24222748   2.291   6.149   5.528  0.3566 -0.2719 -0.6726
   34MOL   C24322749   2.389   6.097   5.643  0.7975  0.0778 -0.2789
   34MOL   C24422750   2.428   5.951   5.633  0.4981 -0.1856  0.0242
   34MOL   C24522751   2.528   5.931   5.522 -0.4312 -0.7193 -0.6587
   34MOL   C24622752   2.561   5.785   5.516 -1.1715  0.2145 -0.2290
   34MOL   C24722753   2.699   5.752   5.447 -0.1149 -0.7026 -0.0019
   34MOL   C24822754   2.692   5.728   5.297 -0.8205  0.4631  0.3100
   34MOL   C24922755   2.601   5.607   5.251  0.1765 -0.3322  0.3399
   34MOL   C25022756   2.584   5.571   5.103 -0.4741 -0.4608 -0.3891
   34MOL   C25122757   2.535   5.689   5.013  0.2475  0.3090  0.3383
   34MOL   O25222758   2.438   5.759   5.042 -0.0093 -0.0354  0.6881
   34MOL   H25322759   2.169   6.305   5.369 -0.7579  0.4852 -0.0460
   34MOL   H25422760   2.245   6.318   5.654  2.3837  0.9796  1.5215
   34MOL   H25522761   2.373   6.361   5.543 -0.7419  0.9258 -1.2322
   34MOL   H25622762   2.337   6.116   5.435  0.8857 -1.8549  0.1155
   34MOL   H25722763   2.199   6.095   5.549  0.5656  0.0954  1.3210
   34MOL   H25822764   2.472   6.164   5.664  1.6143  0.3240 -3.9418
   34MOL   H25922765   2.323   6.108   5.729  0.3188  0.5692 -0.6976
   34MOL   H26022766   2.339   5.893   5.609 -0.1112  0.5073  0.5990
   34MOL   H26122767   2.468   5.915   5.727 -0.8117 -1.8430 -0.0274
   34MOL   H26222768   2.619   5.986   5.549 -2.7446  1.6791  2.6389
   34MOL   H26322769   2.496   5.961   5.422 -1.0014  0.3741 -0.1515
   34MOL   H26422770   2.569   5.741   5.615 -2.3958 -0.0525 -0.2392
   34MOL   H26522771   2.483   5.731   5.462  0.5020 -0.5776 -1.8856
   34MOL   H26622772   2.747   5.663   5.485  1.4960  0.0865 -0.1507
   34MOL   H26722773   2.770   5.833   5.465 -1.7295  0.5641  0.7826
   34MOL   H26822774   2.669   5.823   5.250 -0.1943  0.1999 -0.5362
   34MOL   H26922775   2.792   5.700   5.264 -1.1895  0.2671 -0.6615
   34MOL   H27022776   2.497   5.614   5.282 -0.2045 -1.2380 -0.7137
   34MOL   H27122777   2.637   5.518   5.303 -0.8280 -0.9697 -0.0506
   34MOL   H27222778   2.530   5.479   5.081  1.8321 -1.9865  0.2670
   34MOL   H27322779   2.684   5.546   5.070  0.5034  1.5415  0.9336
   34MOL   N27422780   2.615   5.702   4.901 -0.1944  0.4835 -0.0802
   34MOL   C27522781   2.598   5.799   4.791  0.5683  0.6678 -0.2780
   34MOL   C27622782   2.486   5.755   4.700  0.1628  0.0714 -0.2476
   34MOL   C27722783   2.471   5.850   4.579  0.6063 -0.4145 -0.7373
   34MOL   C27822784   2.586   5.862   4.478  0.3980  0.0603  0.1095
   34MOL   C27922785   2.565   5.761   4.360 -0.0127  0.4282  0.4949
   34MOL   C28022786   2.676   5.776   4.255 -0.7030  0.0693 -0.2618
   34MOL   C28122787   2.659   5.681   4.136  1.1660 -0.6738  0.0346
   34MOL   C28222788   2.770   5.700   4.037  0.9508 -0.3411  0.4697
   34MOL   C28322789   2.771   5.601   3.916 -0.3155 -0.2380 -0.3308
   34MOL   C28422790   2.645   5.603   3.822  0.0768 -0.6540 -0.0255
   34MOL   C28522791   2.665   5.508   3.704 -0.2089  0.8123 -0.0697
   34MOL   O28622792   2.765   5.513   3.632  0.3586  0.4191  0.3732
   34MOL   H28722793   2.688   5.635   4.881 -1.5400 -0.1280 -3.2683
   34MOL   H28822794   2.689   5.805   4.731  0.3271  1.0549 -0.6132
   34MOL   H28922795   2.577   5.899   4.831 -1.5154 -0.0352  0.4956
   34MOL   H29022796   2.397   5.770   4.761  0.8816  0.7811  0.6342
   34MOL   H29122797   2.503   5.655   4.659  1.0044  0.7338 -1.5738
   34MOL   H29222798   2.376   5.824   4.533  0.1997 -1.9371  0.8808
   34MOL   H29322799   2.455   5.948   4.624  0.2419 -0.6282 -0.3971
   34MOL   H29422800   2.680   5.834   4.525  0.2897  0.0884  0.3445
   34MOL   H29522801   2.595   5.959   4.429  0.5851  0.0127  0.0509
   34MOL   H29622802   2.464   5.772   4.320 -0.6853  0.4198  2.1666
   34MOL   H29722803   2.563   5.657   4.393  0.8358  0.6706  1.3292
   34MOL   H29822804   2.681   5.878   4.216 -0.5614 -0.4510 -1.6436
   34MOL   H29922805   2.776   5.745   4.285 -0.6644  0.3601 -0.0856
   34MOL   H30022806   2.557   5.680   4.097  0.8621 -1.0445  0.8247
   34MOL   H30122807   2.673   5.585   4.186 -0.1765 -1.0256 -0.2585
   34MOL   H30222808   2.767   5.805   4.007  0.1108 -0.7623 -0.9137
   34MOL   H30322809   2.868   5.686   4.085  1.0258  0.8741  0.7009
   34MOL   H30422810   2.769   5.501   3.959 -1.2504  0.6366  1.7558
   34MOL   H30522811   2.859   5.608   3.853 -0.5581  1.4952 -0.5007
   34MOL   H30622812   2.653   5.706   3.786  0.9511 -0.5097  0.5465
   34MOL   H30722813   2.559   5.579   3.884 -1.3865  0.4620 -1.5955
   34MOL   N30822814   2.565   5.420   3.681  0.0492 -0.4411  0.9166
   34MOL   C30922815   2.543   5.365   3.547 -0.1745  1.1131  0.1149
   34MOL   C31022816   2.407   5.292   3.556 -0.1561  0.0303  0.2405
   34MOL   C31122817   2.403   5.170   3.646 -0.4641  0.0590  0.1032
   34MOL   C31222818   2.255   5.120   3.655  0.4093 -0.7285 -0.1216
   34MOL   C31322819   2.232   4.987   3.719  0.1159 -0.2352 -0.1242
   34MOL   C31422820   2.276   4.969   3.871 -0.2002 -0.9797 -0.8442
   34MOL   C31522821   2.207   4.847   3.933  0.4124  0.2552 -0.1359
   34MOL   C31622822   2.270   4.828   4.074 -0.0560  0.1924 -0.2386
   34MOL   C31722823   2.223   4.922   4.183  0.4388  0.0595  1.2042
   34MOL   C31822824   2.311   4.939   4.307 -1.2473 -0.3564  0.1240
   34MOL   C31922825   2.325   4.811   4.390 -0.0319  0.2486 -0.3208
   34MOL   O32022826   2.255   4.713   4.369  0.1571 -0.1313  0.0568
   34MOL   H32122827   2.482   5.433   3.736  1.0382 -1.4416  2.7034
   34MOL   H32222828   2.624   5.297   3.520 -0.2393  0.2812  1.9653
   34MOL   H32322829   2.538   5.446   3.474  1.4008  0.1692 -1.0707
   34MOL   H32422830   2.391   5.268   3.451  0.0539  1.6500 -0.1724
   34MOL   H32522831   2.324   5.351   3.593  0.8770  1.2495  0.6598
   34MOL   H32622832   2.464   5.085   3.618  0.2256  0.8246 -0.7426
   34MOL   H32722833   2.438   5.192   3.747 -1.3641 -1.3268  0.7405
   34MOL   H32822834   2.212   5.121   3.555 -1.8414 -2.5448  0.7745
   34MOL   H32922835   2.203   5.200   3.707  1.6603 -0.4330  0.7144
   34MOL   H33022836   2.275   4.908   3.658  1.8969 -0.3270  1.2217
   34MOL   H33122837   2.126   4.977   3.696  0.8141  0.3519 -3.9879
   34MOL   H33222838   2.383   4.954   3.879 -0.2443 -0.1027  1.9295
   34MOL   H33322839   2.251   5.061   3.925 -1.4987 -0.4219 -2.3623
   34MOL   H33422840   2.209   4.759   3.869 -0.7909 -2.1382  2.9665
   34MOL   H33522841   2.100   4.858   3.947  0.3124  1.2640 -1.6065
   34MOL   H33622842   2.269   4.724   4.107  0.6011 -0.5942 -2.5604
   34MOL   H33722843   2.378   4.842   4.061  0.0677 -1.3678 -1.0571
   34MOL   H33822844   2.130   4.873   4.213  1.1206 -2.7471 -1.0651
   34MOL   H33922845   2.201   5.025   4.158  0.1201 -0.1361  0.6775
   34MOL   H34022846   2.267   5.021   4.363  2.0339 -0.1638  2.5452
   34MOL   H34122847   2.414   4.968   4.283 -0.6588 -1.3308  1.4075
   34MOL   N34222848   2.415   4.814   4.487 -0.0307 -0.1758 -0.5911
   34MOL   C34322849   2.458   4.711   4.571 -0.6659 -0.6197  0.0208
   34MOL   C34422850   2.571   4.756   4.659 -0.3745 -0.6552  0.5046
   34MOL   C34522851   2.649   4.634   4.715 -0.4705  0.2213  0.1262
   34MOL   C34622852   2.732   4.561   4.610  0.9556  0.0395  0.0931
   34MOL   C34722853   2.798   4.423   4.657  0.8114  0.6825  0.1024
   34MOL   C34822854   2.709   4.302   4.629 -0.0049 -0.4222 -1.1244
   34MOL   C34922855   2.747   4.175   4.709 -0.0493  0.8983  0.6810
   34MOL   C35022856   2.632   4.072   4.708 -0.5384  0.1409  1.0095
   34MOL   C35122857   2.670   3.945   4.780 -0.4252 -0.3247 -0.7689
   34MOL   C35222858   2.683   3.957   4.926 -0.3627  0.2445  0.6027
   34MOL   C35322859   2.550   3.968   4.994 -0.4350  0.3109  0.6552
   34MOL   O35422860   2.465   3.885   4.974  0.5655  0.5218 -0.5261
   34MOL   H35522861   2.458   4.905   4.500 -1.5250  0.6436 -1.1923
   34MOL   H35622862   2.374   4.672   4.629  0.2617 -0.4496  1.5006
   34MOL   H35722863   2.490   4.630   4.505  0.0419 -1.5007  1.4294
   34MOL   H35822864   2.537   4.820   4.740 -0.3103 -2.7254  2.2086
   34MOL   H35922865   2.636   4.817   4.596 -0.0869 -2.1927 -0.7258
   34MOL   H36022866   2.710   4.657   4.802  4.0499 -1.0052 -2.5285
   34MOL   H36122867   2.570   4.567   4.749  0.0002  0.8898  2.6225
   34MOL   H36222868   2.818   4.616   4.572  1.9457 -0.3449  1.7003
   34MOL   H36322869   2.670   4.532   4.526  0.0214  0.7031  0.5400
   34MOL   H36422870   2.833   4.440   4.759 -1.2005  0.8709  0.7869
   34MOL   H36522871   2.888   4.396   4.602  0.5505 -0.9877  0.4715
   34MOL   H36622872   2.607   4.330   4.655  0.3299 -1.1578  1.0602
   34MOL   H36722873   2.703   4.267   4.526 -2.2414 -2.4634 -0.3425
   34MOL   H36822874   2.770   4.209   4.809  0.0200 -0.8364  1.2772
   34MOL   H36922875   2.841   4.138   4.666 -0.0146  0.9125  0.7442
   34MOL   H37022876   2.550   4.126   4.756 -1.0942  0.5101 -0.3583
   34MOL   H37122877   2.598   4.055   4.606  0.2961  0.9504  0.5854
   34MOL   H37222878   2.771   3.918   4.751  1.2267  1.7704  2.7006
   34MOL   H37322879   2.597   3.871   4.747 -0.7191 -0.5534  0.3660
   34MOL   H37422880   2.748   4.039   4.956 -0.3724  1.6666 -2.9308
   34MOL   H37522881   2.733   3.866   4.958 -1.8513 -0.5871  0.6050
   34MOL   N37622882   2.531   4.066   5.081  0.0976 -0.1015  0.2226
   34MOL   C37722883   2.414   4.091   5.161 -0.1877  1.1304 -0.5047
   34MOL   C37822884   2.302   4.172   5.086 -0.0261  0.1236 -0.8966
   34MOL   C37922885   2.356   4.299   5.013 -0.5720 -0.3041 -0.3679
   34MOL   C38022886   2.253   4.391   4.946  1.0273 -0.5007 -0.0834
   34MOL   C38122887   2.167   4.474   5.033  0.9682  0.1592 -0.3550
   34MOL   C38222888   2.075   4.576   4.964  0.0655  0.0966  0.8264
   34MOL   C38322889   2.149   4.699   4.909 -0.9580 -0.3351  0.1685
   34MOL   C38422890   2.069   4.805   4.840  0.4210 -0.0756  0.2088
   34MOL   C38522891   2.147   4.907   4.762 -0.3512 -0.0551 -0.0269
   34MOL   C38622892   2.063   4.979   4.653 -0.4781  0.5172 -0.2749
   34MOL   C38722893   1.961   5.076   4.718 -0.0003 -0.3805  0.3443
   34MOL   O38822894   2.006   5.154   4.800  0.4379  0.3261  0.4473
   34MOL   H38922895   2.607   4.132   5.083 -1.3813  1.7715 -1.9548
   34MOL   H39022896   2.374   3.996   5.196 -0.9020  1.9684  0.9810
   34MOL   H39122897   2.453   4.147   5.246  0.2785 -1.5229  1.0896
   34MOL   H39222898   2.221   4.186   5.157  1.6481 -1.2282  1.3628
   34MOL   H39322899   2.258   4.114   5.005 -0.2709  2.5283 -2.5327
   34MOL   H39422900   2.401   4.346   5.101 -0.0068  1.7486 -1.6947
   34MOL   H39522901   2.442   4.292   4.946 -0.1899 -0.0158  0.0811
   34MOL   H39622902   2.188   4.330   4.883  1.6557 -0.7630 -0.4779
   34MOL   H39722903   2.294   4.461   4.873 -0.0571  0.9678  0.6804
   34MOL   H39822904   2.232   4.531   5.100 -1.1892  2.5352 -0.1816
   34MOL   H39922905   2.106   4.404   5.089  1.1525 -0.3651 -0.8025
   34MOL   H40022906   2.019   4.530   4.883  0.3773  0.6355  0.3048
   34MOL   H40122907   1.996   4.606   5.032 -0.3260 -0.7812  0.7717
   34MOL   H40222908   2.224   4.665   4.839 -1.0522  0.3031 -0.2453
   34MOL   H40322909   2.196   4.746   4.995 -0.0438  0.1159 -0.5773
   34MOL   H40422910   1.985   4.767   4.782  0.9168 -2.0716  0.7594
   34MOL   H40522911   2.013   4.862   4.915  2.3868 -0.5319  2.0800
   34MOL   H40622912   2.237   4.866   4.717 -1.0866 -0.2115 -1.3833
   34MOL   H40722913   2.186   4.967   4.845 -3.6056 -1.1846  2.4795
   34MOL   H40822914   2.007   4.916   4.586  0.3412  1.1135 -1.5423
   34MOL   H40922915   2.133   5.036   4.591 -1.6542  0.2150 -1.8866
   34MOL   N41022916   1.830   5.058   4.696  0.6396  0.3493 -0.4497
   34MOL   C41122917   1.724   5.126   4.771  0.3612 -0.0215 -0.4078
   34MOL   C41222918   1.705   5.263   4.706 -0.1026 -1.0125  0.0293
   34MOL   C41322919   1.578   5.340   4.771 -0.2014 -0.2211  0.5689
   34MOL   C41422920   1.561   5.487   4.732  0.3937 -0.1508 -0.3650
   34MOL   C41522921   1.486   5.568   4.840 -0.8315 -0.4461  0.2420
   34MOL   C41622922   1.354   5.506   4.883  0.1150 -0.5826 -0.2922
   34MOL   C41722923   1.256   5.483   4.772 -0.4819 -0.2967 -0.0109
   34MOL   C41822924   1.126   5.429   4.824  0.2666 -0.3680 -0.8121
   34MOL   C41922925   1.026   5.400   4.714  0.1522 -0.0868  0.6916
   34MOL   C42022926   0.906   5.321   4.774 -0.2295 -0.1713 -0.3258
   34MOL   C42122927   0.819   5.259   4.666 -0.3798  0.7102 -0.2376
   34MOL   O42222928   0.749   5.334   4.598  0.3062 -0.1040 -0.1841
   34MOL   H42322929   1.806   4.979   4.638  2.0314 -2.0012  2.0838
   34MOL   H42422930   1.631   5.071   4.781 -1.1086  2.9548  3.1999
   34MOL   H42522931   1.760   5.153   4.871  0.3451 -1.0945 -0.1113
   34MOL   H42622932   1.688   5.249   4.599 -1.6817  2.0202 -0.1712
   34MOL   H42722933   1.799   5.315   4.726 -0.2563 -1.0339  0.8074
   34MOL   H42822934   1.494   5.286   4.727  2.4276 -3.7302 -0.3648
   34MOL   H42922935   1.563   5.335   4.878  0.1450  2.0899  0.7448
   34MOL   H43022936   1.505   5.499   4.639 -0.1509 -3.4828 -0.5426
   34MOL   H43122937   1.660   5.519   4.700  0.8107  1.0977  2.0354
   34MOL   H43222938   1.469   5.670   4.804 -1.4502 -0.1697  1.2796
   34MOL   H43322939   1.543   5.595   4.930 -0.3904 -0.0600 -0.1495
   34MOL   H43422940   1.361   5.416   4.944 -0.4353 -0.2562  0.2496
   34MOL   H43522941   1.300   5.580   4.942  2.9234 -0.6533  2.4633
   34MOL   H43622942   1.302   5.412   4.704  2.0831  2.0581 -0.8392
   34MOL   H43722943   1.239   5.578   4.721  0.3619  0.9585  1.9573
   34MOL   H43822944   1.153   5.337   4.877 -1.5442 -1.1208 -1.1353
   34MOL   H43922945   1.105   5.510   4.895 -0.1497 -1.4951  0.3793
   34MOL   H44022946   1.082   5.337   4.644  0.9693 -0.3368  1.5577
   34MOL   H44122947   1.005   5.488   4.652  2.5295  0.0037 -0.0736
   34MOL   H44222948   0.835   5.386   4.826 -0.3176 -0.8261  0.3813
   34MOL   H44322949   0.947   5.242   4.837  0.9565 -0.0011 -0.8823
   34MOL   N44422950   0.829   5.126   4.655  0.0104  0.3150  0.8405
   34MOL   C44522951   0.758   5.050   4.560 -0.2658 -0.3534 -0.3872
   34MOL   C44622952   0.684   4.942   4.637 -0.1343 -0.2358  0.1544
   34MOL   C44722953   0.591   4.856   4.553  0.1963 -0.0281 -0.1204
   34MOL   C44822954   0.494   4.772   4.630 -0.2623  0.2025 -0.3257
   34MOL   C44922955   0.402   4.683   4.550 -0.4843  0.3722 -0.2976
   34MOL   C45022956   0.289   4.754   4.466 -0.3236  0.4740  0.0305
   34MOL   C45122957   0.191   4.840   4.550 -0.6670 -0.2438 -0.2164
   34MOL   C45222958   0.084   4.921   4.465 -0.2310 -0.7452 -0.0326
   34MOL   C45322959   7.693   4.995   4.557 -0.0313 -0.5638 -0.3308
   34MOL   C45422960   7.569   5.045   4.496 -0.3603 -0.3628  0.0146
   34MOL   C45522961   7.591   5.162   4.394 -0.6572 -1.4139  0.4172
   34MOL   O45622962   7.697   5.169   4.327  0.1276  0.0639 -0.2260
   34MOL   H45722963   0.880   5.072   4.723  0.9982  0.7584  0.4636
   34MOL   H45822964   0.695   5.115   4.499 -0.8510  1.0403  1.6716
   34MOL   H45922965   0.835   4.993   4.509 -0.9198 -0.8542 -0.8208
   34MOL   H46022966   0.629   4.990   4.718  1.0967  0.8682  0.3593
   34MOL   H46122967   0.752   4.874   4.689 -1.5249 -1.0802  0.8836
   34MOL   H46222968   0.552   4.932   4.485 -0.1795  0.2435  0.3980
   34MOL   H46322969   0.657   4.782   4.507 -0.1901  0.4030 -1.4050
   34MOL   H46422970   0.439   4.830   4.703 -1.2421 -2.2661  0.9672
   34MOL   H46522971   0.550   4.715   4.703 -0.7972  1.1737  0.8506
   34MOL   H46622972   0.350   4.617   4.619  0.8060 -0.8590 -0.4939
   34MOL   H46722973   0.451   4.614   4.483 -1.6802  0.5513 -1.3912
   34MOL   H46822974   0.325   4.826   4.392  0.0997  2.1183  1.7969
   34MOL   H46922975   0.232   4.678   4.411 -0.8445  1.7837 -1.2804
   34MOL   H47022976   0.252   4.908   4.611  1.0619 -0.9667 -1.1139
   34MOL   H47122977   0.131   4.770   4.609  0.0044 -0.6239  0.0259
   34MOL   H47222978   0.140   4.996   4.408  3.1419 -1.9671  1.5327
   34MOL   H47322979   0.035   4.861   4.388 -0.7158  0.4490 -0.6664
   34MOL   H47422980   0.030   5.074   4.609 -0.5763 -0.9400  0.8193
   34MOL   H47522981   7.658   4.932   4.639 -1.3131  1.4609  0.7253
   34MOL   H47622982   7.496   5.079   4.569  1.0448  2.2418  0.2777
   34MOL   H47722983   7.515   4.961   4.451  1.0439 -2.1581  1.5817
   34MOL   N47822984   7.489   5.245   4.368 -0.1246  1.1127  0.4194
   34MOL   C47922985   7.350   5.242   4.420  0.0202 -0.1025 -0.3325
   34MOL   C48022986   7.250   5.317   4.326 -0.0645  0.1423  0.0399
   34MOL   C48122987   7.296   5.465   4.301 -0.8403  0.8038 -0.4013
   34MOL   C48222988   7.190   5.560   4.246  0.2711 -0.0950 -0.0108
   34MOL   C48322989   7.165   5.511   4.096  0.0688 -0.0312 -0.1601
   34MOL   C48422990   7.062   5.597   4.024  0.0622  0.3886 -0.0708
   34MOL   C48522991   6.989   5.519   3.906  0.4674 -0.4478  0.3545
   34MOL   C48622992   7.074   5.513   3.780 -0.1654 -0.0178 -0.3809
   34MOL   C48722993   7.007   5.430   3.670 -0.2859  0.4200 -0.1236
   34MOL   C48822994   7.113   5.365   3.574 -0.1738  0.1901 -0.2931
   34MOL   C48922995   7.181   5.479   3.499 -0.3094  0.7733  0.0406
   34MOL   O49022996   7.114   5.550   3.423 -0.2127 -0.2005  0.6779
   34MOL   H49122997   7.503   5.321   4.303 -2.0017 -0.4163 -1.8401
   34MOL   H49222998   7.327   5.136   4.432  1.2097 -0.3032  0.2239
   34MOL   H49322999   7.345   5.295   4.515 -0.8441 -2.1927  0.8099
   34MOL   H49423000   7.151   5.297   4.367 -0.0239  0.2301  0.1783
   34MOL   H49523001   7.247   5.269   4.228  0.2106  0.1169  0.0427
   34MOL   H49623002   7.342   5.507   4.390 -0.0875 -1.1235  0.1517
   34MOL   H49723003   7.378   5.460   4.229  0.1611  1.1364  0.6965
   34MOL   H49823004   7.225   5.662   4.259  1.3409 -0.3611 -0.7478
   34MOL   H49923005   7.101   5.556   4.309  2.0593  0.8703  2.6695
   34MOL   H50023006   7.132   5.408   4.102 -1.3739  0.5061  1.9515
   34MOL   H50123007   7.257   5.520   4.039 -0.3260 -1.7340 -1.0906
   34MOL   H50223008   6.991   5.632   4.100  0.0439  0.3032 -0.0478
   34MOL   H50323009   7.110   5.686   3.983 -2.7877  0.3599 -3.6454
   34MOL   H50423010   6.890   5.558   3.883  2.1064  1.5848 -3.6512
   34MOL   H50523011   6.977   5.422   3.955  1.1039 -1.3600 -1.2827
   34MOL   H50623012   7.109   5.611   3.748  0.0120 -0.1687 -0.6482
   34MOL   H50723013   7.170   5.463   3.791  0.7340  1.0389 -3.0645
   34MOL   H50823014   6.938   5.490   3.610 -1.1102  0.0499  0.4544
   34MOL   H50923015   6.949   5.348   3.712  0.7281  0.4570  1.3718
   34MOL   H51023016   7.059   5.294   3.511 -1.4256  0.9296 -0.0752
   34MOL   H51123017   7.186   5.309   3.633 -0.0125  1.3199  0.6094
   34MOL   N51223018   7.309   5.495   3.516 -0.0809 -0.4618 -0.5535
   34MOL   C51323019   7.398   5.591   3.450 -0.1733  0.1449 -0.2092
   34MOL   C51423020   7.480   5.678   3.540  0.2207 -0.2214 -0.2983
   34MOL   C51523021   7.557   5.783   3.457 -0.6519 -0.6862 -0.0500
   34MOL   C51623022   7.653   5.854   3.552  0.8458 -0.8365 -0.1500
   34MOL   C51723023   0.020   5.952   3.471  0.0958 -0.6043 -0.7523
   34MOL   C51823024   0.098   6.054   3.563 -0.1349  0.0034 -0.2262
   34MOL   C51923025   0.196   6.146   3.482  0.0934  0.1120 -0.2794
   34MOL   C52023026   0.263   6.242   3.576 -0.1020 -0.0502 -0.0006
   34MOL   C52123027   0.390   6.298   3.517 -0.3488 -1.2866  0.4965
   34MOL   C52223028   0.439   6.429   3.589 -0.2907  0.8794 -0.0663
   34MOL   C52323029   0.515   6.406   3.717  0.2491 -0.3655  0.1539
   34MOL   O52423030   0.633   6.366   3.719  0.5081 -0.4589 -0.3849
   34MOL   H52523031   7.362   5.428   3.570 -0.0290  0.3994  0.4633
   34MOL   H52623032   7.465   5.532   3.387 -0.5412  1.2328 -1.6463
   34MOL   H52723033   7.342   5.660   3.387  1.1977  0.3896 -1.1878
   34MOL   H52823034   7.556   5.619   3.590  0.7671  0.1993 -0.6181
   34MOL   H52923035   7.430   5.726   3.624 -1.5333  0.2576 -1.5981
   34MOL   H53023036   7.612   5.733   3.377  0.4522 -2.0709  1.5467
   34MOL   H53123037   7.486   5.851   3.409 -0.8332 -0.4577  0.5383
   34MOL   H53223038   0.009   5.787   3.600 -0.0485 -0.4435  1.7892
   34MOL   H53323039   7.595   5.905   3.629  1.2569  0.1914 -0.5094
   34MOL   H53423040   7.678   5.998   3.391  0.4781  1.1954 -0.0119
   34MOL   H53523041   0.101   5.902   3.417  1.5345 -0.5902  1.3249
   34MOL   H53623042   0.030   6.105   3.631  1.0242 -0.0557  0.9899
   34MOL   H53723043   0.158   5.995   3.632  0.1128  2.3153  1.6024
   34MOL   H53823044   0.149   6.180   3.391 -1.2181 -2.2222 -0.5311
   34MOL   H53923045   0.272   6.079   3.442  0.3917  0.4756 -0.3253
   34MOL   H54023046   0.197   6.324   3.603  1.1100  0.7288  0.6681
   34MOL   H54123047   0.288   6.186   3.666  1.8785 -1.0740 -1.1492
   34MOL   H54223048   0.382   6.336   3.415 -3.0670  1.1871  1.5481
   34MOL   H54323049   0.470   6.226   3.533 -0.9057 -1.6334  1.7926
   34MOL   H54423050   0.350   6.487   3.609 -0.2692  0.8852  0.0102
   34MOL   H54523051   0.505   6.489   3.527  1.5360 -2.0866 -1.1300
   34MOL   N54623052   0.445   6.428   3.828 -0.4243 -0.4892  0.0595
   34MOL   C54723053   0.494   6.370   3.955 -0.4508 -0.1996 -0.4629
   34MOL   C54823054   0.444   6.221   3.977  0.2589 -0.2457 -0.1308
   34MOL   C54923055   0.296   6.190   3.996  0.4759 -0.1281  0.1329
   34MOL   C55023056   0.268   6.036   3.989  0.4762 -0.7673 -0.2843
   34MOL   C55123057   0.125   5.988   3.968 -0.0327 -0.3024 -0.2620
   34MOL   C55223058   0.108   5.839   3.931 -0.2248  0.0529 -0.0420
   34MOL   C55323059   7.675   5.794   3.931 -0.1919  0.6022  0.1311
   34MOL   C55423060   7.652   5.650   3.889 -0.1562 -0.2935  0.1436
   34MOL   C55523061   7.504   5.603   3.918  0.3313 -0.4118 -0.3504
   34MOL   C55623062   7.476   5.460   3.872 -0.7169  0.1451 -0.4690
   34MOL   C55723063   7.489   5.349   3.972  0.0828 -0.0069  0.2300
   34MOL   O55823064   7.554   5.367   4.076 -0.3978  0.0271 -0.0523
   34MOL   H55923065   0.353   6.469   3.824 -0.0935  0.1406 -1.6819
   34MOL   H56023066   0.603   6.367   3.957 -0.4894 -0.7167  0.7599
   34MOL   H56123067   0.472   6.438   4.038 -0.0100 -1.6836  0.8836
   34MOL   H56223068   0.494   6.188   4.068 -1.4272 -0.9776  0.5586
   34MOL   H56323069   0.483   6.154   3.900 -0.1332 -0.1123 -0.4474
   34MOL   H56423070   0.256   6.223   4.091 -1.1790  0.3837 -0.7177
   34MOL   H56523071   0.237   6.229   3.913 -0.7957  0.7433  1.4323
   34MOL   H56623072   0.302   5.992   4.083  0.0447 -1.4680 -0.4463
   34MOL   H56723073   0.330   5.979   3.920  0.9262  0.8026 -1.1956
   34MOL   H56823074   0.078   6.053   3.895  1.2569 -0.6787 -1.4448
   34MOL   H56923075   0.069   6.001   4.060 -1.5247  0.0100 -1.1976
   34MOL   H57023076   0.156   5.832   3.834 -0.1219 -0.8440  0.0627
   34MOL   H57123077   0.173   5.778   3.994 -1.5704 -0.7112  0.6331
   34MOL   H57223078   7.618   5.864   3.870 -1.8498  1.5400  2.7043
   34MOL   H57323079   7.629   5.806   4.029  1.2885 -1.6250  1.1576
   34MOL   H57423080   7.671   5.637   3.783  1.0426  0.1108  0.3000
   34MOL   H57523081   0.003   5.587   3.948 -0.6918 -0.3292  0.7189
   34MOL   H57623082   7.446   5.682   3.872  1.7509  0.6774 -0.2966
   34MOL   H57723083   7.477   5.625   4.021 -0.6190 -0.6497 -0.5381
   34MOL   H57823084   7.549   5.425   3.799  0.5573  1.3176  0.2326
   34MOL   H57923085   7.382   5.452   3.817 -1.3513 -2.5556  0.9017
   34MOL   N58023086   7.415   5.242   3.951 -0.5976 -0.1230 -0.2015
   34MOL   C58123087   7.431   5.129   4.037 -0.0870 -0.0613 -0.2814
   34MOL   C58223088   7.535   5.032   3.974  0.2966 -0.1468  0.5259
   34MOL   C58323089   7.556   4.923   4.077 -0.5761 -0.1423 -0.3786
   34MOL   C58423090   7.640   4.807   4.017 -0.0564 -0.3787  0.7087
   34MOL   C58523091   7.661   4.685   4.102 -0.0181 -0.3458  0.1286
   34MOL   C58623092   0.062   4.599   4.049 -0.1640 -0.8189 -0.1968
   34MOL   C58723093   0.025   4.515   3.923 -0.5960 -0.0771 -0.3750
   34MOL   C58823094   0.125   4.403   3.886  0.3152 -0.3701 -0.6037
   34MOL   C58923095   0.089   4.338   3.758 -0.0248 -0.1480 -0.0516
   34MOL   C59023096   0.206   4.250   3.707  0.1179  0.2237 -0.3418
   34MOL   C59123097   0.162   4.132   3.625 -0.7245 -0.7608 -0.2580
   34MOL   O59223098   0.064   4.141   3.550  0.2407 -0.1097 -0.3071
   34MOL   H59323099   7.395   5.227   3.853  1.1541  1.5477 -0.8551
   34MOL   H59423100   7.463   5.142   4.140  0.4403 -1.0410 -0.3176
   34MOL   H59523101   7.337   5.075   4.050 -0.0496  0.0332  0.3834
   34MOL   H59623102   7.631   5.082   3.960  0.6319 -0.9083  0.1142
   34MOL   H59723103   7.493   5.002   3.878 -0.4715  3.3153 -0.3020
   34MOL   H59823104   7.612   4.966   4.160  0.4219  0.4718 -1.3506
   34MOL   H59923105   7.460   4.886   4.114 -1.3523  0.9008 -1.3314
   34MOL   H60023106   0.025   4.850   4.012 -0.7447  1.1406 -0.2893
   34MOL   H60123107   7.614   4.785   3.914 -0.2884  1.8916  0.2598
   34MOL   H60223108   7.569   4.626   4.107 -0.0311 -0.1727  2.2431
   34MOL   H60323109   7.689   4.700   4.206 -1.7243 -0.5511  0.6231
   34MOL   H60423110   0.161   4.644   4.041 -0.1390 -1.3252 -4.0816
   34MOL   H60523111   0.085   4.524   4.124  1.0552 -0.8114 -0.5567
   34MOL   H60623112   0.013   4.582   3.838 -0.7058  1.0531  0.5164
   34MOL   H60723113   7.636   4.483   3.930 -0.8953  0.8930 -0.3542
   34MOL   H60823114   0.224   4.450   3.887 -0.0035  0.3146  1.1342
   34MOL   H60923115   0.127   4.327   3.965 -0.8058  0.9043  0.6932
   34MOL   H61023116   0.068   4.411   3.679  1.1940  2.2599  1.7643
   34MOL   H61123117   0.001   4.275   3.768 -0.2815  0.4083  1.2884
   34MOL   H61223118   0.260   4.207   3.791  0.2980 -0.3216 -0.7374
   34MOL   H61323119   0.276   4.311   3.651  0.4948  0.0065 -0.1115
   34MOL   N61423120   0.235   4.013   3.631  0.0301  0.7900  0.4411
   34MOL   C61523121   0.217   3.918   3.520 -0.6987 -0.8437 -0.2299
   34MOL   C61623122   0.320   3.807   3.525  0.4426  0.3813 -0.0264
   34MOL   C61723123   0.301   3.711   3.411 -0.1367  0.3676 -0.7858
   34MOL   C61823124   0.364   3.747   3.275 -0.1810 -0.2592 -0.6953
   34MOL   C61923125   0.298   3.676   3.157 -0.5911 -0.1219  0.0957
   34MOL   C62023126   0.276   3.527   3.167 -0.2560 -0.1747 -0.4590
   34MOL   C62123127   0.228   3.455   3.044  0.7142 -0.1036  0.4766
   34MOL   C62223128   0.186   3.314   3.075 -0.4065 -0.3454  0.0069
   34MOL   C62323129   0.151   3.235   2.943 -0.0015  0.0886  0.5551
   34MOL   C62423130   0.115   3.078   2.951  0.3379  0.3113 -0.0156
   34MOL   C62523131   0.246   3.002   2.986 -0.8291 -0.3089 -1.0328
   34MOL   O62623132   0.360   3.053   2.955 -0.7696 -0.3757 -0.6606
   34MOL   H62723133   0.315   4.012   3.693 -1.7718  0.5603  2.8115
   34MOL   H62823134   0.209   3.976   3.428 -0.8323  0.7546  0.7700
   34MOL   H62923135   0.117   3.873   3.525 -1.9463  1.7821 -0.8994
   34MOL   H63023136   0.309   3.750   3.617  0.0762 -0.6785 -0.7233
   34MOL   H63123137   0.421   3.848   3.524 -0.3127  2.3692  1.7215
   34MOL   H63223138   0.354   3.621   3.442 -0.8699  0.0019 -0.5811
   34MOL   H63323139   0.199   3.674   3.399 -0.6441  1.6506 -0.5846
   34MOL   H63423140   0.470   3.725   3.278  0.1301  0.8687 -2.4385
   34MOL   H63523141   0.355   3.855   3.265 -0.0985 -0.3685 -1.9644
   34MOL   H63623142   0.372   3.679   3.077 -0.8387  1.4353 -0.0862
   34MOL   H63723143   0.214   3.729   3.113  0.7059  1.7299 -0.1881
   34MOL   H63823144   0.363   3.471   3.202  0.4699  0.9833 -0.3561
   34MOL   H63923145   0.200   3.524   3.246  0.2304  1.8360  0.1301
   34MOL   H64023146   0.310   3.457   2.972  0.0783 -0.8677 -0.2717
   34MOL   H64123147   0.151   3.518   2.998  1.0699 -0.4456 -0.5915
   34MOL   H64223148   0.272   3.259   3.113 -0.7713 -0.9949 -0.0839
   34MOL   H64323149   0.106   3.312   3.149 -0.5745  0.2989 -0.1514
   34MOL   H64423150   0.227   3.248   2.867 -0.1271  1.7190  0.6925
   34MOL   H64523151   0.062   3.291   2.912  1.1051  0.9092 -1.1991
   34MOL   H64623152   0.082   3.046   2.852 -2.7582 -2.4995  1.8178
   34MOL   H64723153   0.041   3.044   3.023 -0.8652  3.4551  0.3231
   34MOL   N64823154   0.234   2.899   3.065  0.4855  0.5342 -0.4060
   34MOL   C64923155   0.344   2.832   3.132  0.7068  0.7186  0.3686
   34MOL   C65023156   0.406   2.721   3.049  0.1525  0.0051  0.0091
   34MOL   C65123157   0.304   2.624   2.986 -0.3778 -0.7230  0.0331
   34MOL   C65223158   0.297   2.631   2.829 -0.2614  0.0685 -0.5742
   34MOL   C65323159   0.184   2.542   2.766  0.1970  0.4534 -0.4354
   34MOL   C65423160   0.041   2.581   2.802  0.3588 -0.4062 -0.0561
   34MOL   C65523161   7.653   2.479   2.749  0.7337  0.8295  0.0305
   34MOL   C65623162   7.507   2.492   2.801  0.4995 -0.3297  0.2265
   34MOL   C65723163   7.405   2.380   2.765 -0.0183  0.3712  0.0796
   34MOL   C65823164   7.454   2.248   2.819  0.3385  0.4259  0.5201
   34MOL   C65923165   7.360   2.132   2.790 -0.4568  0.2176 -0.4977
   34MOL   O66023166   7.293   2.113   2.688 -0.2141 -0.2525  0.4856
   34MOL   H66123167   0.140   2.873   3.091  0.5100 -0.7660 -1.5500
   34MOL   H66223168   0.302   2.801   3.228 -0.9670  0.5611 -0.3988
   34MOL   H66323169   0.423   2.901   3.163  0.6729  0.2589  1.4936
   34MOL   H66423170   0.460   2.669   3.128  2.4406  2.7878  0.3756
   34MOL   H66523171   0.479   2.762   2.978  1.3546 -2.0603  0.0117
   34MOL   H66623172   0.335   2.522   3.005 -1.0309 -0.7525  0.9609
   34MOL   H66723173   0.204   2.628   3.030  0.2392  2.6145  1.2919
   34MOL   H66823174   0.393   2.613   2.780  1.5692  0.3333  2.7184
   34MOL   H66923175   0.268   2.731   2.797  1.0026  1.2028  1.6369
   34MOL   H67023176   0.199   2.446   2.816 -3.2890  0.0653 -0.0254
   34MOL   H67123177   0.204   2.531   2.660 -2.2687 -0.6711 -0.8155
   34MOL   H67223178   0.039   2.575   2.911  0.9174  1.2996  0.0630
   34MOL   H67323179   0.018   2.685   2.780 -2.3159 -1.3492 -2.0518
   34MOL   H67423180   7.687   2.381   2.782 -1.9862 -0.5539 -1.0846
   34MOL   H67523181   7.645   2.481   2.640 -0.1405 -1.0092  0.0428
   34MOL   H67623182   7.516   2.503   2.909 -2.3645  1.3664  0.3385
   34MOL   H67723183   7.465   2.589   2.774  1.7385  0.1491 -0.0203
   34MOL   H67823184   7.400   2.368   2.656 -0.0505  2.0373 -0.1248
   34MOL   H67923185   7.305   2.393   2.806 -0.5865 -2.4707 -0.3025
   34MOL   H68023186   7.453   2.262   2.927 -0.4885  0.4961  0.5130
   34MOL   H68123187   7.555   2.214   2.797  0.9746  1.9372  0.9937
   34MOL   H68223188   7.350   2.067   2.877  0.5921  0.6336 -0.0622
   35MOL     N123189   1.653   3.635   1.456  0.1781  0.0470  0.0765
   35MOL     C223190   1.526   3.593   1.416 -0.8827 -0.4216  0.1826
   35MOL     C323191   1.510   3.541   1.274 -0.1411  0.3807  0.2506
   35MOL     C423192   1.522   3.663   1.173  0.2065 -0.4621 -0.3905
   35MOL     C523193   1.482   3.631   1.031 -0.1478 -0.3889  0.6780
   35MOL     C623194   1.531   3.731   0.932  0.1457  0.2172  0.0294
   35MOL     C723195   1.482   3.875   0.964 -0.9395  0.5141  0.2556
   35MOL     C823196   1.513   3.980   0.854 -0.0024  0.9219 -0.5903
   35MOL     C923197   1.530   4.129   0.894  0.1425  0.2421 -0.2906
   35MOL    C1023198   1.583   4.208   0.775  0.0488 -0.2153 -0.0447
   35MOL    C1123199   1.623   4.354   0.811  0.2827  0.0545 -0.2389
   35MOL    C1223200   1.682   4.425   0.691  0.3316 -1.0843 -0.1024
   35MOL    O1323201   1.672   4.383   0.578 -0.4036  0.7138  0.3688
   35MOL    H1423202   1.659   3.649   1.556  0.3083  2.2404 -0.2160
   35MOL    H1523203   1.450   3.666   1.444 -0.5792 -0.3499  0.8435
   35MOL    H1623204   1.504   3.515   1.489 -1.3753  2.1055  2.8294
   35MOL    H1723205   1.410   3.498   1.270  1.0438 -2.6167  1.6307
   35MOL    H1823206   1.582   3.462   1.256 -0.6052  0.0374 -0.1196
   35MOL    H1923207   1.472   3.751   1.213  1.4051  1.0607 -2.1333
   35MOL    H2023208   1.626   3.696   1.168  0.4036 -1.1463 -0.8688
   35MOL    H2123209   1.373   3.630   1.025 -0.1432  1.7154 -0.2877
   35MOL    H2223210   1.524   3.534   1.003 -0.7479  0.3050 -2.9548
   35MOL    H2323211   1.501   3.695   0.834 -2.1311 -0.6238  0.9904
   35MOL    H2423212   1.639   3.737   0.918  0.2012 -1.4388 -0.3218
   35MOL    H2523213   1.375   3.866   0.982 -0.6847  0.5654  1.8479
   35MOL    H2623214   1.530   3.915   1.054  1.6810 -1.4620 -0.2042
   35MOL    H2723215   1.427   3.968   0.789  0.1909  0.8295 -0.8308
   35MOL    H2823216   1.601   3.937   0.806 -0.2510 -0.8704  0.5337
   35MOL    H2923217   1.445   4.174   0.944  1.3743  1.1946  0.9768
   35MOL    H3023218   1.605   4.131   0.973  1.3655 -0.1937 -1.4235
   35MOL    H3123219   1.508   4.215   0.696 -0.7649 -2.1978  0.5387
   35MOL    H3223220   1.669   4.161   0.728 -0.2338 -1.6794  0.8974
   35MOL    H3323221   1.705   4.363   0.882  0.9456  2.7211 -1.2740
   35MOL    H3423222   1.544   4.421   0.844 -0.3467 -1.5983  1.6998
   35MOL    H3523223   1.714   3.556   1.441  0.4105  0.0592  0.9426
   35MOL    N3623224   1.736   4.544   0.711 -0.2760 -0.6727 -0.0626
   35MOL    C3723225   1.805   4.631   0.614 -0.1525  0.6854  0.2145
   35MOL    C3823226   1.720   4.737   0.551 -0.1360  0.4195 -0.0221
   35MOL    C3923227   1.785   4.813   0.439  0.4169 -0.7836 -0.2105
   35MOL    C4023228   1.703   4.873   0.326  0.6097 -0.3449  0.5657
   35MOL    C4123229   1.795   4.926   0.205 -0.5582 -0.3659 -0.0289
   35MOL    C4223230   1.722   4.979   0.081 -0.5325 -0.1205  0.4241
   35MOL    C4323231   1.816   5.030   7.686 -0.1401  0.4565  0.0283
   35MOL    C4423232   1.733   5.074   7.567 -0.7148  0.4064 -1.2247
   35MOL    C4523233   1.822   5.138   7.463  0.0998 -0.4911 -0.0991
   35MOL    C4623234   1.869   5.283   7.488  0.2600 -0.3101 -0.3080
   35MOL    C4723235   1.751   5.386   7.485 -0.4141 -0.2559 -0.3123
   35MOL    O4823236   1.718   5.439   7.585  0.3053  0.0004  0.2049
   35MOL    H4923237   1.733   4.579   0.806 -1.1773 -1.6036  0.2608
   35MOL    H5023238   1.884   4.683   0.666 -0.4974  1.5422 -0.1086
   35MOL    H5123239   1.848   4.563   0.540  0.0116 -1.7414  2.4736
   35MOL    H5223240   1.673   4.806   0.622  1.1381 -0.3263  1.5770
   35MOL    H5323241   1.634   4.689   0.504 -1.0224  2.2602 -0.3101
   35MOL    H5423242   1.849   4.893   0.475  1.5643 -1.9944  0.4832
   35MOL    H5523243   1.860   4.749   0.393  1.3612 -1.6005  2.3834
   35MOL    H5623244   1.644   4.952   0.373  2.1409  0.5076  1.0964
   35MOL    H5723245   1.631   4.804   0.282  0.5991  1.3001 -2.1572
   35MOL    H5823246   1.872   4.858   0.170 -0.2045 -0.5776  1.1395
   35MOL    H5923247   1.855   5.002   0.255 -0.9039 -0.0473 -0.0989
   35MOL    H6023248   1.650   4.901   0.056  0.5326 -1.0540  0.2556
   35MOL    H6123249   1.653   5.061   0.102 -0.2523  0.2555 -0.1135
   35MOL    H6223250   1.897   4.962   7.661 -1.1374  0.1274 -2.5433
   35MOL    H6323251   1.861   5.117   0.017  0.2608 -0.1861  0.8526
   35MOL    H6423252   1.685   4.994   7.510  0.5063 -0.4718 -1.0571
   35MOL    H6523253   1.647   5.131   7.600 -0.1964 -0.0554  0.9913
   35MOL    H6623254   1.759   5.130   7.375  0.2909  3.3878 -0.6762
   35MOL    H6723255   1.907   5.079   7.429  0.0269 -1.8844  2.0385
   35MOL    H6823256   1.927   5.306   7.399  0.8697 -0.5037  0.0343
   35MOL    H6923257   1.916   5.299   7.585 -0.2583  3.2443 -0.5756
   35MOL    N7023258   1.694   5.415   7.365 -0.0643  0.6273 -0.8897
   35MOL    C7123259   1.596   5.517   7.342  0.0885 -0.4181 -0.4787
   35MOL    C7223260   1.677   5.644   7.312  0.3900 -0.1453  0.1845
   35MOL    C7323261   1.589   5.755   7.244  0.0265  0.1440 -0.0203
   35MOL    C7423262   1.672   5.886   7.230  0.4037 -0.0102  0.0859
   35MOL    C7523263   1.671   5.978   7.354  0.1886 -0.0494 -0.0329
   35MOL    C7623264   1.722   6.115   7.334 -0.6364 -0.8341 -0.2831
   35MOL    C7723265   1.712   6.196   7.461  0.6953  0.4452 -0.6073
   35MOL    C7823266   1.692   6.348   7.432 -0.3194 -0.3260  0.1568
   35MOL    C7923267   1.634   6.437   7.547  0.4374 -0.3767 -0.3470
   35MOL    C8023268   1.738   6.442   7.658  0.3429  0.0420  0.5273
   35MOL    C8123269   1.684   6.493   0.077 -0.1425  0.1667 -0.3594
   35MOL    O8223270   1.563   6.493   0.089  0.0160  0.1381 -0.0314
   35MOL    H8323271   1.717   5.355   7.287 -0.3099  0.6895 -1.0085
   35MOL    H8423272   1.541   5.499   7.250  1.2327 -2.1957 -0.8457
   35MOL    H8523273   1.530   5.529   7.427  2.2175 -1.3765  1.3501
   35MOL    H8623274   1.754   5.618   7.240  0.2901  0.0314  0.0143
   35MOL    H8723275   1.730   5.678   7.401 -0.7346  1.7897  0.1537
   35MOL    H8823276   1.549   5.709   7.153  0.5945 -0.4228  0.0164
   35MOL    H8923277   1.496   5.772   7.298  1.8093  0.7389  2.9341
   35MOL    H9023278   1.622   5.944   7.153 -1.1460 -1.7864 -0.2890
   35MOL    H9123279   1.775   5.867   7.201  0.9993  0.2250  1.9393
   35MOL    H9223280   1.736   5.934   7.430 -0.5145 -1.6766 -0.3395
   35MOL    H9323281   1.571   5.978   7.399 -0.3878 -0.3091 -1.2924
   35MOL    H9423282   1.825   6.107   7.297 -0.7433 -1.5064 -0.4577
   35MOL    H9523283   1.669   6.165   7.253  1.8142 -2.5741 -3.0845
   35MOL    H9623284   1.790   6.173   7.533  1.2780  1.1581 -0.9996
   35MOL    H9723285   1.621   6.166   7.512  1.4151  0.1628  0.5077
   35MOL    H9823286   1.783   6.393   7.394 -0.1684  0.1332  1.0544
   35MOL    H9923287   1.625   6.359   7.346 -2.0980 -0.4156  1.4833
   35MOL   H10023288   1.542   6.390   7.583  1.8830 -2.3664  0.8605
   35MOL   H10123289   1.599   6.533   7.511 -0.2771 -0.7463 -0.6400
   35MOL   H10223290   1.828   6.495   7.624 -0.0248 -0.1892 -0.8166
   35MOL   H10323291   1.781   6.344   7.679  0.9368  0.1621 -0.1064
   35MOL   N10423292   1.773   6.545   0.163 -0.1652 -0.1328  0.2455
   35MOL   C10523293   1.741   6.626   0.289 -0.4875  0.1607  0.4268
   35MOL   C10623294   1.661   6.535   0.389  0.4035 -0.1741  0.5334
   35MOL   C10723295   1.626   6.604   0.522 -0.4689  0.2558 -0.2100
   35MOL   C10823296   1.523   6.528   0.612  0.7891  0.7384 -0.1612
   35MOL   C10923297   1.453   6.614   0.720  0.4730 -0.3413  0.2347
   35MOL   C11023298   1.352   6.524   0.804  0.2045 -0.2330 -0.3858
   35MOL   C11123299   1.417   6.450   0.918 -0.5519 -0.1487  0.1350
   35MOL   C11223300   1.447   6.532   1.042 -0.0135 -0.4041  0.3509
   35MOL   C11323301   1.525   6.447   1.143  0.2786 -0.4553  0.1560
   35MOL   C11423302   1.552   6.504   1.273 -0.5040 -0.3076  0.0896
   35MOL   C11523303   1.679   6.587   1.294 -0.5228 -0.5642 -0.2112
   35MOL   O11623304   1.787   6.545   1.253 -0.2479 -0.0618  0.3192
   35MOL   H11723305   1.869   6.540   0.133 -0.8470 -0.9517 -1.8909
   35MOL   H11823306   1.836   6.643   0.341  0.4440 -1.2477 -0.7870
   35MOL   H11923307   1.699   6.721   0.257  1.0914  0.1555 -1.7732
   35MOL   H12023308   1.714   6.443   0.415  0.6696  0.3908  2.0389
   35MOL   H12123309   1.567   6.506   0.344  0.8338  1.0202 -1.1689
   35MOL   H12223310   1.713   6.623   0.585 -1.3662  3.1861  0.1990
   35MOL   H12323311   1.588   6.704   0.503 -1.5085  0.1482  1.2198
   35MOL   H12423312   1.563   6.435   0.655  0.1488  0.2578 -0.6034
   35MOL   H12523313   1.440   6.490   0.553 -1.2442  0.5445  2.6848
   35MOL   H12623314   1.390   6.693   0.678 -0.3217 -0.8889  0.3778
   35MOL   H12723315   1.523   6.663   0.787 -0.1711 -0.4617  0.9956
   35MOL   H12823316   1.268   6.587   0.832  0.6094  1.1363 -2.1537
   35MOL   H12923317   1.301   6.452   0.739 -2.8327 -0.7937  2.4934
   35MOL   H13023318   1.511   6.402   0.892  0.3827  1.5943  0.2255
   35MOL   H13123319   1.344   6.370   0.934  0.9621 -1.0947  2.7249
   35MOL   H13223320   1.513   6.613   1.012 -0.2881 -0.1486  0.4368
   35MOL   H13323321   1.359   6.585   1.079 -0.2034 -0.6504  0.2523
   35MOL   H13423322   1.612   6.415   1.086 -0.1112 -0.2721 -0.5475
   35MOL   H13523323   1.471   6.358   1.174  0.0792 -0.4754 -0.2382
   35MOL   H13623324   1.568   6.419   1.339  2.4739 -0.2851 -0.5090
   35MOL   H13723325   1.470   6.562   1.314  2.0906  3.0060  0.8094
   35MOL   N13823326   1.668   6.711   1.338  0.1643 -0.2523 -0.0207
   35MOL   C13923327   1.777   6.805   1.343  0.2697 -0.2585 -0.2172
   35MOL   C14023328   1.724   6.928   1.419 -0.7959  0.1589 -0.0185
   35MOL   C14123329   1.834   7.044   1.422  0.5272  0.8703  0.0272
   35MOL   C14223330   1.774   7.172   1.488  0.1886  0.2513 -0.2255
   35MOL   C14323331   1.845   7.311   1.462  0.8176 -0.3082 -0.1141
   35MOL   C14423332   1.761   7.426   1.526  0.2453 -0.1828  0.3201
   35MOL   C14523333   1.824   7.573   1.534  0.5615  0.0648 -1.1811
   35MOL   C14623334   1.946   7.587   1.631 -0.8218  0.0833 -0.1535
   35MOL   C14723335   2.032   7.714   1.611  0.2988  0.1696  0.3586
   35MOL   C14823336   2.162   0.001   1.701  0.7515 -0.8227 -0.3696
   35MOL   C14923337   2.190   0.134   1.751  0.7729  0.6295  0.1701
   35MOL   O15023338   2.179   0.233   1.675  0.6415 -0.4209 -0.5403
   35MOL   H15123339   1.582   6.743   1.378 -0.6964 -2.1276 -0.3322
   35MOL   H15223340   1.873   6.772   1.383  0.9487  2.1355  0.2088
   35MOL   H15323341   1.806   6.840   1.244  1.8058 -1.3053 -0.1562
   35MOL   H15423342   1.686   6.906   1.519  0.3872 -1.7061  0.0486
   35MOL   H15523343   1.638   6.961   1.361 -0.2500  1.1382 -0.2779
   35MOL   H15623344   1.925   7.010   1.473 -0.8207 -3.6637 -0.3788
   35MOL   H15723345   1.866   7.072   1.322 -3.3350 -0.5769 -1.7299
   35MOL   H15823346   1.772   7.156   1.596 -0.0454  0.0133 -0.2618
   35MOL   H15923347   1.668   7.180   1.462  0.0962  0.3298  0.1699
   35MOL   H16023348   1.874   7.329   1.359 -1.3705 -1.7129 -1.0129
   35MOL   H16123349   1.945   7.303   1.505  1.2061 -0.1797 -0.9950
   35MOL   H16223350   1.661   7.430   1.485 -0.9102 -0.7605  2.9689
   35MOL   H16323351   1.739   7.403   1.630  0.5116 -0.3377  0.3434
   35MOL   H16423352   1.742   7.642   1.551 -0.7318 -1.4407 -1.1877
   35MOL   H16523353   1.853   7.588   1.431 -2.1437 -1.8405 -2.2728
   35MOL   H16623354   1.906   7.599   1.731 -1.8163 -1.8923 -0.2756
   35MOL   H16723355   2.014   7.503   1.613 -0.8345 -0.0682  0.4872
   35MOL   H16823356   1.969   0.085   1.626  1.1881  0.8236  0.3933
   35MOL   H16923357   2.068   0.002   1.509  1.4346  0.8590  0.7739
   35MOL   H17023358   2.243   7.684   1.636  1.4567  1.7311 -0.8383
   35MOL   H17123359   2.151   7.655   1.790  0.8029  1.5253  1.3183
   35MOL   N17223360   2.252   0.143   1.868  0.6977 -0.4458  0.8855
   35MOL   C17323361   2.328   0.257   1.915  0.5229 -0.4298 -0.5216
   35MOL   C17423362   2.467   0.214   1.951  0.7372  0.3817 -0.5362
   35MOL   C17523363   2.536   0.331   2.025 -0.0464 -0.5134 -0.2360
   35MOL   C17623364   2.485   0.378   2.163 -0.1664  0.6352 -0.7039
   35MOL   C17723365   2.583   0.472   2.239 -0.0539 -0.0864  0.8559
   35MOL   C17823366   2.551   0.479   2.388 -0.3056 -0.2775  0.1076
   35MOL   C17923367   2.662   0.555   2.462  0.0149 -0.6052 -0.0082
   35MOL   C18023368   2.640   0.707   2.444 -0.6586  0.1631  0.0636
   35MOL   C18123369   2.714   0.795   2.542  0.1186  0.2686 -0.0857
   35MOL   C18223370   2.864   0.812   2.537 -0.3879 -0.0469 -0.0067
   35MOL   C18323371   2.922   0.866   2.409 -0.2998  0.2127 -0.2684
   35MOL   O18423372   2.846   0.906   2.317  0.3453 -0.5387  0.5768
   35MOL   H18523373   2.249   0.062   1.928  1.8654 -1.0188  0.1928
   35MOL   H18623374   2.326   0.329   1.833  0.0605  0.8665  0.6042
   35MOL   H18723375   2.279   0.318   1.991 -1.5440 -0.2017 -2.0095
   35MOL   H18823376   2.523   0.185   1.862  1.1347  0.3674 -0.2839
   35MOL   H18923377   2.464   0.126   2.015 -0.2024  0.7914 -0.0158
   35MOL   H19023378   2.642   0.306   2.023  0.0725 -0.0215 -0.0520
   35MOL   H19123379   2.533   0.419   1.960  2.5100 -0.8936 -0.9082
   35MOL   H19223380   2.449   0.292   2.221 -0.0058  1.2370  0.3079
   35MOL   H19323381   2.389   0.424   2.142 -1.0456 -1.7016 -2.0389
   35MOL   H19423382   2.579   0.573   2.197  0.5991 -0.9000 -1.2364
   35MOL   H19523383   2.683   0.429   2.227 -0.2301  0.0482 -1.4623
   35MOL   H19623384   2.453   0.524   2.400  0.0503  0.0927  1.6358
   35MOL   H19723385   2.558   0.376   2.422  0.6628  0.0555  0.8992
   35MOL   H19823386   2.758   0.521   2.423  0.2073  0.7853 -0.7822
   35MOL   H19923387   2.658   0.533   2.569  0.6413  0.1281  0.1764
   35MOL   H20023388   2.655   0.727   2.337 -0.0158 -1.3231 -0.1310
   35MOL   H20123389   2.533   0.718   2.461 -0.7896  1.3383 -1.3639
   35MOL   H20223390   2.700   0.741   2.635  2.7407  0.4601  0.4717
   35MOL   H20323391   2.665   0.892   2.533 -0.0457  0.3141  1.2240
   35MOL   H20423392   2.900   0.709   2.539 -1.7960 -0.5800 -1.1713
   35MOL   H20523393   2.902   0.859   2.628 -2.8206 -0.8691  1.4939
   35MOL   N20623394   3.052   0.878   2.385  0.2167 -0.0824 -0.3578
   35MOL   C20723395   3.113   0.904   2.253  0.1025 -0.1725  0.1235
   35MOL   C20823396   3.254   0.979   2.281 -0.3328 -0.0306 -0.2509
   35MOL   C20923397   3.326   1.008   2.152 -0.4209 -0.1399  0.2644
   35MOL   C21023398   3.452   1.090   2.170  0.7134 -0.2010 -0.4352
   35MOL   C21123399   3.515   1.141   2.038 -0.0088  0.0775  0.2911
   35MOL   C21223400   3.438   1.262   1.983  0.0890 -0.4615  0.1762
   35MOL   C21323401   3.511   1.339   1.869 -1.1670 -0.4686 -0.0665
   35MOL   C21423402   3.556   1.250   1.745 -0.4142  0.1444 -0.1362
   35MOL   C21523403   3.627   1.330   1.632  0.0833 -0.0572  0.0031
   35MOL   C21623404   3.529   1.425   1.563 -0.1666  0.2268  0.2040
   35MOL   C21723405   3.594   1.525   1.469 -0.3677  0.0320 -0.3336
   35MOL   O21823406   3.663   1.617   1.514 -0.7316  0.5290 -0.1675
   35MOL   H21923407   3.109   0.860   2.467 -1.1979 -1.1445  0.4277
   35MOL   H22023408   3.037   0.952   2.192  1.2126  1.3885 -0.0676
   35MOL   H22123409   3.138   0.807   2.212 -0.4019 -0.0780 -0.4150
   35MOL   H22223410   3.317   0.918   2.345 -0.0321  1.2651  0.6926
   35MOL   H22323411   3.237   1.074   2.330 -0.8055 -0.2840  0.0802
   35MOL   H22423412   3.355   0.916   2.102 -0.5056  0.1246 -0.2733
   35MOL   H22523413   3.266   1.062   2.079  0.9110  0.7833 -0.1599
   35MOL   H22623414   3.532   1.030   2.214 -0.3489 -1.4663 -0.2157
   35MOL   H22723415   3.425   1.166   2.244 -0.8518 -1.2349  0.0576
   35MOL   H22823416   3.520   1.057   1.969 -2.3547  0.8550 -0.8530
   35MOL   H22923417   3.617   1.166   2.068  0.8221 -0.0797 -2.3128
   35MOL   H23023418   3.339   1.236   1.944 -0.0228  1.1803 -0.6630
   35MOL   H23123419   3.425   1.330   2.067  0.5644  1.3789 -1.2177
   35MOL   H23223420   3.597   1.381   1.922  0.4768  0.5520 -3.4259
   35MOL   H23323421   3.458   1.432   1.848 -1.8587 -0.7373  0.4710
   35MOL   H23423422   3.630   1.178   1.781  0.3729  0.6117 -0.8012
   35MOL   H23523423   3.473   1.193   1.705 -0.0460 -0.9296  0.5937
   35MOL   H23623424   3.683   1.265   1.565  1.4402 -2.4163  3.2949
   35MOL   H23723425   3.702   1.393   1.680 -1.1003  0.3557  1.3545
   35MOL   H23823426   3.473   1.484   1.636 -1.8517 -2.5194  1.2053
   35MOL   H23923427   3.464   1.359   1.505  0.8818  0.0781 -0.8088
   35MOL   N24023428   3.566   1.516   1.339  0.5223  0.2465  0.0093
   35MOL   C24123429   3.651   1.585   1.239  0.6567 -0.5800  0.6223
   35MOL   C24223430   3.706   1.492   1.134 -0.5064 -0.2755 -0.0527
   35MOL   C24323431   3.803   1.386   1.196  0.0821  0.0227 -0.4435
   35MOL   C24423432   3.880   1.315   1.083  0.0214  0.0568 -0.1037
   35MOL   C24523433   3.999   1.228   1.126 -1.2393 -0.2395 -0.0543
   35MOL   C24623434   4.057   1.136   1.021 -0.0420  0.4667 -0.8498
   35MOL   C24723435   4.179   1.051   1.072 -0.2067  0.9254  0.4685
   35MOL   C24823436   4.255   0.967   0.963  0.0370  0.1002 -0.0618
   35MOL   C24923437   4.378   0.901   1.012 -0.5191 -0.2022 -0.2752
   35MOL   C25023438   4.367   0.820   1.144 -0.2952  0.1795  0.0737
   35MOL   C25123439   4.483   0.727   1.171 -0.2362 -0.2130  0.5221
   35MOL   O25223440   4.535   0.661   1.081  0.1470  0.0674  0.5284
   35MOL   H25323441   3.509   1.440   1.304  1.6755 -0.8298  0.4051
   35MOL   H25423442   3.725   1.658   1.273  0.3835 -0.8005  1.7069
   35MOL   H25523443   3.588   1.651   1.179  4.0428  1.2053 -1.1331
   35MOL   H25623444   3.751   1.550   1.053 -2.9643  1.9082  0.0795
   35MOL   H25723445   3.622   1.440   1.087 -1.0294  0.4060  0.1186
   35MOL   H25823446   3.884   1.430   1.254 -0.4526  0.7153 -0.2186
   35MOL   H25923447   3.751   1.314   1.259  1.4773  0.2250  0.9783
   35MOL   H26023448   3.917   1.387   1.009  0.3145  0.6627  0.6307
   35MOL   H26123449   3.815   1.244   1.032  1.4176 -0.4045 -1.2736
   35MOL   H26223450   3.978   1.150   1.199  2.2628 -0.3169  0.9579
   35MOL   H26323451   4.066   1.295   1.179 -0.4356 -1.7829  0.9087
   35MOL   H26423452   3.982   1.068   0.981  0.0714 -0.8149  1.0352
   35MOL   H26523453   4.084   1.188   0.929  0.9209  2.0893  0.3260
   35MOL   H26623454   4.147   0.984   1.151 -1.4167  2.2333  1.1112
   35MOL   H26723455   4.254   1.121   1.108  1.5476 -0.4866 -0.3457
   35MOL   H26823456   4.182   0.901   0.916 -0.1839 -0.1990  0.7053
   35MOL   H26923457   4.286   1.033   0.881  0.0377  0.4397  0.2091
   35MOL   H27023458   4.458   0.975   1.008  0.2960 -1.1005 -0.6609
   35MOL   H27123459   4.411   0.832   0.934  0.6662 -1.2248  1.1222
   35MOL   H27223460   4.281   0.753   1.136 -0.3137  0.3382 -1.2109
   35MOL   H27323461   4.349   0.890   1.225 -0.6621  2.1344 -1.6417
   35MOL   N27423462   4.512   0.717   1.300  0.3723  0.0061  0.4808
   35MOL   C27523463   4.642   0.666   1.347  0.2028 -0.1985  0.4684
   35MOL   C27623464   4.692   0.763   1.450 -0.7446  0.2027 -0.3753
   35MOL   C27723465   4.815   0.722   1.532  0.1875  0.0071 -0.2794
   35MOL   C27823466   4.847   0.829   1.639 -0.2255  0.0898 -0.8762
   35MOL   C27923467   4.946   0.934   1.594  0.4753  0.2792 -0.3374
   35MOL   C28023468   5.090   0.909   1.642  0.1415 -0.3521 -0.6387
   35MOL   C28123469   5.194   1.018   1.609 -0.4087 -0.2332  0.3185
   35MOL   C28223470   5.339   0.971   1.606  0.1735  0.6034 -0.2065
   35MOL   C28323471   5.437   1.054   1.526 -0.0653 -0.4594  0.4773
   35MOL   C28423472   5.470   1.197   1.584 -0.0818 -0.5908 -0.4232
   35MOL   C28523473   5.564   1.286   1.508 -0.0079  0.1851  0.3136
   35MOL   O28623474   5.582   1.257   1.388 -0.7712  1.1534  0.0422
   35MOL   H28723475   4.461   0.777   1.363  0.4051  0.5375  0.0102
   35MOL   H28823476   4.715   0.657   1.267  0.4477 -3.6484  1.0054
   35MOL   H28923477   4.625   0.566   1.386 -0.8782 -0.2845 -0.1931
   35MOL   H29023478   4.609   0.778   1.519 -1.4223  1.8287 -1.5166
   35MOL   H29123479   4.692   0.868   1.420 -2.5658  0.1026 -0.7711
   35MOL   H29223480   4.789   0.628   1.580 -1.8516  0.8391  0.2565
   35MOL   H29323481   4.900   0.712   1.464 -1.1001 -2.3172 -1.6007
   35MOL   H29423482   4.885   0.772   1.723  0.3608 -0.0491 -1.2336
   35MOL   H29523483   4.760   0.881   1.679 -0.6227 -1.0972 -0.1785
   35MOL   H29623484   4.906   1.030   1.628  1.2672  0.1977  0.8378
   35MOL   H29723485   4.953   0.938   1.485 -0.9407  2.1171 -0.3977
   35MOL   H29823486   5.084   0.888   1.749  1.2977  1.0327 -0.2840
   35MOL   H29923487   5.127   0.813   1.607 -1.9161 -1.5429  0.4080
   35MOL   H30023488   5.184   1.108   1.670  0.2427  0.0459  0.0132
   35MOL   H30123489   5.173   1.052   1.508  2.5088 -1.5771 -0.7911
   35MOL   H30223490   5.371   0.960   1.710 -0.9965  1.2322  0.2390
   35MOL   H30323491   5.351   0.870   1.566  1.4001  1.6536 -2.5630
   35MOL   H30423492   5.395   1.062   1.426  0.8059 -4.1314 -0.2655
   35MOL   H30523493   5.530   1.002   1.503 -0.3386 -1.7872  2.1817
   35MOL   H30623494   5.479   1.191   1.692  0.4792  1.2553 -0.3569
   35MOL   H30723495   5.377   1.253   1.581 -0.2040 -0.6726  1.5141
   35MOL   N30823496   5.618   1.390   1.569 -0.2427  0.2230  0.5035
   35MOL   C30923497   5.694   1.498   1.507  0.4297 -0.4639  0.0240
   35MOL   C31023498   5.589   1.606   1.491 -0.3907  0.2316  1.5746
   35MOL   C31123499   5.645   1.742   1.435 -0.6819 -0.1714  0.6612
   35MOL   C31223500   5.547   1.825   1.368 -0.1520 -0.3666  0.4480
   35MOL   C31323501   5.444   1.893   1.461 -0.2648  0.1507 -0.0014
   35MOL   C31423502   5.367   2.016   1.393 -0.1481 -0.1288  0.0846
   35MOL   C31523503   5.272   2.074   1.496  0.6170  0.4562 -0.4641
   35MOL   C31623504   5.149   1.989   1.524  0.2338  0.5892  0.0508
   35MOL   C31723505   5.062   2.064   1.627  0.1097 -0.3788  0.1908
   35MOL   C31823506   4.933   1.991   1.671 -0.1810  0.0742  1.3925
   35MOL   C31923507   4.956   1.879   1.776  0.0702  0.0141 -0.1822
   35MOL   O32023508   5.045   1.893   1.860  0.2599 -1.0429 -0.6161
   35MOL   H32123509   5.616   1.400   1.670 -1.1498 -0.5602  0.5712
   35MOL   H32223510   5.735   1.475   1.409 -0.1844 -1.0829 -0.0891
   35MOL   H32323511   5.771   1.524   1.579 -0.1503 -0.1373  0.5347
   35MOL   H32423512   5.532   1.619   1.584  0.2528  0.2034  1.9713
   35MOL   H32523513   5.512   1.566   1.424  0.2342  2.2323 -0.4223
   35MOL   H32623514   5.706   1.797   1.507  0.7502 -1.6555  0.6178
   35MOL   H32723515   5.714   1.720   1.355 -1.8891  1.3808 -0.8515
   35MOL   H32823516   5.504   1.782   1.277  0.9290  1.8565 -1.1322
   35MOL   H32923517   5.599   1.911   1.327 -2.9322  0.8207 -0.7486
   35MOL   H33023518   5.505   1.932   1.542  1.0838 -1.7444 -0.0722
   35MOL   H33123519   5.381   1.820   1.512  1.8797 -0.9479  1.1515
   35MOL   H33223520   5.437   2.083   1.344 -0.9884  0.0614 -0.8648
   35MOL   H33323521   5.308   1.973   1.312 -0.2302 -0.5549  0.3640
   35MOL   H33423522   5.237   2.177   1.494 -2.2801 -0.2488  4.3374
   35MOL   H33523523   5.330   2.090   1.586  0.4021 -0.8608 -0.0741
   35MOL   H33623524   5.091   1.968   1.434  0.0264  1.8045 -0.1128
   35MOL   H33723525   5.176   1.890   1.561 -1.2587  0.3165  0.4364
   35MOL   H33823526   5.034   2.158   1.580 -1.1782 -0.7062  0.3037
   35MOL   H33923527   5.118   2.095   1.716  1.1034  2.0129 -1.2195
   35MOL   H34023528   4.867   1.954   1.593  0.3951  1.6875  0.1230
   35MOL   H34123529   4.870   2.061   1.727 -1.1865  2.0239 -2.0574
   35MOL   N34223530   4.886   1.769   1.764  0.5275  0.3673 -0.1079
   35MOL   C34323531   4.934   1.640   1.810  0.3029 -0.2534 -0.0840
   35MOL   C34423532   4.846   1.528   1.761  0.5595 -0.1661 -0.0534
   35MOL   C34523533   4.910   1.397   1.791  0.2356 -0.2164 -0.2169
   35MOL   C34623534   4.807   1.284   1.812  0.4888 -0.0321  0.2166
   35MOL   C34723535   4.868   1.166   1.888 -0.1749  0.0772 -0.1285
   35MOL   C34823536   4.768   1.066   1.933  0.0777  0.2318 -1.1379
   35MOL   C34923537   4.836   0.949   2.004 -0.5303 -0.2901  0.4940
   35MOL   C35023538   4.750   0.838   2.056  0.2037 -0.3733  0.3640
   35MOL   C35123539   4.828   0.703   2.072 -0.0255 -0.8133 -0.0511
   35MOL   C35223540   4.745   0.590   2.146  0.1917  0.1641  0.4530
   35MOL   C35323541   4.826   0.462   2.158  0.5819 -0.9034 -0.2459
   35MOL   O35423542   4.940   0.461   2.119  0.0969 -0.1940  0.0076
   35MOL   H35523543   4.794   1.784   1.724 -0.4129 -1.2486  1.3462
   35MOL   H35623544   5.033   1.636   1.764 -0.1062  1.0441 -1.0936
   35MOL   H35723545   4.940   1.630   1.918  1.2321 -0.6056 -0.1635
   35MOL   H35823546   4.811   1.542   1.658  0.0799 -3.0081 -0.3245
   35MOL   H35923547   4.764   1.544   1.831  0.6754 -4.1862  1.1360
   35MOL   H36023548   4.992   1.374   1.724 -1.5698 -0.1406 -2.5045
   35MOL   H36123549   4.981   1.409   1.873 -2.3084 -1.8936  2.3401
   35MOL   H36223550   4.760   1.250   1.719  2.9160 -0.9851 -0.7260
   35MOL   H36323551   4.726   1.319   1.875  0.8403  1.1493  0.0274
   35MOL   H36423552   4.924   1.195   1.976 -0.6839 -0.2652  0.3111
   35MOL   H36523553   4.947   1.117   1.830 -0.3033 -1.0361  0.6318
   35MOL   H36623554   4.706   1.107   2.013  0.1971 -1.1175 -0.3417
   35MOL   H36723555   4.706   1.039   1.848 -2.6064 -0.7772  1.0441
   35MOL   H36823556   4.899   0.991   2.083  1.8490 -1.7711 -0.5664
   35MOL   H36923557   4.903   0.905   1.930 -0.1985  0.1132  0.5502
   35MOL   H37023558   4.707   0.866   2.153  2.0138 -3.3853  2.1120
   35MOL   H37123559   4.668   0.823   1.986  0.8043 -1.5266 -0.0897
   35MOL   H37223560   4.920   0.730   2.126 -0.0562 -2.3789  0.8279
   35MOL   H37323561   4.852   0.661   1.974 -1.5380 -0.7173 -0.4727
   35MOL   H37423562   4.661   0.569   2.080  0.4398  1.0615 -0.1588
   35MOL   H37523563   4.718   0.626   2.245  0.0977  1.0623  0.1073
   35MOL   N37623564   4.767   0.357   2.214 -0.3467  0.2034 -0.4873
   35MOL   C37723565   4.801   0.221   2.211 -0.6216  0.1178  0.4179
   35MOL   C37823566   4.792   0.156   2.350  0.2785 -0.2113 -0.3489
   35MOL   C37923567   4.817   0.007   2.344 -0.5396 -0.3728  0.5483
   35MOL   C38023568   4.785   7.649   2.477  0.1797  0.8207  0.6545
   35MOL   C38123569   4.878   7.693   2.595 -0.4299  0.0888  0.4335
   35MOL   C38223570   4.814   7.696   2.733  0.4592 -0.0710 -0.1840
   35MOL   C38323571   4.926   0.009   2.842  0.2123 -0.4354 -0.0900
   35MOL   C38423572   4.863   0.028   2.976 -0.2479 -0.0845 -0.9444
   35MOL   C38523573   4.848   7.617   3.051 -0.4297 -0.3404 -0.0014
   35MOL   C38623574   4.799   7.648   3.192 -0.5220  0.0756  0.7565
   35MOL   C38723575   4.915   7.697   3.283  0.5911  0.0292 -0.1554
   35MOL   O38823576   5.025   7.653   3.284  0.1479 -0.1657 -0.3772
   35MOL   H38923577   4.671   0.369   2.243 -0.3266 -0.8479  0.0164
   35MOL   H39023578   4.736   0.170   2.140  0.1167 -0.1672 -0.0584
   35MOL   H39123579   4.905   0.218   2.178 -0.9828  0.0738 -0.7170
   35MOL   H39223580   4.701   0.185   2.402 -1.4172 -3.7213 -1.1771
   35MOL   H39323581   4.864   0.208   2.414  1.1897 -0.4905 -1.1258
   35MOL   H39423582   4.781   7.676   2.253  1.5307  0.2127 -0.6153
   35MOL   H39523583   4.926   7.714   2.335 -0.6179 -1.5334  0.6581
   35MOL   H39623584   4.809   7.545   2.456 -0.2621  0.3052  2.6209
   35MOL   H39723585   4.677   7.653   2.490 -0.1872 -2.0372 -0.9319
   35MOL   H39823586   4.903   0.081   2.574 -0.6072 -0.0001 -0.2155
   35MOL   H39923587   4.970   7.635   2.593 -1.4483 -1.5373  0.1994
   35MOL   H40023588   4.734   0.053   2.721 -0.7558 -1.4786 -0.8656
   35MOL   H40123589   4.757   7.606   2.756 -0.9344  0.2490 -2.2126
   35MOL   H40223590   4.990   0.094   2.818  0.5584 -0.7495 -0.2803
   35MOL   H40323591   5.001   7.646   2.854  0.9686 -0.0328 -1.9493
   35MOL   H40423592   4.930   0.090   3.036  2.2282 -2.7368 -0.8531
   35MOL   H40523593   4.772   0.087   2.965 -0.4878 -0.5996 -1.7938
   35MOL   H40623594   4.943   7.562   3.052 -0.5973 -0.6275  1.3286
   35MOL   H40723595   4.785   7.547   2.996 -0.5440 -0.0869 -0.1913
   35MOL   H40823596   4.768   7.553   3.234 -0.0428  0.0259  0.9927
   35MOL   H40923597   4.718   0.004   3.177  0.7253  0.8300 -3.0232
   35MOL   N41023598   4.887   0.082   3.366 -0.2064 -0.1335 -0.5124
   35MOL   C41123599   4.972   0.139   3.466 -0.1121  0.8511  0.1276
   35MOL   C41223600   5.013   0.280   3.438  0.0227 -0.0658 -0.1665
   35MOL   C41323601   5.075   0.354   3.552  0.2335 -0.2747 -0.6139
   35MOL   C41423602   5.103   0.512   3.518  0.0070  0.3541  0.2156
   35MOL   C41523603   5.209   0.538   3.410  0.4023  1.2853  0.3138
   35MOL   C41623604   5.347   0.548   3.474  0.0565  0.1338  0.0985
   35MOL   C41723605   5.463   0.544   3.372  0.9893  0.2649  0.0525
   35MOL   C41823606   5.473   0.665   3.283  0.2263 -0.2723  0.1837
   35MOL   C41923607   5.491   0.799   3.357 -0.4606  0.4134  0.9701
   35MOL   C42023608   5.534   0.905   3.253 -0.7396  0.2743 -0.5412
   35MOL   C42123609   5.440   0.922   3.138  0.3994  0.0027  0.4156
   35MOL   O42223610   5.320   0.930   3.156 -0.1031  0.5796 -0.4469
   35MOL   H42323611   4.791   0.114   3.362  0.4523  1.9973  0.0024
   35MOL   H42423612   4.918   0.127   3.560 -1.5074  1.5308 -0.5755
   35MOL   H42523613   5.064   0.087   3.493 -0.0374  0.5403 -0.7013
   35MOL   H42623614   4.925   0.339   3.412  0.5362  0.9940  0.4475
   35MOL   H42723615   5.074   0.294   3.349  0.2444 -0.1138 -0.0212
   35MOL   H42823616   5.003   0.362   3.633  0.3345  1.2241 -0.6520
   35MOL   H42923617   5.163   0.301   3.587  0.6373 -0.4572 -1.8875
   35MOL   H43023618   5.136   0.557   3.611  0.3670  1.9343 -0.6663
   35MOL   H43123619   5.011   0.564   3.492  0.7797  1.2157 -0.8249
   35MOL   H43223620   5.192   0.622   3.342  0.4100 -1.2471 -2.9916
   35MOL   H43323621   5.212   0.458   3.335 -1.9443 -0.4712  2.0165
   35MOL   H43423622   5.347   0.631   3.544 -0.2087  1.5171 -1.5018
   35MOL   H43523623   5.361   0.460   3.537 -1.3127  0.6647  1.1888
   35MOL   H43623624   5.438   0.448   3.327 -0.6149  0.0852  1.2780
   35MOL   H43723625   5.560   0.534   3.421  0.6324 -0.8392  0.5553
   35MOL   H43823626   5.554   0.651   3.211  0.4773 -0.7802  0.5596
   35MOL   H43923627   5.386   0.667   3.217  0.7133 -0.6222 -0.4689
   35MOL   H44023628   5.564   0.787   3.437  0.1841 -1.6737  0.0990
   35MOL   H44123629   5.397   0.823   3.407 -1.6045 -1.0132 -0.4257
   35MOL   H44223630   5.627   0.863   3.213 -1.3887 -1.5149 -0.2325
   35MOL   H44323631   5.560   1.005   3.287  0.8448 -0.1093 -0.5712
   35MOL   N44423632   5.487   0.913   3.015  0.3508  0.1291 -0.6948
   35MOL   C44523633   5.408   0.933   2.893 -0.2540  0.3323 -0.7944
   35MOL   C44623634   5.468   1.052   2.811  0.3671 -0.5322  0.6060
   35MOL   C44723635   5.488   1.187   2.884 -0.2126  0.0763  0.2462
   35MOL   C44823636   5.614   1.265   2.843  0.6464  0.2702 -0.0648
   35MOL   C44923637   5.739   1.216   2.906 -0.1454 -0.3840 -0.3718
   35MOL   C45023638   5.755   1.267   3.049  0.1444  0.0897  0.1866
   35MOL   C45123639   5.892   1.226   3.108  0.6694  0.3966 -0.7201
   35MOL   C45223640   5.903   1.277   3.241  0.9275 -0.3766  0.2259
   35MOL   C45323641   6.038   1.252   3.303 -0.0850 -0.2387  0.3170
   35MOL   C45423642   6.062   1.306   3.448  0.2675  0.5198 -0.3883
   35MOL   C45523643   6.159   1.221   3.531  0.1913 -0.0819 -0.3901
   35MOL   O45623644   6.153   1.096   3.516 -0.3079  0.2330  0.0191
   35MOL   H45723645   5.585   0.890   3.002  0.2261 -1.0431  0.3808
   35MOL   H45823646   5.410   0.839   2.838  1.4222 -1.5902  2.4065
   35MOL   H45923647   5.304   0.960   2.913  0.4742  2.1578  0.6952
   35MOL   H46023648   5.384   1.063   2.742 -0.4570  0.6482  1.7628
   35MOL   H46123649   5.553   1.016   2.754  0.8261  0.1041  0.8938
   35MOL   H46223650   5.412   1.254   2.844  0.4408 -0.3544 -1.7771
   35MOL   H46323651   5.479   1.178   2.992  0.7759  0.2853  0.3495
   35MOL   H46423652   5.592   1.367   2.872 -0.4968 -0.4051  1.4745
   35MOL   H46523653   5.626   1.245   2.736  2.4164 -1.9064  0.5009
   35MOL   H46623654   5.822   1.241   2.840  1.1950 -2.7061  0.3687
   35MOL   H46723655   5.739   1.107   2.904  0.1291 -0.3855 -0.3181
   35MOL   H46823656   5.751   1.376   3.057  1.6480  0.1552  0.1584
   35MOL   H46923657   5.673   1.226   3.108 -0.1922 -0.7106 -0.8201
   35MOL   H47023658   5.977   1.255   3.046  0.2900 -1.1015 -1.9539
   35MOL   H47123659   5.892   1.118   3.121  3.4421  0.5271  0.8742
   35MOL   H47223660   5.890   1.384   3.256 -0.6790 -0.7006  1.2176
   35MOL   H47323661   5.826   1.235   3.305  0.3805  0.0837 -0.1314
   35MOL   H47423662   6.109   1.304   3.238 -0.2821  0.6894  0.8307
   35MOL   H47523663   6.057   1.147   3.279 -2.3085 -0.3044 -1.3281
   35MOL   H47623664   5.969   1.300   3.504  0.4146  0.2937 -0.1687
   35MOL   H47723665   6.091   1.411   3.448 -0.9330  0.8627  0.8189
   35MOL   N47823666   6.227   1.278   3.627  0.2001 -0.5906 -0.7512
   35MOL   C47923667   6.313   1.210   3.719  0.4768  0.3711  0.5280
   35MOL   C48023668   6.245   1.203   3.862  0.2903 -0.1565  0.7176
   35MOL   C48123669   6.112   1.129   3.870  0.1920  0.1396 -0.2017
   35MOL   C48223670   6.061   1.103   4.014  0.4442  0.4709 -0.1213
   35MOL   C48323671   6.143   0.998   4.091 -0.1493  0.6944  0.2307
   35MOL   C48423672   6.105   0.994   4.234  0.2530 -0.2800  0.2364
   35MOL   C48523673   6.172   0.886   4.312 -0.4855 -0.4210  0.6155
   35MOL   C48623674   6.091   0.863   4.445  0.7909 -0.2929 -0.0525
   35MOL   C48723675   6.108   0.725   4.503  0.1181 -0.3080  0.4358
   35MOL   C48823676   6.045   0.715   4.644  0.2220 -0.0160 -0.2542
   35MOL   C48923677   6.102   0.594   4.724  0.1300  0.0806 -0.0304
   35MOL   O49023678   6.218   0.561   4.704  0.4188  0.1378 -0.2420
   35MOL   H49123679   6.224   1.378   3.635 -2.4086 -0.7586  0.9419
   35MOL   H49223680   6.335   1.106   3.693 -0.8522 -0.2873  1.9513
   35MOL   H49323681   6.412   1.254   3.718  0.1519  1.2049  2.5460
   35MOL   H49423682   6.243   1.303   3.904 -1.0230  0.4741 -0.8107
   35MOL   H49523683   6.317   1.153   3.927  1.4037  0.4513 -0.0247
   35MOL   H49623684   6.033   1.177   3.812 -0.0560  0.8656  0.7199
   35MOL   H49723685   6.125   1.030   3.827 -2.8893  0.1405 -1.2900
   35MOL   H49823686   5.962   1.061   3.996  0.4907  0.2413  0.1636
   35MOL   H49923687   6.056   1.196   4.071 -0.5448  0.0477  0.4924
   35MOL   H50023688   6.248   1.022   4.078  0.4207 -1.7819 -0.1017
   35MOL   H50123689   6.130   0.904   4.037  3.5096  1.6563 -2.5173
   35MOL   H50223690   6.115   1.093   4.278  1.8874  0.8054 -2.4622
   35MOL   H50323691   5.996   0.986   4.233  0.1996  0.2957  1.0268
   35MOL   H50423692   6.274   0.907   4.343  0.1293 -1.7060 -0.4581
   35MOL   H50523693   6.175   0.795   4.252 -0.2990  0.7701 -1.2171
   35MOL   H50623694   6.101   0.935   4.526 -0.1278 -1.4369  1.1028
   35MOL   H50723695   5.984   0.878   4.429  0.8289  0.5300  0.4495
   35MOL   H50823696   6.215   0.708   4.518  0.4345  0.2191 -1.1582
   35MOL   H50923697   6.073   0.643   4.440 -2.7136  1.9035 -0.9985
   35MOL   H51023698   5.936   0.713   4.644  0.1464  2.1462  1.1965
   35MOL   H51123699   6.076   0.792   4.715 -0.5099 -0.2575  0.3365
   35MOL   N51223700   6.027   0.534   4.813  0.2567  0.2467 -0.7198
   35MOL   C51323701   6.066   0.443   4.917 -0.1786  0.3890  0.0453
   35MOL   C51423702   5.946   0.414   5.013 -0.2169 -0.2587 -0.1124
   35MOL   C51523703   5.988   0.301   5.105 -0.7272  0.4043  0.2996
   35MOL   C51623704   5.882   0.246   5.202 -1.0718 -0.1089 -0.5182
   35MOL   C51723705   5.784   0.139   5.132 -0.0122 -0.7483  0.3056
   35MOL   C51823706   5.696   0.071   5.237  0.2370  0.3185  0.5018
   35MOL   C51923707   5.606   0.167   5.318  0.4875  0.2629  0.0986
   35MOL   C52023708   5.541   0.087   5.427 -0.3552 -0.0196 -0.8589
   35MOL   C52123709   5.444   0.167   5.517  0.6553  0.4288  0.4218
   35MOL   C52223710   5.523   0.270   5.602 -0.4461 -0.3828 -0.2756
   35MOL   C52323711   5.421   0.362   5.686  0.4539  0.3103  0.8417
   35MOL   O52423712   5.313   0.390   5.638 -0.6519 -0.6525 -0.4048
   35MOL   H52523713   5.934   0.572   4.818  1.5626  3.3002  1.7746
   35MOL   H52623714   6.111   0.358   4.865  0.3026  1.1307 -0.7653
   35MOL   H52723715   6.143   0.480   4.984  0.1043  0.0295 -0.0786
   35MOL   H52823716   5.855   0.389   4.959  1.0422 -0.4696 -2.1817
   35MOL   H52923717   5.920   0.508   5.062  1.4453 -0.3760  1.0486
   35MOL   H53023718   6.021   0.213   5.049  0.3643 -0.7041  2.6123
   35MOL   H53123719   6.072   0.339   5.163  0.8929  1.3520 -2.5385
   35MOL   H53223720   5.838   0.328   5.259  1.2109  1.0334 -0.3562
   35MOL   H53323721   5.931   0.193   5.283  0.3167  0.9297 -0.6695
   35MOL   H53423722   5.843   0.071   5.071  1.9755  0.0749  1.2454
   35MOL   H53523723   5.709   0.193   5.075  0.8065 -0.1885 -0.2490
   35MOL   H53623724   5.633   7.708   5.196 -0.1896  0.9355 -0.0351
   35MOL   H53723725   5.767   0.017   5.300 -0.5614 -1.1497  0.1578
   35MOL   H53823726   5.536   0.212   5.247  1.9338  2.3101 -0.0720
   35MOL   H53923727   5.663   0.246   5.367 -1.3511 -0.1038  2.9702
   35MOL   H54023728   5.492   0.005   5.374  1.3045 -1.7879  0.2412
   35MOL   H54123729   5.621   0.043   5.487 -0.5367  0.6697 -0.1087
   35MOL   H54223730   5.386   0.102   5.582 -0.9578  1.3589 -0.0381
   35MOL   H54323731   5.373   0.223   5.455  1.6882  0.5422 -0.6805
   35MOL   H54423732   5.590   0.333   5.544  0.8110  2.2335  3.7975
   35MOL   H54523733   5.584   0.211   5.670  0.2724 -0.2108 -0.7670
   35MOL   N54623734   5.458   0.389   5.812  0.4796 -0.1842  0.0017
   35MOL   C54723735   5.406   0.485   5.910 -0.0601  0.2489 -0.7714
   35MOL   C54823736   5.258   0.494   5.915  0.2909  0.5422  0.3254
   35MOL   C54923737   5.207   0.580   6.027  0.2925 -0.3432 -0.1512
   35MOL   C55023738   5.053   0.612   6.000 -0.4440 -0.2017 -0.0377
   35MOL   C55123739   4.977   0.654   6.131  0.2011 -0.4867  0.7642
   35MOL   C55223740   4.827   0.674   6.106  0.7703  0.2632 -0.9890
   35MOL   C55323741   4.742   0.744   6.214  0.3197 -0.3853 -0.0806
   35MOL   C55423742   4.777   0.892   6.237  0.3377 -0.1827  0.1948
   35MOL   C55523743   4.694   0.963   6.348  0.0663 -0.2006 -0.1596
   35MOL   C55623744   4.726   1.114   6.368 -0.1668 -0.4274  0.3710
   35MOL   C55723745   4.708   1.200   6.240  0.5772  0.2223 -0.6646
   35MOL   O55823746   4.788   1.291   6.218  0.3257 -0.5078  0.8547
   35MOL   H55923747   5.551   0.359   5.838 -0.6932 -2.3108  1.8764
   35MOL   H56023748   5.456   0.454   6.002 -0.2906 -0.9088 -1.0293
   35MOL   H56123749   5.441   0.587   5.894  0.0729  0.0534 -1.7676
   35MOL   H56223750   5.211   0.397   5.932  1.8091 -0.7543 -2.4230
   35MOL   H56323751   5.213   0.539   5.827  0.5226 -0.6467 -0.4125
   35MOL   H56423752   5.205   0.523   6.120  0.9840  1.5409  1.0545
   35MOL   H56523753   5.253   0.675   6.054  0.4605 -0.8380  1.3685
   35MOL   H56623754   5.006   0.518   5.971 -0.0154 -0.5046  0.2423
   35MOL   H56723755   5.042   0.683   5.919  0.1107 -0.5643 -0.4334
   35MOL   H56823756   5.018   0.744   6.177 -0.3373  0.5240 -0.6791
   35MOL   H56923757   4.997   0.578   6.206 -0.1316 -1.2366  0.1041
   35MOL   H57023758   4.809   0.739   6.020 -1.1719  0.0199 -0.7729
   35MOL   H57123759   4.779   0.579   6.087 -1.7254  1.1470  0.6092
   35MOL   H57223760   4.735   0.681   6.302 -1.6989  1.1742  0.9131
   35MOL   H57323761   4.641   0.738   6.173  0.5247 -2.3529 -0.3238
   35MOL   H57423762   4.883   0.905   6.255  0.4860  0.2367 -0.9431
   35MOL   H57523763   4.748   0.952   6.151 -2.7687 -1.2871  0.4093
   35MOL   H57623764   4.711   0.913   6.443 -1.8128 -0.7687 -0.1074
   35MOL   H57723765   4.592   0.954   6.309  1.0738 -1.4102 -2.6543
   35MOL   H57823766   4.833   1.124   6.382 -0.0880 -0.5547 -0.1306
   35MOL   H57923767   4.681   1.164   6.454  0.0551 -1.1813  0.9387
   35MOL   N58023768   4.605   1.170   6.166  0.4278  0.2812 -0.3841
   35MOL   C58123769   4.551   1.240   6.053  0.0280  1.2839  0.0254
   35MOL   C58223770   4.436   1.160   5.976 -0.4979 -0.2340 -0.7721
   35MOL   C58323771   4.497   1.037   5.912  0.5824  0.9369 -0.4392
   35MOL   C58423772   4.394   0.934   5.859 -0.3935  0.0373  0.7195
   35MOL   C58523773   4.304   0.862   5.959  0.2821 -0.6918 -0.4621
   35MOL   C58623774   4.219   0.737   5.910 -0.3204 -0.2915 -0.1856
   35MOL   C58723775   4.144   0.678   6.030  0.1425 -0.0466 -0.7042
   35MOL   C58823776   4.075   0.545   5.984 -0.2485 -0.2074  0.3048
   35MOL   C58923777   3.981   0.485   6.087  0.0733  0.0730 -0.3909
   35MOL   C59023778   3.876   0.385   6.027  0.1459  0.1209 -0.6820
   35MOL   C59123779   3.810   0.289   6.130  0.6232 -0.4669 -0.6275
   35MOL   O59223780   3.877   0.240   6.221 -0.5564 -0.1304  0.0860
   35MOL   H59323781   4.546   1.103   6.213  0.7145  0.6352  0.4936
   35MOL   H59423782   4.525   1.339   6.091 -0.4371  1.1732 -0.0060
   35MOL   H59523783   4.637   1.266   5.991  2.4592 -1.5519  2.0486
   35MOL   H59623784   4.382   1.210   5.896 -2.8951  0.4766  1.2500
   35MOL   H59723785   4.370   1.135   6.059 -1.0515  2.4463 -0.3646
   35MOL   H59823786   4.567   1.062   5.833  0.7039  0.0455 -0.6230
   35MOL   H59923787   4.550   0.989   5.995 -0.8348  1.8197  0.9895
   35MOL   H60023788   4.442   0.846   5.818 -0.9079  0.2915 -0.4388
   35MOL   H60123789   4.337   0.983   5.780  1.1707 -0.2940 -0.6362
   35MOL   H60223790   4.233   0.936   5.996  2.0214  1.4702 -1.2964
   35MOL   H60323791   4.370   0.847   6.045  0.7156 -0.5336 -0.7633
   35MOL   H60423792   4.150   0.754   5.827 -1.6992  0.8333  1.1802
   35MOL   H60523793   4.286   0.658   5.875  0.7231  0.8887 -0.9034
   35MOL   H60623794   4.073   0.754   6.062 -0.2502 -0.9555  0.6356
   35MOL   H60723795   4.213   0.664   6.114  1.9561  0.2109 -2.1172
   35MOL   H60823796   4.023   0.567   5.890  1.2469 -0.9609 -0.7217
   35MOL   H60923797   4.144   0.464   5.960 -1.0350 -1.2722  1.5730
   35MOL   H61023798   3.922   0.557   6.143 -1.0739 -1.1770  0.0447
   35MOL   H61123799   4.027   0.421   6.162 -0.9865 -1.4851 -1.0284
   35MOL   H61223800   3.918   0.322   5.949 -0.3730 -1.6579  0.4333
   35MOL   H61323801   3.803   0.448   5.979 -0.3909  1.3879  1.7238
   35MOL   N61423802   3.677   0.261   6.129 -0.2428 -0.5496  0.6288
   35MOL   C61523803   3.586   0.313   6.029 -0.0874  0.1807 -0.2213
   35MOL   C61623804   3.507   0.439   6.075  0.3830 -0.9325 -0.8481
   35MOL   C61723805   3.390   0.467   5.988 -0.1996  0.9268 -0.1646
   35MOL   C61823806   3.305   0.572   6.067 -0.2713  0.0055  0.4258
   35MOL   C61923807   3.253   0.548   6.208  0.4368 -0.1805 -0.9189
   35MOL   C62023808   3.142   0.442   6.205  0.1514  0.2699  0.1909
   35MOL   C62123809   3.072   0.425   6.348 -0.2950  0.3876  0.3934
   35MOL   C62223810   2.946   0.335   6.341  0.0958 -0.0218  0.8856
   35MOL   C62323811   2.874   0.344   6.478 -0.4085 -0.2132 -0.5668
   35MOL   C62423812   2.744   0.258   6.472  0.0902 -0.4379 -0.1711
   35MOL   C62523813   2.625   0.338   6.433  0.1192  0.1417  0.2456
   35MOL   O62623814   2.595   0.342   6.312  0.2178 -0.3513 -0.3662
   35MOL   H62723815   3.636   0.200   6.198 -1.7383 -1.0973 -0.6833
   35MOL   H62823816   3.516   0.236   5.996  0.7200 -2.1253  3.1538
   35MOL   H62923817   3.640   0.324   5.935  0.7946 -2.4553 -0.0740
   35MOL   H63023818   3.582   0.518   6.080  0.2583 -0.7995 -1.1082
   35MOL   H63123819   3.477   0.422   6.178  0.2923 -1.2147 -0.9234
   35MOL   H63223820   3.414   0.505   5.889 -0.7830 -0.2165 -0.7423
   35MOL   H63323821   3.330   0.377   5.975  0.6900  0.2120  0.5984
   35MOL   H63423822   3.219   0.599   6.005  0.5891 -0.1867 -0.8707
   35MOL   H63523823   3.365   0.663   6.066  0.5258 -0.4850 -3.1411
   35MOL   H63623824   3.218   0.640   6.256 -2.0625 -1.4499 -0.2165
   35MOL   H63723825   3.323   0.513   6.284 -1.6713  1.1501  1.7328
   35MOL   H63823826   3.072   0.452   6.122  0.2900 -0.4644 -0.0169
   35MOL   H63923827   3.177   0.340   6.194  1.2687  0.6343  0.3657
   35MOL   H64023828   3.060   0.530   6.377  0.4390  0.0626  1.8936
   35MOL   H64123829   3.140   0.387   6.424  1.8282 -0.4999 -1.8872
   35MOL   H64223830   2.875   0.373   6.268  2.1678  1.0757 -0.6392
   35MOL   H64323831   2.968   0.232   6.315 -0.8645  0.5170 -2.2701
   35MOL   H64423832   2.849   0.445   6.508 -0.9290 -1.4456  3.3785
   35MOL   H64523833   2.951   0.304   6.543  0.6329 -0.9548 -2.2052
   35MOL   H64623834   2.728   0.204   6.566  0.6711  0.6797  0.5838
   35MOL   H64723835   2.756   0.181   6.396  0.0839  0.2364 -0.8649
   35MOL   N64823836   2.563   0.408   6.528  0.6697 -0.0047  1.1382
   35MOL   C64923837   2.459   0.504   6.507  0.2187 -0.5795  0.2805
   35MOL   C65023838   2.427   0.574   6.640  0.2111 -0.8488 -0.2896
   35MOL   C65123839   2.426   0.489   6.769 -0.1341  0.2517 -0.6467
   35MOL   C65223840   2.405   0.583   6.887  0.1667 -0.2987 -0.8024
   35MOL   C65323841   2.454   0.529   7.020 -1.0605 -0.3852  0.5635
   35MOL   C65423842   2.373   0.413   7.076 -0.6330 -0.4565 -0.4836
   35MOL   C65523843   2.398   0.363   7.225  0.0337  0.2697  0.7364
   35MOL   C65623844   2.515   0.263   7.240  0.5154 -0.1091  0.2927
   35MOL   C65723845   2.559   0.249   7.377 -0.4009 -0.2688 -0.2350
   35MOL   C65823846   2.697   0.186   7.391  0.9518  0.3430  0.1585
   35MOL   C65923847   2.811   0.285   7.389 -0.0246  0.4215 -1.0192
   35MOL   O66023848   2.813   0.370   7.300  0.0381 -0.6697 -0.3126
   35MOL   H66123849   2.597   0.398   6.623  1.2557  3.2253  1.3095
   35MOL   H66223850   2.367   0.462   6.465  1.2846 -0.7550 -1.9292
   35MOL   H66323851   2.494   0.581   6.439 -0.5129 -0.7278 -0.2741
   35MOL   H66423852   2.336   0.632   6.627  0.6705 -0.0244  0.1405
   35MOL   H66523853   2.499   0.656   6.652 -1.9337  1.0240  0.0561
   35MOL   H66623854   2.359   0.404   6.781  1.4347 -1.0788 -1.1141
   35MOL   H66723855   2.525   0.448   6.787 -0.7249 -1.6037 -1.4805
   35MOL   H66823856   2.297   0.595   6.895  0.2107 -0.6405  0.4383
   35MOL   H66923857   2.441   0.685   6.873  0.0887 -0.2059 -0.3112
   35MOL   H67023858   2.448   0.613   7.089 -0.6570 -0.3326  0.5334
   35MOL   H67123859   2.561   0.512   7.012 -1.0400 -0.6515  1.3563
   35MOL   H67223860   2.269   0.444   7.067 -0.9835 -1.5580 -0.3042
   35MOL   H67323861   2.384   0.319   7.021  2.8375 -1.6644  2.0627
   35MOL   H67423862   2.308   0.307   7.252  0.0260  0.6700  1.5727
   35MOL   H67523863   2.406   0.447   7.295 -0.1160  1.0802 -0.2008
   35MOL   H67623864   2.479   0.163   7.215 -3.3660  0.6851  2.3775
   35MOL   H67723865   2.594   0.295   7.172 -0.2059  1.5935  0.2285
   35MOL   H67823866   2.483   0.191   7.429  0.2561  0.3090  1.3998
   35MOL   H67923867   2.551   0.342   7.434 -0.2993 -1.3151  1.4957
   35MOL   H68023868   2.702   0.107   7.316  2.0622 -0.4380  1.0209
   35MOL   H68123869   2.694   0.128   7.484 -1.0128  0.3108  0.0854
   35MOL   H68223870   2.881   0.262   7.469 -1.2075 -0.0957 -0.1329
   36MOL     N123871   2.214   6.301   7.643  0.6132  0.3526 -0.7941
   36MOL     C223872   2.200   6.378   7.518 -0.9265  0.6972 -0.1534
   36MOL     C323873   2.099   6.305   7.433  0.4915  0.5021 -0.4887
   36MOL     C423874   2.120   6.371   7.297  0.4773 -0.5592  0.2712
   36MOL     C523875   2.025   6.328   7.188 -0.2340  0.2633 -0.3897
   36MOL     C623876   2.052   6.179   7.138  0.3125 -0.3277 -0.2902
   36MOL     C723877   1.960   6.123   7.026 -0.0634  0.0895  0.3259
   36MOL     C823878   1.996   5.978   6.997  0.5278  0.1224  0.1961
   36MOL     C923879   1.934   5.914   6.875 -0.5134  0.4547  0.8172
   36MOL    C1023880   1.777   5.913   6.878 -0.0300 -0.6451  0.7885
   36MOL    C1123881   1.710   5.835   6.770  0.4120 -0.2955 -0.6338
   36MOL    C1223882   1.561   5.798   6.805 -0.6191  0.7768  0.1865
   36MOL    O1323883   1.498   5.866   6.887 -1.1733  0.2553 -0.7438
   36MOL    H1423884   2.283   6.348   7.701 -0.3119  0.3087  0.3470
   36MOL    H1523885   2.299   6.382   7.472 -0.0223  0.4537  1.6827
   36MOL    H1623886   2.167   6.481   7.517  0.2561  1.0753 -2.0249
   36MOL    H1723887   2.002   6.320   7.478  1.2737 -0.0225  1.4105
   36MOL    H1823888   2.130   6.200   7.426 -0.8096 -0.0572  1.7854
   36MOL    H1923889   2.119   6.480   7.300 -0.7525 -0.4797 -1.7966
   36MOL    H2023890   2.218   6.340   7.263 -0.3456 -2.6838 -0.2592
   36MOL    H2123891   2.039   6.391   7.101 -0.3958  2.9237  1.4374
   36MOL    H2223892   1.920   6.332   7.220  0.4121 -0.4319  1.9302
   36MOL    H2323893   2.043   6.116   7.227 -0.7242  1.3579  0.8271
   36MOL    H2423894   2.157   6.157   7.119  0.3330 -0.4565 -0.0247
   36MOL    H2523895   1.855   6.121   7.057  0.2485  1.0577  1.5093
   36MOL    H2623896   1.978   6.190   6.942  1.0652  0.6455  1.0010
   36MOL    H2723897   1.981   5.917   7.086  0.9249 -0.3311 -0.0447
   36MOL    H2823898   2.102   5.974   6.975  0.3838  1.8260 -0.9703
   36MOL    H2923899   1.963   5.971   6.786  3.2391 -1.2305  0.9005
   36MOL    H3023900   1.984   5.818   6.881 -0.5744  0.4383  1.0427
   36MOL    H3123901   1.739   6.015   6.868 -0.1996 -0.5880  1.9939
   36MOL    H3223902   1.750   5.872   6.975  0.6372 -0.7607  0.9287
   36MOL    H3323903   1.765   5.742   6.756  0.6421 -0.2238 -0.2174
   36MOL    H3423904   1.715   5.894   6.678  0.3725  1.6160  0.5683
   36MOL    H3523905   2.255   6.211   7.623  1.5939  0.4525  0.6465
   36MOL    N3623906   1.511   5.700   6.735 -0.0669  0.3843  0.3458
   36MOL    C3723907   1.379   5.640   6.746  0.7101 -0.4172  0.2832
   36MOL    C3823908   1.269   5.706   6.647  0.5229  0.2149 -0.1806
   36MOL    C3923909   1.117   5.671   6.669 -0.0771  0.1103  0.6018
   36MOL    C4023910   1.026   5.770   6.584  0.1667  0.2599 -0.0074
   36MOL    C4123911   0.883   5.781   6.638 -0.3058  0.7312  0.0430
   36MOL    C4223912   0.793   5.864   6.546  0.3623  0.0903  0.1647
   36MOL    C4323913   0.830   6.013   6.546 -0.0118  0.7385  0.3195
   36MOL    C4423914   0.725   6.109   6.486  0.5344  0.2353  0.2383
   36MOL    C4523915   0.707   6.098   6.334  0.5487  0.1794 -0.5501
   36MOL    C4623916   0.597   6.195   6.286  0.0983  0.0474 -0.1986
   36MOL    C4723917   0.571   6.198   6.140 -0.1682  0.2785  0.2271
   36MOL    O4823918   0.652   6.212   6.050 -0.2279 -0.0855  0.0967
   36MOL    H4923919   1.580   5.665   6.671  0.9765  0.7714  1.2519
   36MOL    H5023920   1.364   5.533   6.733  1.7378 -0.8085  2.1617
   36MOL    H5123921   1.351   5.664   6.849 -1.5909 -0.4371 -0.2957
   36MOL    H5223922   1.301   5.680   6.546  1.4444 -1.6192  0.5616
   36MOL    H5323923   1.283   5.813   6.660 -1.4731  0.5874 -0.8655
   36MOL    H5423924   1.096   5.566   6.652 -2.1847  1.1313 -3.9457
   36MOL    H5523925   1.093   5.688   6.773  2.5660 -1.5375  1.5308
   36MOL    H5623926   1.033   5.739   6.480  0.2115 -1.3391  0.4594
   36MOL    H5723927   1.068   5.870   6.574  1.0707 -0.3192 -2.2498
   36MOL    H5823928   0.884   5.835   6.733 -1.4736  0.4685  0.2189
   36MOL    H5923929   0.836   5.686   6.661  3.1740 -0.5866  2.0135
   36MOL    H6023930   0.801   5.818   6.448 -1.1973  1.1258 -0.4674
   36MOL    H6123931   0.692   5.848   6.584  0.6038 -3.3755 -0.5420
   36MOL    H6223932   0.928   6.035   6.504  0.3748  2.5554  2.0947
   36MOL    H6323933   0.837   6.036   6.653 -1.2756 -0.2730  0.6402
   36MOL    H6423934   0.640   6.084   6.549  0.3987  2.6532  1.0408
   36MOL    H6523935   0.736   6.214   6.511 -1.1017  0.0088  1.9711
   36MOL    H6623936   0.679   5.994   6.317 -1.3822  0.4739  0.6684
   36MOL    H6723937   0.807   6.127   6.302  0.7415 -0.3661 -0.4399
   36MOL    H6823938   0.626   6.292   6.325  0.2204 -0.1000  0.0859
   36MOL    H6923939   0.507   6.173   6.343  0.6173  2.1003  1.4734
   36MOL    N7023940   0.444   6.166   6.107 -0.5083 -0.5112 -0.1020
   36MOL    C7123941   0.369   6.165   5.977  0.4089  0.3589 -0.5265
   36MOL    C7223942   0.330   6.301   5.928 -0.1639 -0.0704  0.2092
   36MOL    C7323943   0.220   6.303   5.824 -0.1172 -0.0959  1.1659
   36MOL    C7423944   0.196   6.449   5.775  0.2278  0.0457  0.6899
   36MOL    C7523945   0.143   6.555   5.882  0.6215 -0.0351 -0.2126
   36MOL    C7623946   0.026   6.504   5.962 -0.3604 -0.1652 -0.7774
   36MOL    C7723947   0.010   6.571   6.103 -0.5082  0.3352 -0.0648
   36MOL    C7823948   7.624   6.511   6.208 -0.5312  0.5935  0.1188
   36MOL    C7923949   7.617   6.612   6.328  0.4688  0.7482  0.5100
   36MOL    C8023950   7.539   6.546   6.451 -0.5185  0.2664 -0.1742
   36MOL    C8123951   7.625   6.464   6.554  0.1335  0.4438  0.2077
   36MOL    O8223952   0.025   6.494   6.571 -0.2595  0.4668  0.4431
   36MOL    H8323953   0.396   6.124   6.185 -0.8332  1.6986  0.9354
   36MOL    H8423954   0.424   6.112   5.900  1.9913 -1.0636  1.5117
   36MOL    H8523955   0.289   6.097   6.010  1.7136 -0.6949  0.5256
   36MOL    H8623956   0.412   6.362   5.890 -1.9186  0.6861 -2.5865
   36MOL    H8723957   0.283   6.345   6.016  2.4079  2.0918  0.5296
   36MOL    H8823958   0.244   6.236   5.741  4.6290  0.7730  1.6914
   36MOL    H8923959   0.128   6.265   5.868 -0.7405 -0.0225 -0.0716
   36MOL    H9023960   0.124   6.445   5.693  0.8774 -0.1162  0.1248
   36MOL    H9123961   0.284   6.480   5.719  0.2810 -0.1782  0.6498
   36MOL    H9223962   0.121   6.656   5.847  3.2001  0.2611 -1.0901
   36MOL    H9323963   0.217   6.579   5.958 -1.3293 -0.0074  1.7264
   36MOL    H9423964   7.656   6.522   5.897 -1.4363  0.4476  0.7658
   36MOL    H9523965   0.015   6.398   5.984 -0.1120  0.1092  0.7796
   36MOL    H9623966   0.000   6.679   6.101  0.5917  0.4877  1.7444
   36MOL    H9723967   0.106   6.554   6.151 -1.3833 -0.9997  1.2435
   36MOL    H9823968   7.521   6.496   6.175 -0.8650  0.7213  1.0764
   36MOL    H9923969   7.664   6.419   6.250  0.2261  1.4027  1.2146
   36MOL   H10023970   7.546   6.692   6.307 -1.1700 -0.8389 -0.1650
   36MOL   H10123971   7.714   6.652   6.356  1.4082  1.9573 -4.1565
   36MOL   H10223972   7.460   6.483   6.411 -0.1533  0.1790 -0.7706
   36MOL   H10323973   7.488   6.623   6.508 -0.2234 -0.2229  0.7688
   36MOL   N10423974   7.568   6.352   6.611  0.2401 -0.3925  0.5906
   36MOL   C10523975   7.646   6.255   6.685 -0.4477  0.5692 -0.1647
   36MOL   C10623976   7.666   6.294   6.832 -0.3367 -0.1600  0.7112
   36MOL   C10723977   7.715   6.192   6.930  0.6942 -0.0413 -0.3804
   36MOL   C10823978   0.038   6.248   7.064 -0.2001  0.8790 -0.2539
   36MOL   C10923979   7.629   6.294   7.147 -0.1021  0.3439  0.7306
   36MOL   C11023980   7.676   6.353   7.283  0.1672 -0.3329 -0.4686
   36MOL   C11123981   7.563   6.440   7.347 -0.2086  0.6512  0.2975
   36MOL   C11223982   7.634   6.531   7.442  0.0166 -0.3713  0.1508
   36MOL   C11323983   7.544   6.637   7.503  0.6790  0.1788 -0.2169
   36MOL   C11423984   7.614   6.763   7.551 -0.0249  0.8304  0.4804
   36MOL   C11523985   7.669   6.753   7.695  0.0195  0.2780 -0.0651
   36MOL   O11623986   7.688   6.646   0.039 -0.9271  0.1440  0.2398
   36MOL   H11723987   7.474   6.322   6.586 -0.1572 -0.0548  1.6646
   36MOL   H11823988   7.599   6.157   6.686 -0.7894  0.7352  0.5105
   36MOL   H11923989   0.028   6.233   6.642 -0.8502 -1.1117 -0.2528
   36MOL   H12023990   7.574   6.342   6.865 -1.2607 -0.5084 -1.2528
   36MOL   H12123991   0.023   6.375   6.832 -0.7761  0.2448  0.2268
   36MOL   H12223992   7.647   6.108   6.947  1.6784 -0.7792 -0.0458
   36MOL   H12323993   0.091   6.154   6.885  0.8822 -1.8166  1.4469
   36MOL   H12423994   0.111   6.328   7.056 -0.1283  0.7037 -1.3681
   36MOL   H12523995   0.089   6.174   7.126 -5.0713 -2.3998  0.1104
   36MOL   H12623996   7.571   6.205   7.168  3.3871 -1.9258  1.2582
   36MOL   H12723997   7.573   6.364   7.085  1.9834 -0.5200 -2.2229
   36MOL   H12823998   7.713   6.281   7.355  0.7848  0.8938  0.4697
   36MOL   H12923999   0.051   6.409   7.258  0.3949 -0.9169 -0.9804
   36MOL   H13024000   7.494   6.368   7.390 -0.4033  0.8446  0.3117
   36MOL   H13124001   7.510   6.495   7.269  0.4877  2.5198  1.1034
   36MOL   H13224002   7.675   6.477   7.527 -0.5818 -1.9184 -0.5217
   36MOL   H13324003   7.710   6.589   7.389 -0.4152  0.7361  0.7147
   36MOL   H13424004   7.472   6.610   7.580  1.9518  0.9981  1.3001
   36MOL   H13524005   7.477   6.670   7.424  0.4956  2.0073  0.6622
   36MOL   H13624006   7.539   6.841   7.549 -0.5174  0.3481  0.2444
   36MOL   H13724007   7.704   6.792   7.497  1.6899 -3.7383  0.6341
   36MOL   N13824008   7.696   6.870   0.032  0.7267 -0.3731 -0.3551
   36MOL   C13924009   0.046   6.881   0.165 -0.1517 -0.5174 -0.1995
   36MOL   C14024010   7.658   6.910   0.276  0.7232 -0.1145  0.3480
   36MOL   C14124011   0.010   6.900   0.411 -0.5613  0.0894  0.1751
   36MOL   C14224012   7.647   6.958   0.528  0.3022 -0.2047  0.7776
   36MOL   C14324013   7.699   6.905   0.661 -0.1610  0.0510 -0.1997
   36MOL   C14424014   7.627   6.953   0.794 -0.0998  0.1563 -0.3044
   36MOL   C14524015   7.683   6.894   0.924  0.4550 -0.5779  0.6075
   36MOL   C14624016   7.610   6.930   1.049  0.0913  0.3029  0.4025
   36MOL   C14724017   7.665   7.063   1.098  0.3137  0.6103  0.5686
   36MOL   C14824018   7.635   7.097   1.248  0.3835  0.0587  0.2752
   36MOL   C14924019   7.494   7.159   1.265 -0.0192  0.3879 -0.4379
   36MOL   O15024020   7.397   7.122   1.194  0.0960  0.3946  0.1245
   36MOL   H15124021   7.674   6.955   7.698 -1.0011 -0.9846 -0.6623
   36MOL   H15224022   0.117   6.801   0.186  0.4110 -0.3240 -1.3404
   36MOL   H15324023   0.112   6.967   0.154  1.4054 -1.5434  0.8853
   36MOL   H15424024   7.578   6.840   0.254 -0.0893  0.7588  0.5073
   36MOL   H15524025   7.612   7.008   0.265 -1.4270 -1.0294  1.0163
   36MOL   H15624026   0.038   6.795   0.418 -0.0708  0.1203 -1.1656
   36MOL   H15724027   0.098   6.961   0.394 -1.4679  0.8735 -1.9706
   36MOL   H15824028   7.550   6.908   0.523  1.5572 -2.4480 -2.0971
   36MOL   H15924029   7.638   7.067   0.529 -0.0359 -0.2373  1.6605
   36MOL   H16024030   0.089   6.932   0.657 -0.1303 -0.2405 -3.4347
   36MOL   H16124031   7.702   6.796   0.659 -2.2795 -0.0560 -3.7188
   36MOL   H16224032   7.637   7.061   0.804  2.3317 -0.0287 -0.3090
   36MOL   H16324033   7.521   6.933   0.783 -0.0355 -0.3488 -0.0161
   36MOL   H16424034   0.074   6.905   0.941  0.2126 -0.3863  2.1352
   36MOL   H16524035   7.669   6.787   0.910 -0.6081 -0.5641  1.4488
   36MOL   H16624036   7.506   6.951   1.025  0.2952  0.4604 -0.3602
   36MOL   H16724037   7.623   6.863   1.134  0.2694 -1.1315 -0.7426
   36MOL   H16824038   7.618   7.146   1.046  0.0972  0.5492  0.6659
   36MOL   H16924039   0.057   7.068   1.083  0.3419 -1.4539 -0.0428
   36MOL   H17024040   7.712   7.172   1.269 -0.4003  0.6950  0.8577
   36MOL   H17124041   7.654   7.014   1.316 -1.3369 -0.4740  0.1262
   36MOL   N17224042   7.477   7.262   1.349 -0.7831 -0.1261 -0.0030
   36MOL   C17324043   7.358   7.338   1.382  0.0323 -0.7034  0.2576
   36MOL   C17424044   7.363   7.465   1.303  0.4400  0.5839 -0.6171
   36MOL   C17524045   7.245   7.557   1.345 -0.3924  0.0428 -0.2483
   36MOL   C17624046   7.247   7.681   1.264 -0.1187  0.1897  0.6785
   36MOL   C17724047   7.337   0.071   1.318  0.2447  0.4433 -0.7868
   36MOL   C17824048   7.349   0.185   1.225  0.8661  0.1648  0.8063
   36MOL   C17924049   7.361   0.324   1.292  0.4737  0.0180 -0.5290
   36MOL   C18024050   7.277   0.430   1.207 -0.2971 -0.4693  0.2430
   36MOL   C18124051   7.283   0.573   1.274  0.4443 -0.0210  0.4998
   36MOL   C18224052   7.211   0.582   1.410  0.4054 -0.7439 -0.0813
   36MOL   C18324053   7.210   0.720   1.471  0.5249 -0.4033 -0.2314
   36MOL   O18424054   7.299   0.802   1.445  0.0462 -1.1681 -0.2289
   36MOL   H18524055   7.565   7.295   1.387 -0.9035 -0.9923  1.0843
   36MOL   H18624056   7.264   7.291   1.356  0.0341 -0.3577 -0.3655
   36MOL   H18724057   7.356   7.352   1.491  0.5447  2.4954 -0.0720
   36MOL   H18824058   7.363   7.448   1.195  2.0053  2.3585 -0.9174
   36MOL   H18924059   7.453   7.523   1.325  0.8611  0.0064 -0.8126
   36MOL   H19024060   7.157   7.494   1.336 -0.6667  0.2678  0.7348
   36MOL   H19124061   7.249   7.588   1.450  0.8481 -2.3845  0.4698
   36MOL   H19224062   7.146   0.004   1.277 -0.5389 -0.4832 -0.5122
   36MOL   H19324063   7.262   7.669   1.157  2.1782  1.0738  0.8772
   36MOL   H19424064   7.435   0.024   1.308 -0.0878 -0.1218 -1.4261
   36MOL   H19524065   7.323   0.101   1.422  0.8177 -1.3126 -0.1821
   36MOL   H19624066   7.435   0.161   1.164  1.3465  0.2720  1.4345
   36MOL   H19724067   7.268   0.194   1.153  0.2430 -1.4275  1.2859
   36MOL   H19824068   7.461   0.366   1.303 -1.5399  4.2694  2.9622
   36MOL   H19924069   7.314   0.322   1.391 -3.1131 -2.5027 -2.1987
   36MOL   H20024070   7.322   0.445   1.108 -0.2193 -1.0608  0.1876
   36MOL   H20124071   7.172   0.408   1.190 -0.2587 -1.6339  1.4798
   36MOL   H20224072   7.249   0.654   1.209 -0.4543  1.6843  3.0419
   36MOL   H20324073   7.388   0.601   1.287  0.3908  1.0233 -1.1401
   36MOL   H20424074   7.259   0.510   1.477  0.9097  1.3370  1.8644
   36MOL   H20524075   7.108   0.549   1.400 -0.7565  1.8381  2.6109
   36MOL   N20624076   7.109   0.747   1.555  0.8396 -0.5276 -0.1529
   36MOL   C20724077   7.087   0.874   1.610  0.1720  0.1904 -0.4251
   36MOL   C20824078   7.043   0.987   1.517 -0.7343  0.4610 -0.1319
   36MOL   C20924079   7.014   1.110   1.603  0.2584 -0.3368 -0.0446
   36MOL   C21024080   6.959   1.237   1.532  0.2557  0.3804  0.1388
   36MOL   C21124081   6.961   1.361   1.632  0.3429 -0.6909  0.0563
   36MOL   C21224082   6.923   1.492   1.564 -0.6021  0.1239  0.3315
   36MOL   C21324083   6.948   1.614   1.650  0.7266 -0.5220  0.3286
   36MOL   C21424084   6.918   1.744   1.587  0.2472  0.4239 -0.5209
   36MOL   C21524085   6.954   1.864   1.682 -0.1745 -0.0959  0.0689
   36MOL   C21624086   6.881   1.991   1.665 -0.7740  0.1965  0.2725
   36MOL   C21724087   6.883   2.046   1.518 -0.5726  0.0339  0.2392
   36MOL   O21824088   6.984   2.091   1.460 -0.3759 -0.0007 -0.0415
   36MOL   H21924089   7.048   0.667   1.565  1.6136 -1.2360 -0.9468
   36MOL   H22024090   7.171   0.904   1.672 -0.6079  0.0660  0.7043
   36MOL   H22124091   7.013   0.849   1.687  1.8787  1.4139  1.6433
   36MOL   H22224092   6.955   0.962   1.459  0.1251 -2.2066 -0.3730
   36MOL   H22324093   7.120   1.022   1.447 -0.5785 -2.3633 -1.4295
   36MOL   H22424094   6.944   1.084   1.682 -0.8315  0.0933 -0.8543
   36MOL   H22524095   7.104   1.135   1.659 -0.0548  0.8039 -0.0443
   36MOL   H22624096   6.865   1.224   1.477  0.4644  0.4853 -0.2418
   36MOL   H22724097   7.031   1.256   1.453 -0.8954 -2.1173 -1.5977
   36MOL   H22824098   7.061   1.386   1.669  0.3700  0.0792 -0.5157
   36MOL   H22924099   6.896   1.342   1.717  0.2343  1.0298  0.3698
   36MOL   H23024100   6.983   1.503   1.474 -0.3037 -0.1822  0.4906
   36MOL   H23124101   6.824   1.489   1.518  0.1698 -1.1779 -1.3069
   36MOL   H23224102   7.048   1.605   1.691  0.6019 -1.8663  0.3539
   36MOL   H23324103   6.878   1.616   1.734 -0.4210  0.0751 -0.6145
   36MOL   H23424104   6.971   1.751   1.491  0.2636 -0.2055 -0.5664
   36MOL   H23524105   6.810   1.739   1.573  0.1692 -0.1967  0.2318
   36MOL   H23624106   7.058   1.895   1.673 -0.2550 -0.0185 -0.5880
   36MOL   H23724107   6.942   1.838   1.787 -2.4161  3.0925  0.6583
   36MOL   H23824108   6.913   2.077   1.724  0.8556  0.6931 -1.3059
   36MOL   H23924109   6.777   1.967   1.688  0.0878 -1.1952  3.0033
   36MOL   N24024110   6.765   2.039   1.460  0.1334 -0.2143  0.7832
   36MOL   C24124111   6.722   2.101   1.339  0.2017  0.5876  0.2692
   36MOL   C24224112   6.582   2.048   1.299 -0.7712 -0.1188  0.2626
   36MOL   C24324113   6.522   2.091   1.172  0.3655 -0.1509 -1.3148
   36MOL   C24424114   6.612   2.160   1.063 -0.7837 -0.1952 -0.0414
   36MOL   C24524115   6.700   2.073   0.977  0.0684  0.2671  0.2100
   36MOL   C24624116   6.754   2.144   0.850 -0.3919 -0.2533  0.6610
   36MOL   C24724117   6.857   2.259   0.886 -0.1261 -0.2194 -0.1962
   36MOL   C24824118   6.788   2.395   0.896 -0.2578 -0.5889 -0.0633
   36MOL   C24924119   6.875   2.511   0.946  0.1408  0.1011  0.5983
   36MOL   C25024120   6.925   2.509   1.096  0.6308 -0.9546 -0.2178
   36MOL   C25124121   6.815   2.509   1.201 -0.5036  0.6962 -0.7365
   36MOL   O25224122   6.821   2.426   1.288 -0.0669 -0.1285 -0.4960
   36MOL   H25324123   6.686   2.026   1.522 -0.0315  1.2930  0.9162
   36MOL   H25424124   6.792   2.088   1.256 -0.4407  1.2177 -0.3801
   36MOL   H25524125   6.717   2.207   1.362  0.3030  1.0442 -1.7222
   36MOL   H25624126   6.517   2.056   1.386 -0.1063  1.3957  0.6330
   36MOL   H25724127   6.608   1.944   1.280  0.3274  0.0814  0.6542
   36MOL   H25824128   6.462   2.014   1.124  1.1075 -1.7330  0.2458
   36MOL   H25924129   6.446   2.166   1.196  0.9076 -0.3857  1.2371
   36MOL   H26024130   6.675   2.235   1.112 -1.6191  1.1394 -0.9666
   36MOL   H26124131   6.548   2.215   0.994  0.2541 -0.5737 -1.3262
   36MOL   H26224132   6.638   1.994   0.935 -1.9346  0.8571  1.9662
   36MOL   H26324133   6.781   2.032   1.037 -0.5336 -1.8627 -0.3720
   36MOL   H26424134   6.809   2.068   0.793 -0.8510 -0.3932  0.4083
   36MOL   H26524135   6.673   2.184   0.790  0.6325  0.5291 -0.2298
   36MOL   H26624136   6.923   2.266   0.799  0.9562  0.5778  0.6633
   36MOL   H26724137   6.917   2.241   0.975 -2.3318 -1.6868  1.0412
   36MOL   H26824138   6.752   2.417   0.796  0.0250  1.2234  0.2134
   36MOL   H26924139   6.694   2.397   0.951  0.4106  2.6331  1.0811
   36MOL   H27024140   6.799   2.589   0.947 -2.2516 -2.1552 -0.2188
   36MOL   H27124141   6.961   2.535   0.883  1.0490 -2.5903  0.7355
   36MOL   H27224142   6.980   2.600   1.121 -1.2430  0.4338 -0.9815
   36MOL   H27324143   6.986   2.421   1.115  2.4943  0.0974 -1.1972
   36MOL   N27424144   6.705   2.588   1.183 -0.3197 -0.4091  0.6786
   36MOL   C27524145   6.599   2.603   1.283 -0.0325 -0.6299 -0.4608
   36MOL   C27624146   6.488   2.488   1.274  0.4815  0.1609  0.4012
   36MOL   C27724147   6.424   2.466   1.143  0.3848 -0.1464  1.0522
   36MOL   C27824148   6.290   2.400   1.157  0.3138  0.4249  0.1218
   36MOL   C27924149   6.235   2.377   1.016  0.7137 -0.2364  0.4103
   36MOL   C28024150   6.101   2.306   1.004 -0.3571  0.1589 -0.3734
   36MOL   C28124151   6.060   2.271   0.859 -0.2433 -0.2063  0.2953
   36MOL   C28224152   6.135   2.156   0.802  0.0279  0.3503 -0.0048
   36MOL   C28324153   6.108   2.134   0.654 -0.2192  0.2390 -0.0882
   36MOL   C28424154   6.175   2.008   0.600 -0.1148  0.4889  0.2218
   36MOL   C28524155   6.096   1.874   0.616 -0.0796 -0.4575 -0.1206
   36MOL   O28624156   5.979   1.876   0.594 -0.4778 -0.3254  0.3040
   36MOL   H28724157   6.717   2.650   1.103  0.0328 -0.8790  0.3656
   36MOL   H28824158   6.545   2.693   1.253  0.2535 -0.5748 -0.8079
   36MOL   H28924159   6.641   2.622   1.381 -0.6398 -1.5498 -0.0194
   36MOL   H29024160   6.409   2.522   1.341  0.2586 -2.3355  1.4687
   36MOL   H29124161   6.531   2.392   1.305  1.8245  0.8187  0.5908
   36MOL   H29224162   6.405   2.564   1.099  2.2021  0.0661  0.6867
   36MOL   H29324163   6.491   2.413   1.075  0.7232  0.3046  1.0266
   36MOL   H29424164   6.214   2.471   1.190 -1.2730 -0.1713 -2.1258
   36MOL   H29524165   6.286   2.307   1.214  0.1038 -0.1084 -0.7532
   36MOL   H29624166   6.307   2.323   0.954  1.3534  0.2258  0.7464
   36MOL   H29724167   6.222   2.477   0.974 -0.3422  0.0399  1.3833
   36MOL   H29824168   6.100   2.219   1.070 -2.9093  0.3422 -0.1141
   36MOL   H29924169   6.019   2.359   1.052 -1.8473 -1.3961 -1.1522
   36MOL   H30024170   6.066   2.362   0.800  2.7562  0.5502  1.6548
   36MOL   H30124171   5.955   2.239   0.858 -0.7485  1.3198  1.7153
   36MOL   H30224172   6.241   2.174   0.824  0.0570  0.9888 -0.6825
   36MOL   H30324173   6.111   2.063   0.854  1.0654 -0.5846 -1.1734
   36MOL   H30424174   6.145   2.218   0.595  0.9058 -0.0400  0.1959
   36MOL   H30524175   6.001   2.132   0.633  0.0927 -0.8734 -1.6663
   36MOL   H30624176   6.279   1.994   0.630  0.3553  2.0311 -0.6691
   36MOL   H30724177   6.194   2.027   0.495 -0.3791  0.7062  0.2144
   36MOL   N30824178   6.161   1.770   0.670  0.3743  0.9521 -0.2830
   36MOL   C30924179   6.111   1.636   0.688 -0.0255 -0.6312  0.1535
   36MOL   C31024180   6.223   1.562   0.757  0.2059  0.6094 -0.0895
   36MOL   C31124181   6.183   1.418   0.773 -0.0077 -0.8018 -0.1121
   36MOL   C31224182   6.286   1.336   0.851  0.4714 -0.1180 -0.2868
   36MOL   C31324183   6.232   1.223   0.943  0.7591 -0.4507 -0.6879
   36MOL   C31424184   6.123   1.256   1.050 -0.2509 -0.0621  0.1465
   36MOL   C31524185   6.160   1.361   1.163 -0.3090  0.5126  0.2690
   36MOL   C31624186   6.052   1.371   1.279 -0.4500 -0.2222 -0.1308
   36MOL   C31724187   6.071   1.248   1.368  0.6168 -0.1825  0.0711
   36MOL   C31824188   5.957   1.232   1.476  0.1035  0.2405  0.5475
   36MOL   C31924189   5.958   1.098   1.536  0.7610 -0.2897  0.4378
   36MOL   O32024190   6.048   1.063   1.614 -0.1443  0.1477 -0.6946
   36MOL   H32124191   6.258   1.787   0.689 -0.0727  2.1386  0.9994
   36MOL   H32224192   6.106   1.594   0.588 -0.3443 -2.4035  0.8791
   36MOL   H32324193   6.014   1.621   0.736  0.1371  0.9586  1.0035
   36MOL   H32424194   6.229   1.599   0.859  1.4784 -0.6210  0.2972
   36MOL   H32524195   6.322   1.564   0.712  0.1727 -0.2913 -0.2071
   36MOL   H32624196   6.084   1.424   0.818 -0.6160 -0.7591 -1.4227
   36MOL   H32724197   6.156   1.377   0.675 -0.2167  0.8553 -0.7627
   36MOL   H32824198   6.344   1.404   0.914  2.7459 -0.7765 -1.6086
   36MOL   H32924199   6.352   1.294   0.775  1.4202  0.9281 -0.0656
   36MOL   H33024200   6.318   1.189   1.000  1.3181  1.8358 -0.1147
   36MOL   H33124201   6.199   1.148   0.871 -1.0430  0.2228 -0.5795
   36MOL   H33224202   6.044   1.287   0.983  0.9031 -1.1822 -1.7563
   36MOL   H33324203   6.105   1.164   1.105  0.0710 -0.5702 -0.5978
   36MOL   H33424204   6.158   1.464   1.127 -2.5192  0.7671  1.0815
   36MOL   H33524205   6.258   1.329   1.200 -0.9903 -0.3700  1.3140
   36MOL   H33624206   6.049   1.462   1.338 -1.4832  0.0693 -0.6295
   36MOL   H33724207   5.954   1.373   1.232  0.0929 -0.7601 -1.2870
   36MOL   H33824208   6.168   1.257   1.418  0.7941  1.1992 -0.4755
   36MOL   H33924209   6.066   1.160   1.305 -3.0544 -1.6484  2.2894
   36MOL   H34024210   5.858   1.251   1.433  0.0807 -2.8750 -0.8778
   36MOL   H34124211   5.971   1.305   1.556  0.6495 -0.4795  1.1110
   36MOL   N34224212   5.848   1.025   1.509  0.9023  0.3421  0.0936
   36MOL   C34324213   5.815   0.895   1.564  0.4611  0.0119 -0.2324
   36MOL   C34424214   5.900   0.785   1.504  0.1160  0.3086 -0.3267
   36MOL   C34524215   5.834   0.646   1.542 -0.2958 -0.3883 -0.2714
   36MOL   C34624216   5.920   0.522   1.518  0.2031 -0.0084 -0.3316
   36MOL   C34724217   5.942   0.494   1.367 -0.5708 -0.2779 -0.6469
   36MOL   C34824218   5.981   0.353   1.335  0.0203  0.2313 -0.6565
   36MOL   C34924219   6.119   0.297   1.373  0.3469 -0.1483 -0.6812
   36MOL   C35024220   6.230   0.323   1.274  0.1706  0.5150  0.2904
   36MOL   C35124221   6.365   0.251   1.301 -0.2394 -0.2957 -0.3145
   36MOL   C35224222   6.479   0.301   1.210 -0.3203 -0.3409  0.8292
   36MOL   C35324223   6.605   0.233   1.236  0.3489 -0.2760 -0.1291
   36MOL   O35424224   6.663   0.247   1.340  0.0655  0.2481 -0.1570
   36MOL   H35524225   5.781   1.068   1.446 -1.9093 -1.5656  1.6614
   36MOL   H35624226   5.831   0.904   1.672  1.8602  3.2284 -0.6451
   36MOL   H35724227   5.711   0.866   1.555  0.6382 -1.1131  1.1617
   36MOL   H35824228   5.998   0.813   1.542  0.7432 -0.5468 -1.3102
   36MOL   H35924229   5.910   0.782   1.395  1.8589  1.8502 -0.2426
   36MOL   H36024230   5.803   0.650   1.646  2.7221  0.9018  0.6081
   36MOL   H36124231   5.739   0.642   1.488  0.9974 -0.3427 -2.5911
   36MOL   H36224232   5.855   0.438   1.545 -0.3880  0.0749 -1.4729
   36MOL   H36324233   6.009   0.527   1.581 -0.5940 -0.5867  0.8747
   36MOL   H36424234   6.016   0.564   1.329 -1.0949  1.9960  2.3334
   36MOL   H36524235   5.846   0.525   1.329 -0.0577  1.9485 -0.1902
   36MOL   H36624236   5.902   0.291   1.375 -0.3336  1.6700  0.9262
   36MOL   H36724237   5.971   0.342   1.227  2.3912  0.0295 -0.8779
   36MOL   H36824238   6.102   0.190   1.385 -2.3911  0.4071  0.9248
   36MOL   H36924239   6.152   0.324   1.474 -0.2560  1.5964 -0.9399
   36MOL   H37024240   6.190   0.325   1.173  3.4475 -0.0928 -1.0729
   36MOL   H37124241   6.249   0.430   1.282  2.3836  0.1300  0.4951
   36MOL   H37224242   6.352   0.143   1.290  1.7536 -0.7855  1.7382
   36MOL   H37324243   6.404   0.272   1.401  0.2171 -0.2437 -0.5032
   36MOL   H37424244   6.487   0.410   1.217  1.6783 -0.3550 -0.7584
   36MOL   H37524245   6.443   0.282   1.108  3.3327  0.9777 -0.7879
   36MOL   N37624246   6.653   0.159   1.133  0.0184  0.4615 -0.2321
   36MOL   C37724247   6.792   0.103   1.128 -0.0793  0.0964 -0.2841
   36MOL   C37824248   6.871   0.152   1.003 -0.1707 -0.8435  0.5956
   36MOL   C37924249   7.027   0.124   1.009  0.4560 -0.7397 -0.2597
   36MOL   C38024250   7.079   0.140   0.871  0.4892  0.1159 -0.2429
   36MOL   C38124251   7.230   0.177   0.880  0.8658  0.1023  0.1951
   36MOL   C38224252   7.286   0.168   0.732 -0.3954 -0.4053 -0.9144
   36MOL   C38324253   7.438   0.181   0.744 -0.0732  0.0493 -0.1442
   36MOL   C38424254   7.504   0.130   0.616  0.2868  0.4153  0.0257
   36MOL   C38524255   7.654   0.146   0.605 -0.2885  0.4123 -0.2083
   36MOL   C38624256   0.009   0.120   0.465 -0.4157 -0.0126  0.7618
   36MOL   C38724257   7.692   0.219   0.353 -0.7875  1.4213 -0.3774
   36MOL   O38824258   7.624   0.315   0.378 -0.0668  0.0223 -0.5221
   36MOL   H38924259   6.586   0.145   1.059  1.3696  2.4790 -1.9078
   36MOL   H39024260   6.847   0.128   1.218  2.5184 -0.6798 -1.6090
   36MOL   H39124261   6.795   7.710   1.119 -1.1279  0.2465 -2.9967
   36MOL   H39224262   6.852   0.259   0.992 -3.0740 -1.2761  0.9744
   36MOL   H39324263   6.831   0.097   0.918  0.9481 -1.5707  0.5206
   36MOL   H39424264   7.071   0.201   1.072 -0.5113 -0.3540 -0.0552
   36MOL   H39524265   7.049   0.027   1.054 -0.3886  0.9803  4.0342
   36MOL   H39624266   7.027   0.223   0.822  0.2408  1.6694  2.5770
   36MOL   H39724267   7.071   0.048   0.814  0.3205 -0.2681  0.4002
   36MOL   H39824268   7.285   0.108   0.945  0.1939  1.4886  2.2811
   36MOL   H39924269   7.238   0.279   0.918  0.1648  2.1965 -4.9224
   36MOL   H40024270   7.261   0.072   0.686 -1.9477  0.7110 -2.4968
   36MOL   H40124271   7.253   0.247   0.664  2.2992 -0.4854 -2.3920
   36MOL   H40224272   7.471   0.120   0.829 -3.6280 -2.2467 -0.2931
   36MOL   H40324273   7.464   0.285   0.764  0.6649 -0.1829  0.1111
   36MOL   H40424274   7.479   0.026   0.597  1.7264  0.7047 -4.0750
   36MOL   H40524275   7.454   0.183   0.535 -2.1425 -3.4519 -1.1138
   36MOL   H40624276   7.687   0.081   0.685  0.4802  0.8746 -0.1425
   36MOL   H40724277   7.672   0.248   0.641  1.7013  0.2587 -0.7325
   36MOL   H40824278   7.695   0.020   0.432 -0.4021  0.7236 -1.5949
   36MOL   H40924279   0.115   0.125   0.488 -0.3710  1.9401  0.1564
   36MOL   N41024280   0.023   0.185   0.231 -0.4383  0.3050 -0.3558
   36MOL   C41124281   7.711   0.257   0.106  0.6134 -0.0922 -0.1481
   36MOL   C41224282   7.572   0.222   0.049  0.1619 -0.2988 -0.0332
   36MOL   C41324283   7.550   0.269   7.621 -0.7296 -0.6633  0.0621
   36MOL   C41424284   7.410   0.241   7.555  0.0979 -0.6659  0.0326
   36MOL   C41524285   7.289   0.273   7.646 -0.1570 -0.3468  0.6206
   36MOL   C41624286   7.159   0.252   7.572  0.2510  0.2857  0.1356
   36MOL   C41724287   7.048   0.280   7.670  0.1090 -0.3653  0.7185
   36MOL   C41824288   6.928   0.196   7.644 -1.0975  1.1560 -0.4461
   36MOL   C41924289   6.804   0.257   7.704 -0.0096 -0.8123  0.3163
   36MOL   C42024290   6.811   0.239   0.142 -0.3823 -0.7800  0.4300
   36MOL   C42124291   6.680   0.277   0.206  0.6172 -0.3480  0.0801
   36MOL   O42224292   6.577   0.284   0.142  0.0032  0.5776  0.3168
   36MOL   H42324293   0.071   0.096   0.221  0.9475  1.1526 -1.4052
   36MOL   H42424294   0.021   0.362   0.121  1.4285 -0.1419 -1.0984
   36MOL   H42524295   0.065   0.226   0.027 -1.5736 -0.7947 -1.8368
   36MOL   H42624296   7.491   0.257   0.114 -1.3699 -1.6597 -1.1645
   36MOL   H42724297   7.564   0.114   0.058  1.8484 -0.4061  0.3087
   36MOL   H42824298   7.576   0.375   7.618 -2.3301 -0.2697 -0.7914
   36MOL   H42924299   7.633   0.230   7.564 -1.1231 -0.0646 -0.9400
   36MOL   H43024300   7.413   0.134   7.537 -0.5631 -0.4778 -1.2669
   36MOL   H43124301   7.403   0.298   7.463  1.7929 -2.2492 -1.1188
   36MOL   H43224302   7.289   0.382   7.654 -1.6953 -0.4233  1.8217
   36MOL   H43324303   7.299   0.225   0.027  0.8379 -0.2365  0.5854
   36MOL   H43424304   7.149   0.322   7.490 -0.1777 -0.7046 -0.6653
   36MOL   H43524305   7.164   0.155   7.523  2.6317  0.2720  0.3339
   36MOL   H43624306   7.016   0.384   7.676 -1.1901 -0.5452 -2.3581
   36MOL   H43724307   7.076   0.245   0.054  0.0644  0.0155  0.8648
   36MOL   H43824308   6.902   0.188   7.539 -1.5859 -0.7090 -0.1980
   36MOL   H43924309   6.942   0.096   7.686  0.4598  1.2557 -0.7037
   36MOL   H44024310   6.715   0.208   7.664 -2.0717 -0.2116  3.9009
   36MOL   H44124311   6.791   0.364   7.687  1.0144 -0.4611  1.6520
   36MOL   H44224312   6.886   0.313   0.170 -0.8530 -0.0114 -0.3373
   36MOL   H44324313   6.835   0.139   0.178  1.0488 -1.4390 -2.2723
   36MOL   N44424314   6.683   0.310   0.335 -0.3935 -0.3327  0.7213
   36MOL   C44524315   6.572   0.376   0.406  0.4284 -0.1340  0.4157
   36MOL   C44624316   6.472   0.273   0.474 -0.2110  0.5365 -0.0346
   36MOL   C44724317   6.359   0.353   0.540  0.3406 -0.1982 -0.2486
   36MOL   C44824318   6.275   0.262   0.618  0.4982  0.1815 -0.6037
   36MOL   C44924319   6.152   0.327   0.693 -0.1919 -0.4729 -0.3894
   36MOL   C45024320   6.085   0.219   0.777  0.8754 -0.3974  0.1138
   36MOL   C45124321   5.946   0.252   0.805  0.2533  0.0679 -0.3503
   36MOL   C45224322   5.929   0.391   0.868 -0.1854 -0.0043 -0.1581
   36MOL   C45324323   5.790   0.398   0.933  0.6321  0.1803 -0.0222
   36MOL   C45424324   5.745   0.532   0.993  0.2258 -0.0085 -0.7533
   36MOL   C45524325   5.731   0.636   0.887 -0.7552 -0.2413  0.1172
   36MOL   O45624326   5.816   0.718   0.868 -0.1794  0.1067  0.1271
   36MOL   H45724327   6.772   0.315   0.383  0.4391 -1.0378 -0.7337
   36MOL   H45824328   6.617   0.438   0.483 -0.4114  1.1208 -0.0843
   36MOL   H45924329   6.508   0.433   0.339 -1.2520 -0.0720  2.0436
   36MOL   H46024330   6.532   0.216   0.546  1.0200  2.4207  0.4614
   36MOL   H46124331   6.437   0.201   0.400  0.7405 -0.9985  0.9663
   36MOL   H46224332   6.396   0.437   0.599  0.7717 -1.1466  0.8375
   36MOL   H46324333   6.292   0.398   0.467  0.2513  0.3018  0.1386
   36MOL   H46424334   6.345   0.227   0.693  0.0460  1.3626  0.3933
   36MOL   H46524335   6.247   0.178   0.555  1.8159 -0.1500 -0.7557
   36MOL   H46624336   6.081   0.357   0.616  0.3583 -0.4544 -0.8961
   36MOL   H46724337   6.175   0.415   0.753 -3.8299  0.8350 -0.8130
   36MOL   H46824338   6.075   0.128   0.718 -3.1672 -0.4539  0.7891
   36MOL   H46924339   6.151   0.200   0.862  3.0858  0.6344 -1.2989
   36MOL   H47024340   5.897   0.172   0.860  0.2872 -0.2312 -0.7546
   36MOL   H47124341   5.887   0.258   0.714  0.2648  1.5306 -0.2738
   36MOL   H47224342   6.006   0.408   0.943  2.0350 -0.3112 -2.2878
   36MOL   H47324343   5.947   0.461   0.787  0.5413 -0.2750 -0.2350
   36MOL   H47424344   5.798   0.325   1.013  0.0315  0.1946  0.0542
   36MOL   H47524345   5.721   0.360   0.857  3.5876 -0.1756 -2.6628
   36MOL   H47624346   5.823   0.558   1.064 -2.4551 -1.7158  3.0191
   36MOL   H47724347   5.651   0.518   1.047  0.5910  0.8795  0.1261
   36MOL   N47824348   5.625   0.631   0.806 -0.1040  0.3125 -0.1884
   36MOL   C47924349   5.620   0.722   0.698  0.1593  0.2024  0.1072
   36MOL   C48024350   5.544   0.847   0.744 -0.0926 -0.3848 -0.0475
   36MOL   C48124351   5.495   0.943   0.624 -0.6144  0.3671 -0.5616
   36MOL   C48224352   5.403   1.052   0.680  0.2101 -0.6553  0.0312
   36MOL   C48324353   5.346   1.150   0.579 -0.3719  0.4678 -0.9333
   36MOL   C48424354   5.450   1.244   0.521 -0.1612  0.0059  0.4861
   36MOL   C48524355   5.390   1.330   0.405  0.2463 -0.8150 -0.1193
   36MOL   C48624356   5.314   1.453   0.453 -0.7131 -0.8486  1.0247
   36MOL   C48724357   5.276   1.545   0.340  0.0503 -0.5327  0.8587
   36MOL   C48824358   5.388   1.634   0.281 -0.9500 -0.1915  0.7728
   36MOL   C48924359   5.353   1.712   0.154  0.2287  0.4144 -0.0951
   36MOL   O49024360   5.280   1.659   0.076 -0.1446  0.4777 -0.2264
   36MOL   H49124361   5.571   0.547   0.810 -0.0031  0.2870  0.6853
   36MOL   H49224362   5.711   0.746   0.644 -0.1323  0.5819 -0.2177
   36MOL   H49324363   5.560   0.673   0.622  0.1417 -0.3981  0.5033
   36MOL   H49424364   5.609   0.904   0.811 -1.1590  0.3699  0.3575
   36MOL   H49524365   5.454   0.810   0.791  0.3090  0.4291  1.3916
   36MOL   H49624366   5.581   0.997   0.584 -0.9215  1.0947 -0.2383
   36MOL   H49724367   5.460   0.893   0.534  0.0210 -1.3097  0.1029
   36MOL   H49824368   5.445   1.109   0.763 -0.3288 -1.3255  0.7795
   36MOL   H49924369   5.321   0.998   0.729 -0.9799  0.9864 -0.1095
   36MOL   H50024370   5.267   1.207   0.629  0.5865 -0.4120  1.6686
   36MOL   H50124371   5.303   1.090   0.499  2.2666  0.7438 -2.6235
   36MOL   H50224372   5.489   1.304   0.604  0.7296  1.1792 -0.7526
   36MOL   H50324373   5.527   1.182   0.476  0.4288  0.4780  0.8306
   36MOL   H50424374   5.328   1.266   0.342  2.5912 -2.1854 -1.0676
   36MOL   H50524375   5.474   1.357   0.342 -0.5701  0.5687 -0.6436
   36MOL   H50624376   5.218   1.420   0.492 -1.4861 -1.9376 -1.6760
   36MOL   H50724377   5.366   1.502   0.535  2.6344 -0.8676 -0.9615
   36MOL   H50824378   5.202   1.610   0.385 -0.1162 -2.0193  2.7913
   36MOL   H50924379   5.237   1.480   0.261  0.0878 -0.2593  0.6139
   36MOL   H51024380   5.463   1.558   0.260 -0.3678  0.7643 -0.7122
   36MOL   H51124381   5.415   1.706   0.359 -1.5038  1.5337 -0.5820
   36MOL   N51224382   5.386   1.839   0.133  0.5621  0.0155 -0.2453
   36MOL   C51324383   5.327   1.934   0.046 -0.4181  0.4345  0.0199
   36MOL   C51424384   5.260   2.051   0.125 -0.5992 -0.4391  0.3479
   36MOL   C51524385   5.155   2.012   0.236  0.1166 -0.8288 -0.3946
   36MOL   C51624386   5.101   2.138   0.305  0.6644  0.2288  0.4869
   36MOL   C51724387   4.990   2.112   0.412 -0.2589 -0.0269 -0.5238
   36MOL   C51824388   5.028   2.026   0.533 -0.0703 -0.5976  0.4192
   36MOL   C51924389   4.922   2.002   0.638 -0.6434  0.6951  0.4938
   36MOL   C52024390   4.822   1.891   0.616 -0.0862 -1.4205  0.7697
   36MOL   C52124391   4.705   1.892   0.720 -0.2056  0.7433  0.6812
   36MOL   C52224392   4.600   1.784   0.722 -0.5843 -0.2809  0.4292
   36MOL   C52324393   4.492   1.784   0.613 -0.5897 -0.5506  0.1871
   36MOL   O52424394   4.520   1.801   0.490 -0.0518 -0.0793  0.2091
   36MOL   H52524395   5.452   1.871   0.203  0.4996 -1.2835  0.4193
   36MOL   H52624396   5.405   1.976   7.698 -2.2007 -0.1879 -2.6444
   36MOL   H52724397   5.256   1.891   7.692 -1.2140  0.6609  0.6793
   36MOL   H52824398   5.214   2.122   0.055 -0.3054 -0.4970  0.0977
   36MOL   H52924399   5.335   2.115   0.173 -1.8996  1.2896  0.1469
   36MOL   H53024400   5.076   1.948   0.198 -0.2089 -0.7289  0.1019
   36MOL   H53124401   5.200   1.938   0.303  0.4089 -0.4357 -0.1484
   36MOL   H53224402   5.061   2.197   0.223  0.7442 -1.7088 -0.9672
   36MOL   H53324403   5.186   2.194   0.344  1.2604 -0.8090  0.6913
   36MOL   H53424404   4.912   2.062   0.354  0.2477  0.4709 -1.6634
   36MOL   H53524405   4.959   2.209   0.450  0.7828  0.0208  0.2002
   36MOL   H53624406   5.068   1.933   0.492  1.1511  0.0729  0.0497
   36MOL   H53724407   5.109   2.071   0.591  0.6337 -0.1013 -0.9349
   36MOL   H53824408   4.877   2.097   0.665 -0.8313  0.5777  0.5927
   36MOL   H53924409   4.972   1.987   0.734 -3.6318 -3.6525  1.4940
   36MOL   H54024410   4.775   1.898   0.518  1.1721 -0.2650  0.2265
   36MOL   H54124411   4.881   1.799   0.613 -0.3037 -1.5317 -0.0839
   36MOL   H54224412   4.653   1.985   0.697  1.4665  1.1575 -1.6611
   36MOL   H54324413   4.758   1.890   0.815  1.4183 -1.8981 -0.2082
   36MOL   H54424414   4.554   1.788   0.821  0.6122  0.1880  0.9785
   36MOL   H54524415   4.654   1.690   0.710  1.3166  0.8816 -0.2486
   36MOL   N54624416   4.364   1.768   0.652 -0.0513 -0.6257  1.0819
   36MOL   C54724417   4.250   1.756   0.564  0.5596  0.0387 -0.1413
   36MOL   C54824418   4.143   1.863   0.581 -0.0893  0.3423  0.3814
   36MOL   C54924419   4.042   1.858   0.469 -0.3424  0.1724 -0.4869
   36MOL   C55024420   3.946   1.975   0.474  0.3697  0.6765 -0.1148
   36MOL   C55124421   3.821   1.958   0.385  0.1090  0.1503 -0.0523
   36MOL   C55224422   3.713   2.066   0.410  0.0948  0.5751  0.1664
   36MOL   C55324423   3.623   2.091   0.288 -0.5026  0.5407  0.0601
   36MOL   C55424424   3.493   2.164   0.327  0.1060 -0.6424  0.6401
   36MOL   C55524425   3.397   2.195   0.209  0.0035 -0.0403 -0.6760
   36MOL   C55624426   3.298   2.075   0.182  0.6437 -0.1078 -0.0817
   36MOL   C55724427   3.190   2.117   0.073 -0.8787  0.6867 -0.0178
   36MOL   O55824428   3.157   2.232   0.051  0.0458 -0.1544  0.0423
   36MOL   H55924429   4.352   1.729   0.744 -0.1249 -1.9489  0.5167
   36MOL   H56024430   4.275   1.743   0.459  2.0914  2.0281 -0.0434
   36MOL   H56124431   4.210   1.656   0.585 -3.3872  1.6544  0.3578
   36MOL   H56224432   4.193   1.960   0.591  1.3876 -0.4862  1.3557
   36MOL   H56324433   4.090   1.864   0.676 -2.2746  1.2379 -0.8228
   36MOL   H56424434   4.088   1.881   0.373  0.3212  0.1333 -0.1813
   36MOL   H56524435   3.989   1.763   0.468 -0.2073  0.0907 -0.0785
   36MOL   H56624436   3.995   2.070   0.450  2.0246 -0.2666 -0.5837
   36MOL   H56724437   3.904   1.987   0.574 -0.9443 -0.7442 -0.4766
   36MOL   H56824438   3.789   1.855   0.395 -0.6650  0.0462 -3.0925
   36MOL   H56924439   3.862   1.963   0.284 -1.6103  2.8871 -0.6708
   36MOL   H57024440   3.656   2.047   0.501 -0.7555  0.1293 -0.4499
   36MOL   H57124441   3.759   2.158   0.448  0.6129 -0.6467  2.5742
   36MOL   H57224442   3.599   1.999   0.234 -2.2138  1.1451 -0.2445
   36MOL   H57324443   3.679   2.153   0.218  1.5551 -1.8801 -0.5076
   36MOL   H57424444   3.449   2.108   0.410  1.7851  0.0427  2.0330
   36MOL   H57524445   3.520   2.263   0.364 -2.2776  0.3972 -0.2992
   36MOL   H57624446   3.460   2.219   0.123 -0.1364  0.6817 -0.5772
   36MOL   H57724447   3.332   2.282   0.218  1.0988  0.6824  0.3203
   36MOL   H57824448   3.228   2.059   0.264  0.1808  0.6736 -0.3135
   36MOL   H57924449   3.339   1.979   0.153  2.4426  0.7234 -0.3985
   36MOL   N58024450   3.144   2.019   0.000  0.0132 -0.0332 -0.1001
   36MOL   C58124451   3.058   2.031   7.603  0.3720  0.2873  0.4547
   36MOL   C58224452   3.039   1.891   7.537 -0.2689  0.3298 -0.6155
   36MOL   C58324453   2.931   1.897   7.428  0.2860  0.4649 -0.0093
   36MOL   C58424454   2.928   1.770   7.332  0.0305  0.5327  0.5662
   36MOL   C58524455   2.830   1.775   7.212 -0.9323  0.2997  0.2619
   36MOL   C58624456   2.683   1.809   7.237 -0.3109 -0.0015  0.1885
   36MOL   C58724457   2.603   1.812   7.102  0.3561 -0.3823  1.0100
   36MOL   C58824458   2.599   1.940   7.018 -0.2778 -0.9528  0.0432
   36MOL   C58924459   2.479   1.940   6.916  0.5197 -0.1125 -0.4022
   36MOL   C59024460   2.459   2.073   6.847 -0.5401  0.4725  0.4115
   36MOL   C59124461   2.330   2.087   6.768 -1.3599  1.0930  0.4825
   36MOL   O59224462   2.221   2.073   6.823  0.3359 -0.1292  0.4007
   36MOL   H59324463   3.200   1.935   0.006 -0.3337 -0.2067  0.7357
   36MOL   H59424464   2.957   2.060   7.631 -0.0075 -1.5439  1.0775
   36MOL   H59524465   3.099   2.096   7.526  0.8587 -1.5132 -0.8409
   36MOL   H59624466   3.038   1.808   7.607 -1.1242 -0.3289 -1.3903
   36MOL   H59724467   3.130   1.871   7.480  0.2184 -0.8496  0.5543
   36MOL   H59824468   2.831   1.906   7.471 -0.8149 -1.9274 -1.9339
   36MOL   H59924469   2.945   1.990   7.373  0.5411  0.4751  0.0730
   36MOL   H60024470   2.898   1.682   7.390  2.4374  0.6358  2.0119
   36MOL   H60124471   3.029   1.747   7.298  0.1640  1.2765  0.4645
   36MOL   H60224472   2.836   1.677   7.165  2.2842  0.1301  0.9002
   36MOL   H60324473   2.878   1.846   7.144 -1.2332  0.1167 -0.1398
   36MOL   H60424474   2.631   1.743   7.306  1.2852 -3.5624 -1.8462
   36MOL   H60524475   2.670   1.911   7.271 -3.2647 -0.5500  0.8646
   36MOL   H60624476   2.501   1.788   7.130  0.0987  1.7414  1.9929
   36MOL   H60724477   2.635   1.731   7.036  0.3106 -0.7020  1.3818
   36MOL   H60824478   2.586   2.022   7.089 -0.8468 -0.9030 -0.1156
   36MOL   H60924479   2.686   1.970   6.960 -1.2033 -2.1176 -1.9903
   36MOL   H61024480   2.386   1.920   6.968  1.4729 -0.0723  1.3626
   36MOL   H61124481   2.507   1.861   6.846  0.8736 -0.0756 -0.3033
   36MOL   H61224482   2.550   2.101   6.794 -0.8819  1.2354  0.2339
   36MOL   H61324483   2.447   2.153   6.920  0.7399  0.5362  0.5625
   36MOL   N61424484   2.351   2.115   6.638  0.1763 -0.2879 -0.3259
   36MOL   C61524485   2.245   2.131   6.541 -0.0510  0.1690 -0.0521
   36MOL   C61624486   2.232   2.282   6.505 -0.0220  0.0119  0.4765
   36MOL   C61724487   2.126   2.306   6.400 -1.1390 -0.1077 -0.2566
   36MOL   C61824488   2.130   2.456   6.360 -0.3462  0.6421  0.5445
   36MOL   C61924489   2.013   2.506   6.278 -0.0824  0.7455 -0.7855
   36MOL   C62024490   2.038   2.639   6.205 -0.0089  0.1490  0.6366
   36MOL   C62124491   1.911   2.677   6.115  1.0136 -0.3065  0.3586
   36MOL   C62224492   1.862   2.825   6.129  0.4252 -0.6162  0.1010
   36MOL   C62324493   1.955   2.928   6.051  0.1627 -0.4130 -0.0191
   36MOL   C62424494   1.920   3.080   6.073 -0.0132  0.0328  0.1888
   36MOL   C62524495   1.940   3.132   6.217 -0.2390 -0.4124  0.0995
   36MOL   O62624496   2.038   3.099   6.275  0.1764 -0.2783  0.0882
   36MOL   H62724497   2.445   2.121   6.601  1.7457 -1.1374  3.3078
   36MOL   H62824498   2.146   2.096   6.570  0.0636  0.6519  0.9305
   36MOL   H62924499   2.262   2.057   6.463  1.2728  0.5599 -0.1366
   36MOL   H63024500   2.323   2.304   6.448 -1.6311  1.0791 -1.7475
   36MOL   H63124501   2.214   2.349   6.589 -1.0173 -0.5791  0.7405
   36MOL   H63224502   2.149   2.243   6.314 -0.8266  0.0848 -0.3155
   36MOL   H63324503   2.035   2.273   6.450 -0.8235  0.7557  0.9001
   36MOL   H63424504   2.216   2.468   6.294 -1.0449  0.0111 -0.5012
   36MOL   H63524505   2.154   2.522   6.443 -0.1561 -0.9992  1.7895
   36MOL   H63624506   1.922   2.512   6.337 -1.4147  2.8086 -2.9583
   36MOL   H63724507   1.979   2.439   6.198  2.1528 -2.2219  0.6415
   36MOL   H63824508   2.046   2.716   6.282  0.3878 -0.7746  1.5241
   36MOL   H63924509   2.126   2.636   6.142  0.0414 -0.2670  0.7275
   36MOL   H64024510   1.828   2.612   6.145  0.1601  0.5904 -0.0317
   36MOL   H64124511   1.931   2.662   6.009 -1.5278  0.9848 -0.3436
   36MOL   H64224512   1.764   2.829   6.082  0.6274 -1.5975 -0.4237
   36MOL   H64324513   1.849   2.855   6.233  0.7969  0.1979 -0.0811
   36MOL   H64424514   1.955   2.906   5.945  3.8007  1.8126 -0.5611
   36MOL   H64524515   2.058   2.912   6.085  0.1176  0.4769  0.5285
   36MOL   H64624516   1.815   3.101   6.055  0.0041  0.0986  0.1639
   36MOL   H64724517   1.982   3.147   6.014  2.1603  0.8562  3.2420
   36MOL   N64824518   1.837   3.211   6.263  0.7032 -0.4829  0.5175
   36MOL   C64924519   1.839   3.284   6.390 -0.4355 -0.2591 -0.1747
   36MOL   C65024520   1.698   3.327   6.416  0.2249  0.1526  0.1072
   36MOL   C65124521   1.696   3.422   6.539 -0.1720 -0.5101  0.2085
   36MOL   C65224522   1.562   3.441   6.611 -0.3438  0.3077  0.1920
   36MOL   C65324523   1.524   3.304   6.678 -0.0942 -0.3152 -0.1227
   36MOL   C65424524   1.394   3.329   6.764  0.1162 -0.3567 -0.3076
   36MOL   C65524525   1.335   3.208   6.833 -0.5454 -0.4747  0.3709
   36MOL   C65624526   1.193   3.217   6.871  0.5589  0.7387  1.2221
   36MOL   C65724527   1.140   3.085   6.929 -0.3840 -0.1819 -0.2353
   36MOL   C65824528   0.994   3.092   6.973  0.3717 -0.5797 -0.0662
   36MOL   C65924529   0.889   3.073   6.868  0.5180  0.3084  0.8537
   36MOL   O66024530   0.910   3.112   6.755 -0.4000  0.0184  0.0529
   36MOL   H66124531   1.760   3.234   6.202  1.0057  0.7382  0.5708
   36MOL   H66224532   1.908   3.366   6.371  0.4931 -1.3577 -1.7214
   36MOL   H66324533   1.884   3.221   6.466  1.7152 -0.8749 -1.9005
   36MOL   H66424534   1.619   3.253   6.426  1.3678 -1.1957 -0.5440
   36MOL   H66524535   1.663   3.387   6.332 -3.0931 -0.5164  0.9422
   36MOL   H66624536   1.770   3.393   6.614  0.7046  0.1136 -0.4078
   36MOL   H66724537   1.724   3.526   6.520  0.7897 -0.6799  0.6556
   36MOL   H66824538   1.489   3.472   6.536 -2.2020  0.7411  2.1550
   36MOL   H66924539   1.578   3.514   6.690 -2.8029  2.5092 -1.2654
   36MOL   H67024540   1.608   3.277   6.742 -1.3185 -1.8031  0.8816
   36MOL   H67124541   1.519   3.218   6.611 -0.9847 -0.3391 -0.0282
   36MOL   H67224542   1.413   3.408   6.838 -0.0220  0.1511 -0.8124
   36MOL   H67324543   1.314   3.370   6.702 -1.3347 -0.0581  1.7135
   36MOL   H67424544   1.398   3.203   6.922  0.8998  2.9741 -0.3571
   36MOL   H67524545   1.340   3.118   6.771 -0.3527 -1.5267  1.8954
   36MOL   H67624546   1.181   3.294   6.947  1.2509  1.5177  0.5464
   36MOL   H67724547   1.129   3.239   6.785  2.9389  1.0161 -0.5059
   36MOL   H67824548   1.200   3.050   7.013 -0.2857 -3.2709 -1.5079
   36MOL   H67924549   1.142   3.014   6.845 -1.4149  0.1338 -0.5354
   36MOL   H68024550   0.995   3.193   7.015  1.0113  0.1766 -1.8284
   36MOL   H68124551   0.981   3.026   7.059 -0.6487 -2.7877 -1.8533
   36MOL   H68224552   0.804   3.013   6.900 -0.0124  1.4658  1.6363
   37MOL     N124553   0.922   3.286   2.983 -0.5839  0.1983 -0.1618
   37MOL     C224554   0.825   3.353   3.066 -0.1331 -0.1646 -0.2474
   37MOL     C324555   0.891   3.421   3.188  0.2836 -0.4572  0.2496
   37MOL     C424556   0.800   3.531   3.241  0.4876 -0.0116  1.0493
   37MOL     C524557   0.863   3.604   3.362 -0.3551  0.4988  0.2411
   37MOL     C624558   0.768   3.693   3.440 -0.5729  0.2888  0.4607
   37MOL     C724559   0.845   3.749   3.564 -0.2266  0.0766 -0.3105
   37MOL     C824560   0.771   3.845   3.648 -0.1395  0.0871 -0.3896
   37MOL     C924561   0.657   3.777   3.731  0.1704 -0.4728 -0.0759
   37MOL    C1024562   0.605   3.859   3.853 -0.1793  0.2269  0.1789
   37MOL    C1124563   0.479   3.801   3.921 -0.4600 -0.5285  0.1536
   37MOL    C1224564   0.375   3.898   3.985 -0.0776  0.0073 -0.3856
   37MOL    O1324565   0.414   4.006   4.034  0.1718 -0.0705 -0.0449
   37MOL    H1424566   0.873   3.239   2.909 -0.4992 -1.0590  0.5553
   37MOL    H1524567   0.752   3.293   3.121 -0.1324 -1.1960 -1.3666
   37MOL    H1624568   0.767   3.427   3.010  0.0618 -0.8006 -1.3008
   37MOL    H1724569   0.992   3.458   3.172 -0.6874  2.4919  0.7294
   37MOL    H1824570   0.898   3.343   3.265  1.9229 -0.4179  0.1573
   37MOL    H1924571   0.784   3.608   3.166  0.4596 -1.2033 -0.1817
   37MOL    H2024572   0.701   3.494   3.266 -0.7360  0.1393 -3.2192
   37MOL    H2124573   0.959   3.646   3.330  0.3669 -1.6324 -0.4451
   37MOL    H2224574   0.899   3.531   3.434 -0.5833 -0.1505 -0.3037
   37MOL    H2324575   0.676   3.638   3.462 -0.8771  0.0384 -1.3745
   37MOL    H2424576   0.743   3.772   3.370  0.9564 -0.1762 -0.6216
   37MOL    H2524577   0.869   3.665   3.629  0.0024  0.5873  0.2677
   37MOL    H2624578   0.940   3.795   3.537  0.3894 -0.1483  1.3864
   37MOL    H2724579   0.723   3.925   3.591 -0.7822 -0.7245 -0.9969
   37MOL    H2824580   0.843   3.897   3.711 -2.3259  0.6254  1.7260
   37MOL    H2924581   0.570   3.757   3.668  0.2842 -0.7344 -0.1514
   37MOL    H3024582   0.680   3.676   3.764  2.0413 -0.2162 -0.5744
   37MOL    H3124583   0.579   3.957   3.811 -1.0566 -0.2447 -0.3940
   37MOL    H3224584   0.688   3.878   3.920  1.3317  1.0596 -1.8612
   37MOL    H3324585   0.513   3.721   3.987  1.7668 -1.6787 -2.3344
   37MOL    H3424586   0.425   3.745   3.845 -0.9564  1.8017 -1.2603
   37MOL    H3524587   0.983   3.227   3.038  1.2974  2.2928  0.0765
   37MOL    N3624588   0.246   3.872   3.976  0.7181 -0.0392 -0.2552
   37MOL    C3724589   0.131   3.956   4.013 -0.9438 -0.1025  0.0948
   37MOL    C3824590   0.006   3.921   3.934  0.0614  0.0009  0.6792
   37MOL    C3924591   7.610   4.026   3.954  0.1339 -0.8196 -0.3478
   37MOL    C4024592   7.507   4.017   3.840 -0.0730 -0.5265  0.2438
   37MOL    C4124593   7.392   4.117   3.839  0.8097  0.4885  0.5195
   37MOL    C4224594   7.294   4.104   3.720 -1.1956  0.3159 -0.5927
   37MOL    C4324595   7.185   3.995   3.733 -0.8382 -0.6862  0.6989
   37MOL    C4424596   7.083   3.972   3.622 -0.3002 -0.6500 -0.4388
   37MOL    C4524597   6.999   3.840   3.633 -0.6024 -0.9634 -0.1399
   37MOL    C4624598   6.888   3.840   3.521 -0.1163  0.4812 -0.1155
   37MOL    C4724599   6.775   3.939   3.522 -0.5593  0.0938 -0.1962
   37MOL    O4824600   6.709   3.958   3.622  0.4354  0.0074  0.4376
   37MOL    H4924601   0.221   3.787   3.927 -1.4977  0.5513 -0.2365
   37MOL    H5024602   0.108   3.934   4.118 -0.1123  1.4362  0.6119
   37MOL    H5124603   0.161   4.060   4.002  0.1539 -0.3633  0.5647
   37MOL    H5224604   7.694   3.816   3.945 -2.3741  0.6301  0.7051
   37MOL    H5324605   0.031   3.915   3.829 -1.9105  1.0221  0.1309
   37MOL    H5424606   7.550   4.005   4.043  3.5152  2.2384  2.8010
   37MOL    H5524607   7.639   4.127   3.981 -0.7027 -0.4967 -0.6198
   37MOL    H5624608   7.454   3.922   3.836 -0.7731 -0.0861 -3.4434
   37MOL    H5724609   7.558   4.023   3.744  1.4970  1.2411  1.1564
   37MOL    H5824610   7.436   4.217   3.832 -0.2481  0.8371 -1.7194
   37MOL    H5924611   7.341   4.115   3.935 -0.3552 -0.2842 -0.1115
   37MOL    H6024612   7.229   4.190   3.729 -1.5010 -0.0266  0.5838
   37MOL    H6124613   7.345   4.108   3.623 -1.5389  3.0887 -0.6906
   37MOL    H6224614   7.140   4.002   3.832  1.3081 -1.6221  1.7728
   37MOL    H6324615   7.242   3.903   3.727  0.1708 -0.0462  0.2918
   37MOL    H6424616   7.016   4.058   3.619  1.0784  0.3853 -3.5311
   37MOL    H6524617   7.133   3.972   3.525 -2.0588 -1.1073 -1.3772
   37MOL    H6624618   6.949   3.842   3.729  0.5782 -0.6672  0.4882
   37MOL    H6724619   7.069   3.756   3.638  1.3259  0.5672 -0.5277
   37MOL    H6824620   6.837   3.743   3.525 -2.4514  1.7138  1.1224
   37MOL    H6924621   6.940   3.834   3.426 -1.1035 -0.9249 -0.5933
   37MOL    N7024622   6.766   4.012   3.410  0.0102 -0.2879 -0.4744
   37MOL    C7124623   6.674   4.125   3.389  0.2798 -0.5411  0.5067
   37MOL    C7224624   6.659   4.165   3.241  0.1906 -0.3604  0.2177
   37MOL    C7324625   6.546   4.273   3.224  0.0836  0.4064  0.3500
   37MOL    C7424626   6.604   4.409   3.248  0.0015  0.3086  0.1435
   37MOL    C7524627   6.706   4.451   3.144 -0.4643  0.1236  0.6840
   37MOL    C7624628   6.758   4.598   3.160 -0.1170  0.9177 -0.3093
   37MOL    C7724629   6.828   4.657   3.043 -0.3849 -0.1780 -1.0965
   37MOL    C7824630   6.962   4.578   3.016  0.6971  0.0870  0.9351
   37MOL    C7924631   7.048   4.637   2.900  0.1273  0.5938 -0.0633
   37MOL    C8024632   7.120   4.520   2.824  0.4185  0.6524  0.4497
   37MOL    C8124633   7.250   4.472   2.893 -0.0852 -0.1468 -0.3629
   37MOL    O8224634   7.306   4.550   2.968  0.3548 -0.1406 -0.0567
   37MOL    H8324635   6.838   4.006   3.339 -1.1552 -0.5103 -1.6590
   37MOL    H8424636   6.574   4.095   3.420 -0.0454 -1.5622 -1.4646
   37MOL    H8524637   6.713   4.207   3.449  1.6990 -0.7092 -0.1635
   37MOL    H8624638   6.621   4.075   3.194  0.4554 -0.5274  0.3262
   37MOL    H8724639   6.745   4.193   3.181  0.2732  0.1581  0.5739
   37MOL    H8824640   6.508   4.263   3.122 -0.0462  0.4418  0.3945
   37MOL    H8924641   6.468   4.246   3.295  0.8798 -2.4938  0.1994
   37MOL    H9024642   6.633   4.432   3.350  2.4692  3.4970 -1.1523
   37MOL    H9124643   6.523   4.482   3.242  0.3058  0.6005 -0.5065
   37MOL    H9224644   6.658   4.463   3.047  0.8863  1.4541  0.1604
   37MOL    H9324645   6.789   4.380   3.146 -1.8694 -1.5216  1.0574
   37MOL    H9424646   6.670   4.662   3.168 -0.1697  0.7490  0.5610
   37MOL    H9524647   6.813   4.606   3.253  0.2531  3.1113 -0.7054
   37MOL    H9624648   6.841   4.762   3.070  0.6462 -0.7400  0.6990
   37MOL    H9724649   6.768   4.658   2.953 -0.9622  1.4576 -0.6996
   37MOL    H9824650   7.035   4.574   3.096  0.7612  0.8183  0.9162
   37MOL    H9924651   6.938   4.476   2.985  0.3003  0.6046 -0.5253
   37MOL   H10024652   7.123   4.709   2.934  0.2165  0.8369 -0.7665
   37MOL   H10124653   6.981   4.698   2.839 -1.8096 -0.6242  0.7910
   37MOL   H10224654   7.153   4.557   2.727 -1.8784  1.1246 -0.1693
   37MOL   H10324655   7.052   4.438   2.800  1.7346 -0.6066  0.9084
   37MOL   N10424656   7.287   4.344   2.885 -0.3529  0.1572 -0.1483
   37MOL   C10524657   7.406   4.293   2.942 -0.0378  0.8042  0.0590
   37MOL   C10624658   7.417   4.149   2.888 -0.1499 -0.8583  0.3876
   37MOL   C10724659   7.544   4.066   2.931  0.6624 -0.2733 -0.2060
   37MOL   C10824660   7.684   4.135   2.923  0.0931 -0.3924  0.4592
   37MOL   C10924661   0.079   4.058   2.992 -0.2620  0.1536  0.3014
   37MOL   C11024662   0.182   4.158   3.047  0.4043 -0.0328  0.2235
   37MOL   C11124663   0.288   4.097   3.136 -0.3011  0.2719  0.5767
   37MOL   C11224664   0.387   4.202   3.188 -0.0501  0.2725  0.1925
   37MOL   C11324665   0.465   4.141   3.314 -0.5441 -0.2641  0.0290
   37MOL   C11424666   0.523   4.252   3.399  0.2842  0.6300  0.8486
   37MOL   C11524667   0.593   4.201   3.525  0.0907  0.0125 -0.3607
   37MOL   O11624668   0.528   4.144   3.611  0.2484  0.3782  0.6608
   37MOL   H11724669   7.234   4.275   2.834  1.7014 -0.2873 -1.7361
   37MOL   H11824670   7.487   4.345   2.889 -0.1336  2.5318  1.5511
   37MOL   H11924671   7.411   4.287   3.051 -2.7991  0.8205  0.2188
   37MOL   H12024672   7.410   4.156   2.780 -1.0338 -2.3414  0.3270
   37MOL   H12124673   7.330   4.095   2.925  0.6138 -0.9278  2.1537
   37MOL   H12224674   7.536   4.025   3.031 -1.7091 -0.0665 -0.2885
   37MOL   H12324675   7.536   3.976   2.870 -2.7217 -2.3748  3.1668
   37MOL   H12424676   7.688   4.234   2.969  1.8736 -0.1366 -0.2011
   37MOL   H12524677   7.706   4.140   2.817 -1.2816 -2.6122  0.0535
   37MOL   H12624678   0.129   3.997   2.916  0.5925 -0.6566  1.4836
   37MOL   H12724679   0.044   3.992   3.071 -0.7632 -0.1469 -0.1625
   37MOL   H12824680   0.217   4.216   2.962 -0.9457  1.0437  0.3913
   37MOL   H12924681   0.132   4.232   3.109  2.1171  1.3857 -0.0426
   37MOL   H13024682   0.346   4.030   3.072 -0.3367  0.8412 -0.0711
   37MOL   H13124683   0.238   4.040   3.213  0.3748 -0.5649  0.3995
   37MOL   H13224684   0.460   4.230   3.113  0.3614 -1.7388 -0.1745
   37MOL   H13324685   0.337   4.295   3.217 -0.5350  0.0686  0.0285
   37MOL   H13424686   0.549   4.077   3.290 -0.3329 -0.2419  0.6970
   37MOL   H13524687   0.399   4.078   3.373 -2.7174  2.4328  0.6191
   37MOL   H13624688   0.439   4.317   3.423  0.4859  1.3277 -0.2636
   37MOL   H13724689   0.586   4.313   3.334  0.6820 -0.0327  0.6072
   37MOL   N13824690   0.721   4.223   3.539 -0.5733  0.0337  0.6931
   37MOL   C13924691   0.795   4.194   3.662  0.2697 -0.3462 -0.4477
   37MOL   C14024692   0.830   4.332   3.731  0.6847  0.6765  0.4301
   37MOL   C14124693   0.953   4.318   3.822  0.8875  0.1625 -0.1871
   37MOL   C14224694   0.928   4.298   3.965  0.0333  0.6499  0.1778
   37MOL   C14324695   0.855   4.168   3.999  0.4774  0.1406 -0.6595
   37MOL   C14424696   0.887   4.135   4.145  0.2517 -0.6694  0.3596
   37MOL   C14524697   0.796   4.026   4.197 -0.2171 -0.1565 -0.6635
   37MOL   C14624698   0.847   3.880   4.176  0.9345 -0.3834 -0.5234
   37MOL   C14724699   0.749   3.772   4.234 -0.2608  0.3225  0.2582
   37MOL   C14824700   0.787   3.630   4.192 -0.3087 -0.9488  0.0971
   37MOL   C14924701   0.892   3.569   4.275  0.3202 -0.0553 -0.5764
   37MOL   O15024702   0.972   3.631   4.341 -0.0187  0.4449 -0.5463
   37MOL   H15124703   0.776   4.264   3.464 -3.2696  0.4944 -1.1499
   37MOL   H15224704   0.743   4.135   3.737  2.6768  0.9976  2.3935
   37MOL   H15324705   0.884   4.144   3.623 -0.5996 -2.7542  0.6040
   37MOL   H15424706   0.739   4.364   3.781 -0.2724  1.4296 -1.7102
   37MOL   H15524707   0.848   4.408   3.655 -0.5562 -0.8237 -1.4023
   37MOL   H15624708   1.015   4.240   3.777 -0.5117 -0.3842 -1.2112
   37MOL   H15724709   1.018   4.405   3.816  0.8996  0.1981  0.4626
   37MOL   H15824710   0.869   4.377   4.013 -0.9079 -0.3213  0.6210
   37MOL   H15924711   1.024   4.289   4.017  0.0029 -2.8037 -0.2651
   37MOL   H16024712   0.896   4.091   3.933 -1.9791 -1.7937  0.0121
   37MOL   H16124713   0.750   4.171   3.969  0.1113  1.4916  0.7019
   37MOL   H16224714   0.993   4.121   4.166  0.9367  1.7817 -1.2259
   37MOL   H16324715   0.865   4.221   4.208  1.9312 -0.3244  0.5114
   37MOL   H16424716   0.696   4.041   4.156 -0.4783 -0.3872 -0.1146
   37MOL   H16524717   0.786   4.048   4.304 -1.1000  0.7799 -0.9281
   37MOL   H16624718   0.873   3.862   4.072  2.2727 -0.8619 -0.1111
   37MOL   H16724719   0.942   3.879   4.230 -0.3833  0.4104  1.8812
   37MOL   H16824720   0.648   3.795   4.200 -0.3576 -2.2961 -1.3917
   37MOL   H16924721   0.755   3.779   4.342 -1.1926 -1.5556  0.4563
   37MOL   H17024722   0.810   3.622   4.086 -1.2059  1.1627 -0.2840
   37MOL   H17124723   0.695   3.578   4.219 -1.3349  0.3168 -0.8543
   37MOL   N17224724   0.899   3.437   4.278 -0.2317  0.0476  0.1210
   37MOL   C17324725   0.998   3.349   4.354 -0.2380  0.2885  0.2941
   37MOL   C17424726   1.073   3.251   4.263  0.1927  0.1710  0.3543
   37MOL   C17524727   0.979   3.184   4.157  0.4450 -0.8709  0.1645
   37MOL   C17624728   1.046   3.075   4.073  0.2363 -1.0333 -0.1410
   37MOL   C17724729   0.937   2.996   3.995 -0.1366 -0.4128 -0.2794
   37MOL   C17824730   0.992   2.894   3.900 -0.4840 -0.2359  0.6478
   37MOL   C17924731   0.885   2.809   3.838  0.2076  0.3407  0.0509
   37MOL   C18024732   0.932   2.702   3.736  0.2213  0.2956  0.2829
   37MOL   C18124733   0.824   2.617   3.674 -0.0814  0.4589  0.4910
   37MOL   C18224734   0.854   2.520   3.564  0.1745  0.0887 -0.2898
   37MOL   C18324735   0.903   2.593   3.437  0.3655  0.8608  0.5663
   37MOL   O18424736   1.009   2.659   3.429  0.5570  0.0663 -0.0739
   37MOL   H18524737   0.808   3.397   4.263  0.0722 -0.8923  0.7294
   37MOL   H18624738   1.074   3.412   4.399  0.0389  0.9561 -1.0803
   37MOL   H18724739   0.938   3.305   4.433  2.8310 -2.8596  0.9756
   37MOL   H18824740   1.121   3.181   4.330  0.1072  0.5931  0.8604
   37MOL   H18924741   1.155   3.309   4.219  0.0131  0.2838  0.1640
   37MOL   H19024742   0.891   3.142   4.205 -0.3712 -0.7881 -1.2571
   37MOL   H19124743   0.937   3.257   4.089 -0.0178 -0.8033  0.5231
   37MOL   H19224744   1.107   3.013   4.138 -0.2410 -0.5054  0.8285
   37MOL   H19324745   1.104   3.126   3.996 -1.7484 -0.1057 -1.0816
   37MOL   H19424746   0.883   3.074   3.940  0.5740  0.2561 -0.0356
   37MOL   H19524747   0.878   2.948   4.073  2.1726 -1.5144  0.8105
   37MOL   H19624748   1.041   2.951   3.821 -1.1270 -2.2756 -1.2883
   37MOL   H19724749   1.073   2.828   3.930  1.3871  2.0968  0.8915
   37MOL   H19824750   0.808   2.872   3.793 -1.5855 -1.0344  1.1351
   37MOL   H19924751   0.826   2.753   3.911  1.5949  0.5300  1.3420
   37MOL   H20024752   0.992   2.763   3.668  1.1452 -0.1784  0.6570
   37MOL   H20124753   1.006   2.633   3.776  1.0612  0.8137 -0.3540
   37MOL   H20224754   0.749   2.687   3.636  1.6745  0.6106 -2.8612
   37MOL   H20324755   0.782   2.559   3.756  0.7568  0.3698  0.8614
   37MOL   H20424756   0.757   2.474   3.544  0.7588 -1.8743  1.1761
   37MOL   H20524757   0.932   2.450   3.595  0.4830 -0.3348 -1.9289
   37MOL   N20624758   0.810   2.578   3.339  0.0708 -0.7189 -0.0583
   37MOL   C20724759   0.809   2.626   3.210 -0.4441  0.0217 -0.6544
   37MOL   C20824760   0.782   2.780   3.192 -0.1418  0.0525  0.0689
   37MOL   C20924761   0.797   2.850   3.046 -0.3488  0.1526 -0.4706
   37MOL   C21024762   0.934   2.824   2.979 -0.2477 -0.6891 -0.4854
   37MOL   C21124763   0.936   2.882   2.838 -0.2775 -0.4497  0.1285
   37MOL   C21224764   1.074   2.890   2.776 -0.1232  0.8933 -0.1638
   37MOL   C21324765   1.073   2.972   2.645  0.6594 -0.4211 -0.3713
   37MOL   C21424766   1.064   3.121   2.673 -0.8876  0.4352  0.4402
   37MOL   C21524767   1.109   3.199   2.542  0.2544  0.1103 -0.6070
   37MOL   C21624768   1.009   3.203   2.430  0.3255 -0.8869 -0.1299
   37MOL   C21724769   0.997   3.070   2.354  0.4077  0.1808 -0.0428
   37MOL   O21824770   1.095   3.012   2.315 -0.3717  0.4398  0.9466
   37MOL   H21924771   0.727   2.523   3.355 -1.1766  0.5873 -1.6562
   37MOL   H22024772   0.728   2.586   3.149  0.3526 -0.9574 -1.0885
   37MOL   H22124773   0.909   2.596   3.178  0.3152  0.5679  1.1531
   37MOL   H22224774   0.870   2.813   3.248 -0.8975 -0.2364  1.4509
   37MOL   H22324775   0.700   2.826   3.248  0.9243  1.6261  0.3582
   37MOL   H22424776   0.711   2.839   2.980 -0.4302 -0.0100 -0.3379
   37MOL   H22524777   0.796   2.955   3.073 -0.6826 -0.5581  2.4312
   37MOL   H22624778   0.949   2.718   2.964 -0.1411 -0.7767  0.2244
   37MOL   H22724779   1.010   2.868   3.043  1.4219 -0.0115 -2.8774
   37MOL   H22824780   0.891   2.981   2.829 -2.1086 -1.3184 -0.3759
   37MOL   H22924781   0.878   2.812   2.778 -0.2075 -2.0967  1.9131
   37MOL   H23024782   1.133   2.942   2.852  1.5828 -0.8768 -0.2684
   37MOL   H23124783   1.116   2.791   2.761  1.5241  1.7079 -1.0336
   37MOL   H23224784   0.985   2.941   2.588  0.4922 -0.6376  0.0054
   37MOL   H23324785   1.159   2.951   2.581  0.4019 -0.2086 -0.7894
   37MOL   H23424786   0.964   3.143   2.710 -0.3447  1.0770  1.5573
   37MOL   H23524787   1.126   3.157   2.755  4.0370 -1.3623 -2.2145
   37MOL   H23624788   1.210   3.174   2.509 -0.8106 -1.2422 -2.9755
   37MOL   H23724789   1.131   3.298   2.582 -1.4333  0.6390 -0.9316
   37MOL   H23824790   1.031   3.283   2.359  2.1067  0.7753  2.1993
   37MOL   H23924791   0.910   3.217   2.475  0.8052  0.2383  0.6174
   37MOL   N24024792   0.871   3.017   2.326 -0.5174  0.9098 -0.7945
   37MOL   C24124793   0.835   2.903   2.247 -0.6423 -0.1525  0.5274
   37MOL   C24224794   0.859   2.777   2.331  0.2564 -0.7087  0.1743
   37MOL   C24324795   0.758   2.753   2.444  0.6380 -0.5565 -0.0468
   37MOL   C24424796   0.790   2.638   2.545  0.3632  0.0292  0.3513
   37MOL   C24524797   0.679   2.615   2.650 -0.4790  0.1940 -0.3407
   37MOL   C24624798   0.721   2.501   2.747  0.4837  0.5170  0.5602
   37MOL   C24724799   0.608   2.464   2.838 -0.4568 -0.3160 -0.4441
   37MOL   C24824800   0.640   2.351   2.933  0.2443  0.1506  0.2472
   37MOL   C24924801   0.656   2.206   2.877 -0.1450 -0.0662  0.1970
   37MOL   C25024802   0.679   2.093   2.981  0.2430  0.1168 -0.3446
   37MOL   C25124803   0.680   1.955   2.909 -0.7295  0.1050 -1.1234
   37MOL   O25224804   0.591   1.869   2.922  0.0062  0.4258  0.0400
   37MOL   H25324805   0.795   3.058   2.379  0.6015 -0.8803  2.3830
   37MOL   H25424806   0.899   2.893   2.160  0.9426  1.6115  1.4594
   37MOL   H25524807   0.730   2.912   2.219  0.1785  0.6082 -2.4799
   37MOL   H25624808   0.958   2.787   2.376 -0.5100 -2.2055  2.2962
   37MOL   H25724809   0.852   2.694   2.261  1.4274  2.4852 -3.9832
   37MOL   H25824810   0.737   2.849   2.490  0.0377  0.0479 -1.5290
   37MOL   H25924811   0.663   2.727   2.397  1.1713 -0.2713 -1.2928
   37MOL   H26024812   0.884   2.652   2.598 -0.0166  0.8308  0.8203
   37MOL   H26124813   0.806   2.547   2.487  1.3951  1.0997 -1.0961
   37MOL   H26224814   0.586   2.586   2.601 -0.6282 -0.6908  0.4584
   37MOL   H26324815   0.644   2.708   2.694 -1.0056 -0.4863  0.6851
   37MOL   H26424816   0.747   2.416   2.686 -1.8848  1.0337 -1.2333
   37MOL   H26524817   0.817   2.522   2.794  1.6523  0.3364 -1.6906
   37MOL   H26624818   0.530   2.429   2.770 -0.5030 -3.1385  0.9806
   37MOL   H26724819   0.577   2.550   2.898 -1.3781  0.1632 -1.6017
   37MOL   H26824820   0.722   2.377   3.001  1.1259 -1.1957 -0.2610
   37MOL   H26924821   0.552   2.347   2.997 -0.4445  2.2484 -0.5645
   37MOL   H27024822   0.737   2.202   2.803 -0.6133  0.2932 -0.3426
   37MOL   H27124823   0.570   2.176   2.817 -0.5554  0.4387  0.5223
   37MOL   H27224824   0.594   2.097   3.049  0.4607 -0.8445  0.0057
   37MOL   H27324825   0.773   2.114   3.032 -0.1864  0.0954  0.4604
   37MOL   N27424826   0.791   1.921   2.840  0.7639 -0.2359  0.6453
   37MOL   C27524827   0.920   1.984   2.836  0.4053 -0.5629  0.6788
   37MOL   C27624828   0.990   1.952   2.705 -0.1941 -0.4320  0.2500
   37MOL   C27724829   1.114   2.044   2.679 -0.5114 -0.6099  0.0636
   37MOL   C27824830   1.240   1.972   2.630 -0.6164  0.2698  0.4688
   37MOL   C27924831   1.360   2.070   2.646 -0.0648  0.7844  0.6965
   37MOL   C28024832   1.499   2.011   2.596  0.1224 -0.0499  0.6520
   37MOL   C28124833   1.618   1.997   2.700  0.1104 -0.1609  0.0946
   37MOL   C28224834   1.742   1.933   2.633  0.5033 -0.2124 -0.6546
   37MOL   C28324835   1.879   1.984   2.693  0.5721 -0.1618 -0.3304
   37MOL   C28424836   2.013   1.920   2.651 -0.7181 -0.3826  0.1269
   37MOL   C28524837   2.038   1.788   2.722 -0.1413  0.2554  0.9201
   37MOL   O28624838   1.980   1.749   2.821  0.0638 -0.1264  0.2337
   37MOL   H28724839   0.793   1.833   2.791  1.1708  0.9788 -1.5686
   37MOL   H28824840   0.978   1.949   2.921  0.5231 -1.6226  0.1707
   37MOL   H28924841   0.921   2.093   2.842  0.3211 -0.5958  1.3075
   37MOL   H29024842   0.923   1.964   2.620  0.5319  0.5811 -0.1879
   37MOL   H29124843   1.016   1.846   2.702  0.6076 -0.2570  0.7460
   37MOL   H29224844   1.078   2.134   2.629 -0.5315  0.6248  2.2307
   37MOL   H29324845   1.149   2.089   2.772  1.6548 -0.2410 -0.8762
   37MOL   H29424846   1.235   1.935   2.528 -0.3160  0.0756  0.5234
   37MOL   H29524847   1.254   1.880   2.686 -1.6619  0.2189  0.6557
   37MOL   H29624848   1.367   2.109   2.748 -0.1935  0.6766  0.7456
   37MOL   H29724849   1.343   2.155   2.579  3.8286  0.8313 -0.3422
   37MOL   H29824850   1.483   1.912   2.552 -1.4351  0.2648  0.4656
   37MOL   H29924851   1.520   2.069   2.506 -1.3030 -1.3125 -0.5131
   37MOL   H30024852   1.578   1.920   2.766  2.0104 -1.5346 -0.3235
   37MOL   H30124853   1.645   2.086   2.757 -1.0731  0.5161 -0.3812
   37MOL   H30224854   1.725   1.826   2.635 -1.0306 -0.0180 -1.9503
   37MOL   H30324855   1.745   1.954   2.526  1.3589  1.8505 -0.2531
   37MOL   H30424856   1.869   1.967   2.800  0.4876 -2.3877 -0.6840
   37MOL   H30524857   1.894   2.092   2.696 -3.7471  0.4850  1.9238
   37MOL   H30624858   2.086   1.981   2.705  0.5878 -1.0721 -0.8412
   37MOL   H30724859   2.026   1.932   2.544 -2.8456  0.4531 -0.0591
   37MOL   N30824860   2.122   1.706   2.649 -0.4989 -0.4672 -0.2439
   37MOL   C30924861   2.149   1.567   2.690 -0.2400  0.0265 -0.5315
   37MOL   C31024862   2.069   1.471   2.607 -0.0042  0.0325 -1.1798
   37MOL   C31124863   2.129   1.442   2.465  0.1196  0.3345 -0.3064
   37MOL   C31224864   2.021   1.380   2.378  0.1523  0.2606 -0.0822
   37MOL   C31324865   2.051   1.403   2.224  0.5446  0.0585 -0.5734
   37MOL   C31424866   2.164   1.324   2.160  0.3605 -0.0936 -0.4500
   37MOL   C31524867   2.168   1.322   2.002 -0.5462 -0.6492  0.1525
   37MOL   C31624868   2.300   1.276   1.953  0.1839  0.1183  0.0839
   37MOL   C31724869   2.315   1.284   1.802 -0.7592 -0.3707  0.3653
   37MOL   C31824870   2.352   1.426   1.752 -0.4926 -0.8267 -0.1989
   37MOL   C31924871   2.396   1.436   1.608  0.1240 -0.2226 -0.0168
   37MOL   O32024872   2.494   1.376   1.568 -0.2591 -0.0939 -0.1935
   37MOL   H32124873   2.167   1.751   2.571  1.2006  0.7148  1.3684
   37MOL   H32224874   2.133   1.558   2.797 -1.4622  1.2852 -0.5957
   37MOL   H32324875   2.256   1.559   2.667  0.5170  3.9034  1.2179
   37MOL   H32424876   1.966   1.506   2.602  0.0111  0.1238 -0.8460
   37MOL   H32524877   2.063   1.373   2.655 -2.9728 -0.0433 -1.5803
   37MOL   H32624878   2.155   1.534   2.413  0.2647 -0.9631 -2.6164
   37MOL   H32724879   2.223   1.388   2.467  0.0985  0.3226  2.6057
   37MOL   H32824880   1.921   1.416   2.400  0.6115  1.6210 -0.1984
   37MOL   H32924881   2.025   1.271   2.389  2.2303  0.4382  1.1645
   37MOL   H33024882   2.061   1.508   2.196 -0.2909  0.7388  1.5778
   37MOL   H33124883   1.962   1.379   2.166 -0.1494  1.0263  0.0751
   37MOL   H33224884   2.257   1.370   2.196  0.7721 -1.4901  0.2933
   37MOL   H33324885   2.166   1.223   2.200  0.4912 -0.1959 -0.7064
   37MOL   H33424886   2.130   1.418   1.968 -0.6200  0.1024  2.2967
   37MOL   H33524887   2.092   1.247   1.979 -1.3421 -0.5829  2.4239
   37MOL   H33624888   2.389   1.321   1.998  0.1899  0.3090 -0.1129
   37MOL   H33724889   2.310   1.173   1.984 -2.2236  0.3194  1.6596
   37MOL   H33824890   2.226   1.242   1.755 -1.3484  1.2833 -0.0585
   37MOL   H33924891   2.399   1.220   1.777 -1.2680 -1.8041  2.2350
   37MOL   H34024892   2.443   1.458   1.804 -1.2695 -0.3429  0.8712
   37MOL   H34124893   2.273   1.498   1.772  0.4128 -0.0883  0.7954
   37MOL   N34224894   2.312   1.510   1.532 -0.6626  0.4966 -0.2580
   37MOL   C34324895   2.346   1.546   1.401  0.0176  0.0149  0.0988
   37MOL   C34424896   2.223   1.608   1.341 -0.0927 -0.7527 -0.0897
   37MOL   C34524897   2.241   1.655   1.197 -0.4723 -0.2334  0.4539
   37MOL   C34624898   2.105   1.687   1.133 -0.0023 -0.0437  0.8648
   37MOL   C34724899   2.011   1.776   1.214 -0.0110  0.1384 -0.5169
   37MOL   C34824900   1.872   1.779   1.142  0.0662 -0.4634  0.6415
   37MOL   C34924901   1.867   1.866   1.012 -0.0385  0.0013  0.8916
   37MOL   C35024902   1.726   1.879   0.942  0.8947 -0.3550 -0.0006
   37MOL   C35124903   1.649   1.745   0.945  0.6867  0.4474 -0.4156
   37MOL   C35224904   1.504   1.760   0.882  0.2055 -0.1795 -0.4105
   37MOL   C35324905   1.506   1.787   0.735  0.1621 -0.5816  0.1394
   37MOL   O35424906   1.581   1.720   0.659  0.3936 -0.0387  0.2096
   37MOL   H35524907   2.233   1.550   1.580  0.2269  0.9323  0.8923
   37MOL   H35624908   2.436   1.606   1.398 -0.5438  0.9774  1.8158
   37MOL   H35724909   2.368   1.458   1.339  1.2853 -0.3436  1.0658
   37MOL   H35824910   2.189   1.695   1.397 -0.8352  1.4536 -3.7510
   37MOL   H35924911   2.135   1.543   1.343  0.8677 -2.0189  1.8336
   37MOL   H36024912   2.312   1.736   1.184 -2.0032  0.7574 -2.1663
   37MOL   H36124913   2.274   1.569   1.138 -3.1040  0.4989 -2.1871
   37MOL   H36224914   2.050   1.595   1.113 -0.0905 -0.0573  1.1706
   37MOL   H36324915   2.123   1.744   1.042 -1.3848 -4.0893 -2.0812
   37MOL   H36424916   2.042   1.880   1.202 -1.1269  0.3672 -1.5138
   37MOL   H36524917   2.003   1.746   1.318 -1.8480 -0.3744 -0.7932
   37MOL   H36624918   1.836   1.678   1.120  1.4465 -0.9001  0.3142
   37MOL   H36724919   1.798   1.812   1.214  0.1862  0.8952  0.1594
   37MOL   H36824920   1.936   1.821   0.940 -0.1658 -1.0021  1.3823
   37MOL   H36924921   1.905   1.963   1.044  1.1515  0.1099 -0.7874
   37MOL   H37024922   1.680   1.959   1.001  0.2911 -0.3908 -0.4086
   37MOL   H37124923   1.741   1.920   0.842 -0.2837 -0.8968 -0.4199
   37MOL   H37224924   1.621   1.714   1.045 -1.1796 -1.0645 -1.3633
   37MOL   H37324925   1.703   1.665   0.894  0.9699 -0.0221  0.6185
   37MOL   H37424926   1.433   1.811   0.947 -1.1690  0.3188 -2.2386
   37MOL   H37524927   1.464   1.659   0.881  0.6891 -0.3674 -2.1084
   37MOL   N37624928   1.416   1.867   0.687 -0.1706 -0.6886  0.5571
   37MOL   C37724929   1.400   1.920   0.545 -0.4082  0.1776  0.2224
   37MOL   C37824930   1.439   2.064   0.543  0.5514 -0.3809  0.0853
   37MOL   C37924931   1.407   2.139   0.410  0.2045  0.3324 -0.1888
   37MOL   C38024932   1.458   2.288   0.421 -0.4015  0.8384  0.4541
   37MOL   C38124933   1.376   2.376   0.506  0.1093 -0.0408 -0.0723
   37MOL   C38224934   1.428   2.395   0.646  0.4113  0.2955  0.0396
   37MOL   C38324935   1.378   2.513   0.733  0.0246  0.2062 -0.3333
   37MOL   C38424936   1.397   2.495   0.884  0.0228 -0.0326 -0.0730
   37MOL   C38524937   1.357   2.630   0.954 -0.3555 -1.2252  0.3566
   37MOL   C38624938   1.321   2.620   1.101 -0.0561 -0.0170 -0.2471
   37MOL   C38724939   1.425   2.547   1.187  0.3432  0.7627 -0.5194
   37MOL   O38824940   1.542   2.581   1.178  0.3600 -1.0737 -0.3535
   37MOL   H38924941   1.361   1.919   0.754 -0.2969 -0.6211  0.4033
   37MOL   H39024942   1.470   1.874   0.475 -1.2962 -2.0165  0.7463
   37MOL   H39124943   1.293   1.911   0.528 -0.3994 -2.7259  1.4415
   37MOL   H39224944   1.545   2.071   0.568  0.3091 -0.3504  1.1210
   37MOL   H39324945   1.384   2.113   0.623  0.5547 -0.2934  0.0337
   37MOL   H39424946   1.449   2.096   0.319  2.2149  0.1581  0.7915
   37MOL   H39524947   1.298   2.133   0.397  0.3549  1.6338 -2.2970
   37MOL   H39624948   1.451   2.319   0.316  1.6271 -1.9560 -0.5527
   37MOL   H39724949   1.565   2.296   0.441 -0.3738  1.5054  0.0526
   37MOL   H39824950   1.272   2.345   0.515 -0.2318  0.2398 -2.8531
   37MOL   H39924951   1.389   2.475   0.462 -0.5979  0.2356  0.3256
   37MOL   H40024952   1.396   2.313   0.709  0.0639 -1.1275 -1.9217
   37MOL   H40124953   1.537   2.395   0.649  0.3830  0.0623  1.0908
   37MOL   H40224954   1.270   2.506   0.721  0.1157  0.5185 -1.4489
   37MOL   H40324955   1.400   2.612   0.692 -1.3587  0.7482  0.1870
   37MOL   H40424956   1.335   2.413   0.921  0.2244  0.1767  0.7251
   37MOL   H40524957   1.502   2.478   0.906  0.4187  1.5946 -0.6621
   37MOL   H40624958   1.271   2.676   0.904  0.6514 -1.0121 -1.2110
   37MOL   H40724959   1.441   2.699   0.946  0.0673 -1.8565 -0.7841
   37MOL   H40824960   1.223   2.572   1.105  1.1766 -2.6418 -0.5839
   37MOL   H40924961   1.314   2.719   1.146 -2.2794 -0.3143  0.0990
   37MOL   N41024962   1.378   2.447   1.263  0.1500 -1.0759  0.1207
   37MOL   C41124963   1.454   2.374   1.354 -0.2120  0.2363  0.3436
   37MOL   C41224964   1.375   2.338   1.477 -0.9081 -0.2927 -0.5479
   37MOL   C41324965   1.457   2.280   1.592  0.1025 -0.5704 -0.0862
   37MOL   C41424966   1.387   2.263   1.732 -0.4416  0.1843 -0.1122
   37MOL   C41524967   1.233   2.226   1.744 -0.5083 -0.7340  0.4512
   37MOL   C41624968   1.185   2.103   1.670  0.6545  0.2363  0.2468
   37MOL   C41724969   1.031   2.084   1.666  0.0842 -0.0311  0.4201
   37MOL   C41824970   0.958   2.174   1.568  0.3773  0.3233  0.2220
   37MOL   C41924971   0.972   2.128   1.423  0.3920 -0.3822  0.2543
   37MOL   C42024972   0.899   2.221   1.320 -0.1984 -0.0137  0.1772
   37MOL   C42124973   0.971   2.352   1.293  0.7021  0.4710 -0.6508
   37MOL   O42224974   1.090   2.351   1.268 -0.3116 -0.4467 -0.0259
   37MOL   H42324975   1.278   2.436   1.263  0.1639 -1.2094  0.3944
   37MOL   H42424976   1.480   2.279   1.306 -0.9311  0.4808 -0.5353
   37MOL   H42524977   1.546   2.425   1.380  0.3608 -1.0223  0.8128
   37MOL   H42624978   1.295   2.266   1.461  0.0822 -1.4726 -0.3625
   37MOL   H42724979   1.327   2.429   1.513  0.3411 -0.3224  1.2850
   37MOL   H42824980   1.485   2.177   1.567 -0.1942 -1.3404  2.6184
   37MOL   H42924981   1.548   2.339   1.607  0.5460 -1.1382 -0.4764
   37MOL   H43024982   1.407   2.354   1.788 -0.2205 -0.9555  1.7268
   37MOL   H43124983   1.437   2.184   1.788  0.8448  0.2922 -1.0896
   37MOL   H43224984   1.178   2.311   1.701  1.1244  0.3772  0.5236
   37MOL   H43324985   1.213   2.217   1.851  0.9515  2.1726  1.0189
   37MOL   H43424986   1.225   2.107   1.569  0.5139 -0.1290  0.1772
   37MOL   H43524987   1.237   2.013   1.702  0.6061  0.0073 -0.3209
   37MOL   H43624988   0.985   2.103   1.763  0.2404 -1.3664  0.7729
   37MOL   H43724989   1.011   1.980   1.639 -1.3079 -0.4076  2.6902
   37MOL   H43824990   0.853   2.171   1.597 -0.2125  0.5508 -1.8057
   37MOL   H43924991   0.988   2.278   1.583 -1.2850  0.9028 -0.3483
   37MOL   H44024992   0.931   2.028   1.417  0.2148 -0.1545 -3.2645
   37MOL   H44124993   1.076   2.113   1.393  0.5183  1.4794 -0.3222
   37MOL   H44224994   0.798   2.244   1.355 -0.0240 -0.3931  0.9393
   37MOL   H44324995   0.879   2.173   1.225 -0.3599  0.6193 -0.1142
   37MOL   N44424996   0.899   2.466   1.304  0.1972 -0.2354  0.6048
   37MOL   C44524997   0.951   2.600   1.278 -0.1216  0.4916  0.1606
   37MOL   C44624998   0.905   2.627   1.130  0.0439 -0.6304 -0.6588
   37MOL   C44724999   0.959   2.766   1.081  0.3240  0.3135 -0.1649
   37MOL   C44825000   0.923   2.786   0.930  0.2561 -0.4993 -0.0131
   37MOL   C44925001   1.000   2.912   0.885 -0.3026 -0.4931  0.1847
   37MOL   C45025002   0.967   2.948   0.733 -0.1912 -0.3523 -0.3709
   37MOL   C45125003   0.821   2.968   0.690 -0.0628 -0.0299 -0.2804
   37MOL   C45225004   0.743   3.050   0.778  0.0449  0.3888 -0.0463
   37MOL   C45325005   0.729   3.203   0.746  0.8216  0.0279 -0.3126
   37MOL   C45425006   0.641   3.279   0.842 -0.1727  0.2473 -0.2390
   37MOL   C45525007   0.702   3.324   0.978  0.4567 -0.9321 -0.3467
   37MOL   O45625008   0.782   3.420   0.980  0.5032 -0.1888 -0.4985
   37MOL   H45725009   0.799   2.457   1.302  0.1602 -0.1213  1.5470
   37MOL   H45825010   0.915   2.677   1.347  0.1490  2.3090 -1.7017
   37MOL   H45925011   1.059   2.605   1.287 -0.1094  0.6147 -0.0746
   37MOL   H46025012   0.800   2.607   1.109  0.7579 -2.5312 -2.6036
   37MOL   H46125013   0.953   2.546   1.075 -1.4335 -1.8340 -0.2031
   37MOL   H46225014   0.904   2.834   1.146 -0.3740  0.0499 -0.4747
   37MOL   H46325015   1.063   2.785   1.107  0.1249 -1.3543  1.9463
   37MOL   H46425016   0.819   2.815   0.916  0.2948  0.0827  0.9063
   37MOL   H46525017   0.956   2.701   0.869  0.3445 -0.5683  0.1317
   37MOL   H46625018   1.106   2.890   0.900  0.1708  1.1404 -0.6652
   37MOL   H46725019   0.975   3.002   0.941 -1.6322 -0.4188 -0.5084
   37MOL   H46825020   1.018   3.042   0.713 -0.6518  0.7448  3.3551
   37MOL   H46925021   1.000   2.872   0.662  2.0462 -0.9531  1.2602
   37MOL   H47025022   0.775   2.869   0.692 -1.6080  0.7201  2.3171
   37MOL   H47125023   0.815   3.012   0.590 -0.8289  0.3679 -0.0569
   37MOL   H47225024   0.640   3.016   0.761 -0.6546  0.9589  2.8591
   37MOL   H47325025   0.760   3.030   0.884  0.8436  0.4457 -0.1625
   37MOL   H47425026   0.696   3.211   0.642 -0.5307 -2.7859 -0.1329
   37MOL   H47525027   0.824   3.256   0.740  0.6459  0.3194 -0.5649
   37MOL   H47625028   0.544   3.231   0.858  0.0081  0.3561  1.2699
   37MOL   H47725029   0.607   3.366   0.786  0.6973  0.4968 -0.3771
   37MOL   N47825030   0.678   3.248   1.088 -0.4361 -0.1903  0.3010
   37MOL   C47925031   0.735   3.255   1.222 -0.0203  0.0039  0.2025
   37MOL   C48025032   0.661   3.360   1.305 -0.4304  0.1724 -0.3261
   37MOL   C48125033   0.739   3.389   1.434  0.3277  0.1260 -0.3391
   37MOL   C48225034   0.653   3.447   1.545  0.7967 -0.1377  0.3105
   37MOL   C48325035   0.724   3.442   1.681 -0.2228 -0.2709 -0.0800
   37MOL   C48425036   0.667   3.540   1.786 -0.3246  0.2331 -0.0579
   37MOL   C48525037   0.763   3.539   1.909  0.2598 -0.2629 -0.4379
   37MOL   C48625038   0.910   3.596   1.892 -0.0942  0.0008 -0.0624
   37MOL   C48725039   0.984   3.605   2.027  0.0219  0.3111 -0.2291
   37MOL   C48825040   1.122   3.684   2.022 -0.0739  0.2902 -0.0124
   37MOL   C48925041   1.166   3.701   2.172  0.2295  0.0106 -0.2119
   37MOL   O49025042   1.154   3.605   2.255  0.5803  0.2963  0.6006
   37MOL   H49125043   0.612   3.176   1.060  0.9727 -1.3406 -0.1070
   37MOL   H49225044   0.733   3.157   1.269 -0.3982 -0.9531 -1.7357
   37MOL   H49325045   0.838   3.290   1.209 -0.6415  0.9521 -2.5147
   37MOL   H49425046   0.565   3.312   1.325  1.0809 -3.1537 -0.6681
   37MOL   H49525047   0.646   3.447   1.241  0.4707  0.1209 -0.6252
   37MOL   H49625048   0.778   3.291   1.462  0.2187 -0.1774 -1.2585
   37MOL   H49725049   0.833   3.442   1.416  0.9624 -2.0101 -3.5384
   37MOL   H49825050   0.560   3.389   1.546 -0.0102  1.1232  2.9477
   37MOL   H49925051   0.631   3.548   1.511 -1.1758 -0.7158 -0.2015
   37MOL   H50025052   0.832   3.456   1.680  0.1206 -2.7098 -0.2224
   37MOL   H50125053   0.710   3.346   1.730  1.0378 -0.5540 -0.2735
   37MOL   H50225054   0.651   3.643   1.757 -1.1357  0.4574  1.1584
   37MOL   H50325055   0.569   3.502   1.815  1.8064 -4.9805  1.0212
   37MOL   H50425056   0.772   3.440   1.953  1.3854  0.6045  1.3200
   37MOL   H50525057   0.705   3.598   1.979  0.9371  0.0289 -0.1211
   37MOL   H50625058   0.969   3.536   1.822 -1.8038  1.1676 -2.6031
   37MOL   H50725059   0.900   3.697   1.852 -2.4560  0.0340  0.5491
   37MOL   H50825060   0.991   3.508   2.076  1.4606  0.7811  0.5382
   37MOL   H50925061   0.914   3.664   2.085 -0.8480  0.3085 -1.2592
   37MOL   H51025062   1.111   3.776   1.965  0.2556 -0.8048 -1.8740
   37MOL   H51125063   1.195   3.629   1.962 -0.5646  0.8930 -1.1654
   37MOL   N51225064   1.202   3.824   2.212 -0.0042 -0.1419  0.3892
   37MOL   C51325065   1.241   3.875   2.346 -0.2355 -0.2691  0.3156
   37MOL   C51425066   1.163   3.999   2.381 -1.0674 -0.1786  0.3317
   37MOL   C51525067   1.184   4.127   2.303 -0.6459  0.7572  0.0338
   37MOL   C51625068   1.123   4.256   2.360  0.2113  0.8812  0.3296
   37MOL   C51725069   0.977   4.235   2.391 -0.5326  0.1151  0.4548
   37MOL   C51825070   0.886   4.360   2.375 -0.0963 -0.5593 -0.0110
   37MOL   C51925071   0.747   4.330   2.432  0.3146  0.1830 -0.4410
   37MOL   C52025072   0.677   4.463   2.459 -0.8241 -0.4779 -0.4296
   37MOL   C52125073   0.535   4.451   2.523  0.2310  0.1343  0.0315
   37MOL   C52225074   0.495   4.582   2.594  0.0168  0.4113 -0.1748
   37MOL   C52325075   0.423   4.688   2.509  0.1857  0.8927  0.5700
   37MOL   O52425076   0.474   4.733   2.407  0.6842 -0.2742  0.4681
   37MOL   H52525077   1.214   3.890   2.136  0.3838 -1.8391 -1.0493
   37MOL   H52625078   1.224   3.801   2.424  1.4304 -0.3659  0.5981
   37MOL   H52725079   1.348   3.892   2.337 -0.5417  1.7159  0.1770
   37MOL   H52825080   1.200   4.019   2.481  2.7858 -1.9342 -0.6627
   37MOL   H52925081   1.057   3.975   2.397 -1.0882 -0.2161  0.1382
   37MOL   H53025082   1.286   4.161   2.284  0.1904 -2.0746 -0.8056
   37MOL   H53125083   1.144   4.109   2.203  0.0621  2.5132 -0.5958
   37MOL   H53225084   1.142   4.333   2.286  0.5836 -0.7065 -1.2518
   37MOL   H53325085   1.179   4.300   2.443  0.0737  2.2532 -0.2945
   37MOL   H53425086   0.970   4.203   2.495  0.1056 -0.9078  0.1913
   37MOL   H53525087   0.934   4.161   2.323  1.3830  0.4986 -1.2332
   37MOL   H53625088   0.929   4.447   2.425  0.8449  0.2110 -2.1090
   37MOL   H53725089   0.872   4.390   2.271 -1.6032  0.3746  0.4571
   37MOL   H53825090   0.748   4.270   2.523 -0.1297 -0.2821 -0.7471
   37MOL   H53925091   0.681   4.282   2.361 -0.9466  0.2364  0.6757
   37MOL   H54025092   0.739   4.516   2.532 -0.2701  0.3804 -1.5241
   37MOL   H54125093   0.671   4.526   2.371 -0.4551 -0.7006 -0.6177
   37MOL   H54225094   0.526   4.366   2.591 -1.0813 -1.1891 -1.7526
   37MOL   H54325095   0.465   4.426   2.444  0.9562  1.1803 -0.9573
   37MOL   H54425096   0.585   4.629   2.634  0.3569 -0.4164  0.0555
   37MOL   H54525097   0.441   4.562   2.687  1.4648  3.1670  1.3016
   37MOL   N54625098   0.302   4.717   2.563 -0.1833 -0.7977  0.1852
   37MOL   C54725099   0.197   4.786   2.499 -0.2779 -1.0964 -0.4968
   37MOL   C54825100   0.214   4.938   2.506  0.0280  0.0365  0.5803
   37MOL   C54925101   0.098   5.021   2.453  0.8413  0.0651 -0.4025
   37MOL   C55025102   0.133   5.171   2.434  0.4981 -0.1687 -0.0978
   37MOL   C55125103   0.006   5.251   2.381  0.7285 -0.2844  0.4761
   37MOL   C55225104   0.033   5.398   2.361  0.0288  0.3329  0.5839
   37MOL   C55325105   7.624   5.469   2.310  0.0892  1.1022 -0.0304
   37MOL   C55425106   7.586   5.458   2.160  0.8849  0.0560  0.1503
   37MOL   C55525107   7.482   5.566   2.123 -0.5886 -0.7559 -0.4020
   37MOL   C55625108   7.453   5.560   1.974 -0.2369 -0.3570 -0.3658
   37MOL   C55725109   7.333   5.655   1.953  0.2399  0.3480 -0.4976
   37MOL   O55825110   7.350   5.772   1.979 -0.5830  0.7086 -0.7048
   37MOL   H55925111   0.263   4.666   2.640 -0.5400  1.2472  1.3953
   37MOL   H56025112   0.200   4.761   2.393 -3.0365  0.4060 -0.9725
   37MOL   H56125113   0.103   4.749   2.540 -0.9009 -0.3042 -1.1873
   37MOL   H56225114   0.302   4.955   2.445 -0.8702  1.7428 -0.2618
   37MOL   H56325115   0.240   4.971   2.607 -0.0630 -0.7182  0.8568
   37MOL   H56425116   0.060   4.978   2.361 -0.7667  0.7568 -0.0674
   37MOL   H56525117   0.009   5.007   2.514 -0.7263  2.5290 -2.0412
   37MOL   H56625118   0.218   5.179   2.366 -0.6461 -0.0277 -1.5432
   37MOL   H56725119   0.171   5.213   2.527  0.3762  1.0137 -0.5703
   37MOL   H56825120   7.633   5.228   2.441  1.3113  0.1273  1.5141
   37MOL   H56925121   7.709   5.211   2.281 -2.0222 -1.7427  1.3570
   37MOL   H57025122   0.069   5.440   2.455 -1.9683 -2.5000  2.7030
   37MOL   H57125123   0.113   5.415   2.289  0.2214  1.3908  1.0408
   37MOL   H57225124   7.641   5.573   2.337 -2.7693  1.2485  1.3243
   37MOL   H57325125   7.542   5.436   2.374  1.6573  1.4600  2.1994
   37MOL   H57425126   7.667   5.480   2.090  0.6491 -2.7522 -1.0832
   37MOL   H57525127   7.553   5.358   2.134  0.0723  0.9211 -2.2818
   37MOL   H57625128   7.521   5.661   2.157 -1.7865 -0.2057 -0.5575
   37MOL   H57725129   7.392   5.551   2.182 -1.3462 -0.1215 -1.3725
   37MOL   H57825130   7.437   5.462   1.930  0.7281 -0.3534 -0.7436
   37MOL   H57925131   7.540   5.598   1.920 -0.1491  1.3651  0.9528
   37MOL   N58025132   7.225   5.601   1.887 -0.5233 -0.2710  0.5860
   37MOL   C58125133   7.109   5.680   1.850 -0.3558 -0.6402 -0.1245
   37MOL   C58225134   6.972   5.644   1.905  0.0122 -0.1595 -0.2772
   37MOL   C58325135   6.959   5.656   2.055 -0.2505  0.6398  0.4233
   37MOL   C58425136   6.927   5.792   2.103 -0.3007 -0.4272 -0.8635
   37MOL   C58525137   6.902   5.812   2.250 -0.2581 -0.1953  0.0742
   37MOL   C58625138   6.889   5.959   2.288  0.0867  0.2882 -0.3025
   37MOL   C58725139   6.899   5.969   2.440 -1.4883  0.0976 -0.4708
   37MOL   C58825140   6.762   6.005   2.504 -0.1027 -0.3494 -0.1270
   37MOL   C58925141   6.684   5.881   2.541 -0.2773  0.4905 -0.7108
   37MOL   C59025142   6.552   5.923   2.609 -0.0659 -0.1856  0.3512
   37MOL   C59125143   6.474   5.799   2.663 -1.3075 -0.1456  0.4552
   37MOL   O59225144   6.488   5.684   2.611  0.0568 -0.5860 -0.0383
   37MOL   H59325145   7.219   5.504   1.859  2.3743  0.0193 -1.2701
   37MOL   H59425146   7.130   5.784   1.873 -2.0176 -0.2181 -0.4319
   37MOL   H59525147   7.112   5.676   1.741  1.2194  0.1545 -0.1214
   37MOL   H59625148   6.939   5.546   1.872 -1.0064  0.3524 -0.8262
   37MOL   H59725149   6.892   5.707   1.866 -0.9011  0.5532  2.5759
   37MOL   H59825150   6.867   5.604   2.083  0.5097 -0.8681  0.1897
   37MOL   H59925151   7.037   5.598   2.105 -0.9178  0.0940  0.8360
   37MOL   H60025152   6.840   5.830   2.049 -0.8434 -1.5495 -0.8122
   37MOL   H60125153   7.005   5.861   2.074 -0.9677  1.6333  2.0592
   37MOL   H60225154   6.995   5.785   2.300  0.5817  3.5526  0.7543
   37MOL   H60325155   6.815   5.749   2.270  0.2808 -1.9503 -2.7912
   37MOL   H60425156   6.979   6.008   2.253  0.1036  0.2716 -0.2820
   37MOL   H60525157   6.814   6.017   2.234 -0.3786  0.0443  0.0733
   37MOL   H60625158   6.974   6.043   2.468 -0.4251 -1.2620  0.3401
   37MOL   H60725159   6.941   5.885   2.495 -1.4848  1.2877  1.4003
   37MOL   H60825160   6.778   6.063   2.595  0.3631  1.3065 -1.2523
   37MOL   H60925161   6.702   6.065   2.436  2.7803  0.9491 -1.6035
   37MOL   H61025162   6.749   5.836   2.615 -0.5193  3.7046  1.5613
   37MOL   H61125163   6.654   5.819   2.456 -0.7227 -0.5141  0.1814
   37MOL   H61225164   6.488   5.970   2.535  0.1333 -0.3013  0.1070
   37MOL   H61325165   6.573   5.990   2.693 -3.5293  2.0947 -0.5033
   37MOL   N61425166   6.410   5.824   2.774 -0.3888  0.6087 -0.3609
   37MOL   C61525167   6.300   5.748   2.830  0.3367 -0.1793  0.4635
   37MOL   C61625168   6.344   5.667   2.954  0.0156  0.6446  0.0743
   37MOL   C61725169   6.240   5.556   2.995 -0.0906 -0.2652  0.1780
   37MOL   C61825170   6.295   5.469   3.109 -0.9491 -0.9326 -0.4891
   37MOL   C61925171   6.192   5.357   3.138 -0.2636  0.5812 -0.8796
   37MOL   C62025172   6.245   5.275   3.261 -0.0509  0.4941  0.1302
   37MOL   C62125173   6.146   5.162   3.288  0.2028 -0.0073 -0.2660
   37MOL   C62225174   6.165   5.101   3.431  0.0619  0.7094 -0.0111
   37MOL   C62325175   6.052   5.004   3.465 -0.1113 -0.2278 -0.0006
   37MOL   C62425176   5.905   5.047   3.450  0.2552  0.2930 -0.2457
   37MOL   C62525177   5.872   5.170   3.524  0.2977 -0.2532  0.3785
   37MOL   O62625178   5.870   5.169   3.646 -0.0838 -1.3653 -0.4436
   37MOL   H62725179   6.415   5.916   2.815  0.8647  0.6380 -0.5635
   37MOL   H62825180   6.260   5.691   2.747  1.2717  1.6792 -1.3106
   37MOL   H62925181   6.215   5.813   2.849 -0.9315 -1.6559 -0.1187
   37MOL   H63025182   6.370   5.738   3.033  0.6719  0.5899 -0.0946
   37MOL   H63125183   6.440   5.617   2.940 -0.1508  0.5026 -0.5736
   37MOL   H63225184   6.148   5.608   3.021  0.7982  1.2076  0.4546
   37MOL   H63325185   6.219   5.502   2.903 -1.0924  2.0010 -0.9661
   37MOL   H63425186   6.337   5.531   3.188 -2.7026  0.0576 -0.2994
   37MOL   H63525187   6.383   5.422   3.065 -0.7022 -1.3815  0.4838
   37MOL   H63625188   6.181   5.304   3.043 -0.9286  2.2712 -1.7622
   37MOL   H63725189   6.093   5.392   3.166  0.3311  1.3465  0.3071
   37MOL   H63825190   6.350   5.253   3.240 -1.4230 -2.3787 -4.4408
   37MOL   H63925191   6.245   5.348   3.342  1.5151  0.2951  0.3321
   37MOL   H64025192   6.141   5.092   3.204 -0.1241 -0.7602  0.3796
   37MOL   H64125193   6.045   5.205   3.288  0.6311  1.0325 -0.6717
   37MOL   H64225194   6.253   5.036   3.425  0.2101  0.9292 -0.2568
   37MOL   H64325195   6.191   5.173   3.509  2.9620 -0.4403  0.1550
   37MOL   H64425196   6.069   4.976   3.569  0.0058  1.6245  0.4975
   37MOL   H64525197   6.067   4.916   3.402 -1.1910  0.3395 -1.0574
   37MOL   H64625198   5.847   4.961   3.483  2.4018 -0.1791  2.4842
   37MOL   H64725199   5.874   5.066   3.347 -2.2118  0.8910  0.5826
   37MOL   N64825200   5.837   5.282   3.453 -1.2031 -0.0717 -0.1661
   37MOL   C64925201   5.809   5.416   3.512  0.6922  0.0551 -0.5462
   37MOL   C65025202   5.850   5.529   3.417  0.3858  0.4657 -0.3275
   37MOL   C65125203   6.003   5.553   3.416  0.1572  0.7288 -0.1421
   37MOL   C65225204   6.036   5.680   3.335 -0.5245 -0.0225  0.2477
   37MOL   C65325205   6.152   5.763   3.397  0.0742 -0.1166 -0.2680
   37MOL   C65425206   6.173   5.908   3.344  0.3952 -0.2612 -0.0094
   37MOL   C65525207   6.058   6.002   3.345 -0.1389  0.1806  0.3698
   37MOL   C65625208   6.098   6.151   3.296 -0.0738 -0.2950  0.2715
   37MOL   C65725209   5.991   6.258   3.285  0.4633 -0.0026  0.1352
   37MOL   C65825210   5.914   6.271   3.419  0.0912 -0.4609 -0.7982
   37MOL   C65925211   5.788   6.361   3.409 -0.6293  0.0625  1.4594
   37MOL   O66025212   5.683   6.324   3.457 -0.1898  0.3977  0.1980
   37MOL   H66125213   5.835   5.278   3.352 -0.6035 -0.3747 -0.1669
   37MOL   H66225214   5.858   5.439   3.607  1.1093 -0.7901 -0.5526
   37MOL   H66325215   5.701   5.419   3.525  1.0072  0.1852  2.2523
   37MOL   H66425216   5.804   5.620   3.453  0.5334 -0.5323  2.5170
   37MOL   H66525217   5.804   5.524   3.318 -2.9690 -0.5040  1.2097
   37MOL   H66625218   6.035   5.565   3.520 -2.1104 -0.1275  0.6808
   37MOL   H66725219   6.058   5.476   3.361  0.6933  0.3089  0.9622
   37MOL   H66825220   5.944   5.738   3.339 -0.4494  0.0828  0.4460
   37MOL   H66925221   6.048   5.659   3.229  0.3058 -0.7853  0.4888
   37MOL   H67025222   6.253   5.722   3.400  0.2113  0.0925 -1.7411
   37MOL   H67125223   6.123   5.772   3.502  0.3011 -1.3658 -0.0897
   37MOL   H67225224   6.256   5.957   3.396  1.2838 -1.1288 -0.5831
   37MOL   H67325225   6.213   5.903   3.243 -0.7914 -3.2094 -0.3980
   37MOL   H67425226   6.006   6.005   3.441 -0.3642 -2.9004  0.4204
   37MOL   H67525227   5.980   5.964   3.277  1.1498  0.7043 -1.4296
   37MOL   H67625228   6.177   6.183   3.364 -2.3401  3.1218  1.4080
   37MOL   H67725229   6.153   6.132   3.205  1.1997 -2.4048  1.4404
   37MOL   H67825230   5.916   6.235   3.209  0.1307  2.3593 -0.2613
   37MOL   H67925231   6.022   6.359   3.259  1.0504 -0.3933 -0.7017
   37MOL   H68025232   5.967   6.306   3.508 -2.3340 -1.5933  1.1520
   37MOL   H68125233   5.875   6.173   3.445  1.0494 -0.7339 -0.4072
   37MOL   H68225234   5.792   6.460   3.363 -2.6422 -1.2750 -1.7991
   38MOL     N125235   1.174   2.581   4.715 -0.4737  0.0277 -0.3549
   38MOL     C225236   1.290   2.504   4.663  0.2454  0.7522  0.2507
   38MOL     C325237   1.425   2.531   4.741  0.0831 -0.5791  0.2383
   38MOL     C425238   1.548   2.448   4.713 -0.3610 -0.0680  0.6089
   38MOL     C525239   1.676   2.488   4.803  0.0847 -0.4222 -0.3233
   38MOL     C625240   1.731   2.630   4.783 -0.0385  0.6162  0.2507
   38MOL     C725241   1.874   2.649   4.833  0.2515 -0.7848  0.4649
   38MOL     C825242   1.939   2.786   4.777 -0.2897  0.1340  0.7401
   38MOL     C925243   2.082   2.794   4.823 -0.4164 -0.0656  0.3815
   38MOL    C1025244   2.154   2.883   4.726  0.2968 -0.3419  0.5689
   38MOL    C1125245   2.304   2.898   4.755  0.0154 -0.1967  0.4054
   38MOL    C1225246   2.335   2.952   4.898 -1.3247 -0.2606 -0.0671
   38MOL    O1325247   2.379   2.884   4.987  0.0239  0.6331 -0.0894
   38MOL    H1425248   1.159   2.554   4.812  0.4684  1.4082  0.1927
   38MOL    H1525249   1.324   2.542   4.566 -1.6138  2.5961  0.2944
   38MOL    H1625250   1.271   2.397   4.668  1.1957  0.5993  0.7836
   38MOL    H1725251   1.415   2.521   4.849 -0.3756 -1.5792  0.1086
   38MOL    H1825252   1.442   2.637   4.724 -1.2545 -0.5420 -0.8992
   38MOL    H1925253   1.528   2.342   4.728  0.3725  0.0128  2.2641
   38MOL    H2025254   1.576   2.446   4.608 -0.6301  0.3620  0.5289
   38MOL    H2125255   1.755   2.423   4.765 -0.1881 -1.1163  0.2842
   38MOL    H2225256   1.662   2.460   4.907  2.0693  0.1185  0.1135
   38MOL    H2325257   1.676   2.702   4.843 -0.5670 -1.0030  1.7630
   38MOL    H2425258   1.718   2.660   4.679 -0.1671  1.3539  0.4785
   38MOL    H2525259   1.903   2.639   4.938  0.7592 -2.1273  0.2157
   38MOL    H2625260   1.938   2.576   4.782 -0.9468 -1.8754  0.4972
   38MOL    H2725261   1.877   2.873   4.796  1.4706  1.9415 -1.5102
   38MOL    H2825262   1.938   2.770   4.669 -0.1890  2.0323  0.4475
   38MOL    H2925263   2.080   2.843   4.921 -0.6633 -2.0298  1.3850
   38MOL    H3025264   2.112   2.689   4.827  1.0743  0.3588  0.8180
   38MOL    H3125265   2.103   2.979   4.719  1.7347  0.3876 -0.1113
   38MOL    H3225266   2.164   2.837   4.628  1.3988  0.1074  0.4569
   38MOL    H3325267   2.342   2.961   4.675 -0.8243 -1.1635 -0.7652
   38MOL    H3425268   2.358   2.805   4.741 -0.9718 -0.2369 -3.5021
   38MOL    H3525269   1.087   2.547   4.676  1.0903 -1.4365 -2.7053
   38MOL    N3625270   2.301   3.080   4.908 -0.3947 -0.4141  0.2060
   38MOL    C3725271   2.313   3.154   5.036  0.3192  0.1241  0.3569
   38MOL    C3825272   2.174   3.202   5.076  0.1815 -0.4711  0.4081
   38MOL    C3925273   2.161   3.260   5.217  0.2096 -0.3899 -0.2924
   38MOL    C4025274   2.034   3.342   5.248 -0.2399 -0.5997 -1.1107
   38MOL    C4125275   1.905   3.272   5.204  0.1851  0.3135 -0.0868
   38MOL    C4225276   1.785   3.363   5.213 -0.1085 -0.2300 -0.3015
   38MOL    C4325277   1.659   3.298   5.161  0.2208  0.1505 -0.1431
   38MOL    C4425278   1.565   3.389   5.084  0.7716  0.3052  0.6486
   38MOL    C4525279   1.442   3.312   5.050 -0.5379 -0.4553  0.2885
   38MOL    C4625280   1.354   3.369   4.934 -0.2244 -0.4086  0.5686
   38MOL    C4725281   1.231   3.446   4.992 -0.6835  0.0734 -0.5572
   38MOL    O4825282   1.240   3.500   5.103 -0.6122  0.2734  0.2418
   38MOL    H4925283   2.273   3.136   4.829  2.3692  2.3779  1.0817
   38MOL    H5025284   2.357   3.083   5.106 -1.8354 -0.5905  1.0323
   38MOL    H5125285   2.384   3.234   5.012 -0.7580  0.6795 -1.0133
   38MOL    H5225286   2.103   3.119   5.075  0.9574 -1.1545 -1.7090
   38MOL    H5325287   2.125   3.267   5.005  2.6166 -0.6811 -1.5327
   38MOL    H5425288   2.164   3.181   5.292 -0.5024  0.0439  0.2055
   38MOL    H5525289   2.248   3.325   5.226  1.1993 -1.6331 -0.6891
   38MOL    H5625290   2.039   3.447   5.217  3.7055  0.5510  2.9504
   38MOL    H5725291   2.037   3.348   5.357  0.1621 -0.1771 -1.1400
   38MOL    H5825292   1.887   3.188   5.271 -0.3819  1.4871  1.2319
   38MOL    H5925293   1.911   3.242   5.099  0.9225  2.0031 -0.5400
   38MOL    H6025294   1.771   3.370   5.321 -1.8362 -0.6318 -0.4810
   38MOL    H6125295   1.805   3.464   5.178 -0.5791 -0.0541 -0.0608
   38MOL    H6225296   1.594   3.255   5.238 -0.6990  2.3300  0.3519
   38MOL    H6325297   1.687   3.215   5.096  1.0282 -1.1211  1.7783
   38MOL    H6425298   1.535   3.477   5.141 -1.8682 -1.4293  2.0710
   38MOL    H6525299   1.617   3.422   4.994 -1.8634  1.4602 -0.5060
   38MOL    H6625300   1.386   3.300   5.142 -1.9219 -1.6929 -0.6984
   38MOL    H6725301   1.485   3.223   5.004  0.1640  0.3644 -0.6827
   38MOL    H6825302   1.317   3.278   4.888 -0.0016 -0.0917 -0.2650
   38MOL    H6925303   1.408   3.417   4.851  0.0446  1.1253  1.5970
   38MOL    N7025304   1.115   3.452   4.933  0.2101 -0.2224  0.1254
   38MOL    C7125305   1.098   3.424   4.787 -0.2452  0.9973  0.3250
   38MOL    C7225306   1.021   3.528   4.708 -0.6630 -0.1773 -0.3409
   38MOL    C7325307   0.880   3.547   4.762 -0.0051 -0.4272 -0.5847
   38MOL    C7425308   0.808   3.656   4.682 -0.0572 -0.3337 -0.2973
   38MOL    C7525309   0.655   3.663   4.718 -0.1579  0.0749 -0.6362
   38MOL    C7625310   0.568   3.692   4.597 -0.1610 -0.0159 -0.4901
   38MOL    C7725311   0.416   3.719   4.627 -0.4386  0.6809 -0.1296
   38MOL    C7825312   0.327   3.775   4.509  0.5616 -0.2129 -0.2338
   38MOL    C7925313   0.350   3.922   4.488 -0.6348  0.3099  0.3222
   38MOL    C8025314   0.278   3.976   4.368 -0.7739 -0.2971 -0.3649
   38MOL    C8125315   0.305   4.129   4.352  0.7432 -0.8464 -0.5710
   38MOL    O8225316   0.256   4.206   4.439 -0.5163  0.5052  0.1837
   38MOL    H8325317   1.032   3.486   4.978 -0.3765 -2.4092  0.7732
   38MOL    H8425318   1.192   3.398   4.739 -1.4058 -2.0995 -0.3995
   38MOL    H8525319   1.034   3.337   4.778 -0.2765  1.0358  0.1796
   38MOL    H8625320   1.024   3.512   4.600 -1.4916  0.0127 -0.3924
   38MOL    H8725321   1.073   3.623   4.717  0.6025 -0.6746 -2.1159
   38MOL    H8825322   0.825   3.454   4.752 -0.9874 -0.0570  1.2064
   38MOL    H8925323   0.897   3.568   4.868  0.7358  1.7897 -1.1080
   38MOL    H9025324   0.816   3.618   4.581  1.6490 -0.1937 -0.2325
   38MOL    H9125325   0.864   3.749   4.697  0.2290 -0.5833  0.2123
   38MOL    H9225326   0.640   3.741   4.793 -1.0492  0.1949 -0.9335
   38MOL    H9325327   0.632   3.567   4.763 -0.9724  1.1449  1.2949
   38MOL    H9425328   0.602   3.781   4.545  2.2740 -1.6688 -1.8429
   38MOL    H9525329   0.587   3.608   4.529 -0.9420 -1.0717  0.5721
   38MOL    H9625330   0.387   3.783   4.711  0.2151 -1.2096  1.5865
   38MOL    H9725331   0.383   3.619   4.652 -1.3793  0.6861 -1.3260
   38MOL    H9825332   0.350   3.731   4.412 -0.1701 -0.8958 -0.0971
   38MOL    H9925333   0.222   3.763   4.532  0.5818 -0.2630 -0.1670
   38MOL   H10025334   0.456   3.944   4.487 -0.3258 -1.0530  1.7455
   38MOL   H10125335   0.319   3.971   4.581 -2.7420  0.2915 -0.3343
   38MOL   H10225336   0.170   3.960   4.378 -0.7359  0.0312  0.5860
   38MOL   H10325337   0.308   3.922   4.278 -2.0463 -0.8470 -0.4733
   38MOL   N10425338   0.376   4.172   4.246 -0.1533 -0.5051 -0.2618
   38MOL   C10525339   0.398   4.315   4.221  0.5909 -0.0609 -0.9336
   38MOL   C10625340   0.529   4.328   4.140 -0.0062 -0.2263 -0.5111
   38MOL   C10725341   0.561   4.474   4.088 -0.6804  0.7994 -0.0493
   38MOL   C10825342   0.469   4.516   3.968  0.5264 -0.7163  0.1990
   38MOL   C10925343   0.533   4.637   3.893 -0.0275  0.2448  0.5350
   38MOL   C11025344   0.456   4.679   3.771  0.2552  1.0781  0.8294
   38MOL   C11125345   0.458   4.580   3.655  0.4173  0.1337  0.2298
   38MOL   C11225346   0.449   4.645   3.516 -0.1352  0.0734 -0.6174
   38MOL   C11325347   0.578   4.710   3.462 -0.2423  0.5642 -0.1752
   38MOL   C11425348   0.699   4.616   3.460  0.5633 -0.1972 -0.0148
   38MOL   C11525349   0.821   4.672   3.380 -0.3903 -1.1945  0.0169
   38MOL   O11625350   0.845   4.792   3.370  0.1412  0.0405  0.4276
   38MOL   H11725351   0.404   4.110   4.172 -1.4942  0.2352 -1.4122
   38MOL   H11825352   0.311   4.342   4.160 -1.2445 -0.9654  1.2114
   38MOL   H11925353   0.409   4.373   4.312 -0.4806 -1.1561 -0.0874
   38MOL   H12025354   0.529   4.258   4.057 -0.7528 -0.7095 -0.1031
   38MOL   H12125355   0.614   4.297   4.201 -1.4362 -0.1942  1.5509
   38MOL   H12225356   0.538   4.541   4.170 -0.3261  0.0316  0.6788
   38MOL   H12325357   0.666   4.470   4.059 -1.2480 -0.5853 -1.9839
   38MOL   H12425358   0.371   4.550   4.002  0.0992 -1.3291 -0.4152
   38MOL   H12525359   0.458   4.428   3.905  0.3726 -0.2221 -0.4787
   38MOL   H12625360   0.639   4.614   3.877  0.0146  1.4081 -0.9670
   38MOL   H12725361   0.540   4.717   3.967  2.4746  1.1034 -0.5468
   38MOL   H12825362   0.352   4.700   3.797 -0.7163 -3.3409  0.9161
   38MOL   H12925363   0.499   4.769   3.727  0.2372  1.1481  0.9565
   38MOL   H13025364   0.366   4.524   3.669  0.7669 -0.1397  1.5024
   38MOL   H13125365   0.548   4.519   3.658  0.1823 -0.5132 -3.4302
   38MOL   H13225366   0.415   4.563   3.452 -2.3338 -0.6579  1.4285
   38MOL   H13325367   0.373   4.722   3.507 -1.7215 -1.2677  0.9424
   38MOL   H13425368   0.595   4.805   3.513 -0.7061 -0.2768  1.5671
   38MOL   H13525369   0.551   4.724   3.357  0.0136  0.0273 -0.3179
   38MOL   H13625370   0.665   4.523   3.414  2.0070 -0.4434 -0.5967
   38MOL   H13725371   0.734   4.589   3.560 -0.3016 -1.5058 -0.0500
   38MOL   N13825372   0.887   4.576   3.313  0.0279 -0.3481 -0.0377
   38MOL   C13925373   0.992   4.607   3.211  0.0406  0.0824 -0.6808
   38MOL   C14025374   1.114   4.671   3.275  0.4489 -0.0620 -0.1669
   38MOL   C14125375   1.238   4.659   3.186  0.0278  0.2400 -0.1345
   38MOL   C14225376   1.364   4.731   3.239  0.0293 -0.1224  0.4013
   38MOL   C14325377   1.432   4.666   3.355 -0.3656 -0.9030  0.0119
   38MOL   C14425378   1.573   4.721   3.379 -0.3879  0.2807 -0.4207
   38MOL   C14525379   1.631   4.664   3.501  0.1289  0.1729 -1.1817
   38MOL   C14625380   1.775   4.730   3.526  0.0133 -0.4768  0.0431
   38MOL   C14725381   1.886   4.666   3.440 -0.7589 -0.2749  0.0666
   38MOL   C14825382   2.023   4.713   3.483 -0.2605  0.0417  0.1292
   38MOL   C14925383   2.129   4.635   3.404  0.1257  0.2370  0.1145
   38MOL   O15025384   2.111   4.589   3.294  0.0874  0.6981  0.3262
   38MOL   H15125385   0.843   4.485   3.308  1.6768 -1.1268 -0.7764
   38MOL   H15225386   1.019   4.521   3.150  3.1496  1.5757 -1.5106
   38MOL   H15325387   0.944   4.677   3.142  0.2008 -0.2027 -1.0779
   38MOL   H15425388   1.122   4.623   3.373 -0.6200 -0.3462 -0.2129
   38MOL   H15525389   1.099   4.776   3.299  4.1852  0.4572  0.1427
   38MOL   H15625390   1.256   4.552   3.171 -1.9304 -0.0157 -0.9031
   38MOL   H15725391   1.220   4.712   3.092 -0.8889 -0.5874 -0.4439
   38MOL   H15825392   1.346   4.830   3.280  2.3418  0.4194  0.1547
   38MOL   H15925393   1.428   4.733   3.151  0.6081  1.7557  0.8452
   38MOL   H16025394   1.440   4.561   3.328 -0.0534 -0.4725 -1.6748
   38MOL   H16125395   1.367   4.675   3.442  1.3078  1.7850  1.0628
   38MOL   H16225396   1.635   4.710   3.291  1.3327  1.6744  0.5861
   38MOL   H16325397   1.569   4.830   3.380  1.2331  0.3475 -0.3561
   38MOL   H16425398   1.645   4.558   3.483  2.8902  0.2730  0.0763
   38MOL   H16525399   1.565   4.688   3.585  0.5164  3.0245 -1.6223
   38MOL   H16625400   1.760   4.833   3.493 -2.1687 -1.0137 -0.6563
   38MOL   H16725401   1.810   4.738   3.629 -0.1410  1.5346 -0.0409
   38MOL   H16825402   1.870   4.683   3.334 -0.5806 -1.0159 -0.0762
   38MOL   H16925403   1.888   4.557   3.445 -0.4687 -0.2187  1.6592
   38MOL   H17025404   2.034   4.680   3.587  0.0140  0.7418  0.3226
   38MOL   H17125405   2.034   4.821   3.480 -0.6553  0.1836  2.5978
   38MOL   N17225406   2.247   4.634   3.458 -0.1179  0.5860  0.3510
   38MOL   C17325407   2.363   4.580   3.396 -0.1009 -0.1425  0.5136
   38MOL   C17425408   2.416   4.677   3.283 -0.3928 -0.4173  0.2701
   38MOL   C17525409   2.456   4.816   3.336  0.7404 -0.2029  0.2761
   38MOL   C17625410   2.520   4.903   3.232 -0.5543 -0.1029 -0.3778
   38MOL   C17725411   2.583   5.027   3.296  0.4894  0.3670 -0.0287
   38MOL   C17825412   2.614   5.136   3.197 -0.3926 -0.7644 -0.1779
   38MOL   C17925413   2.726   5.240   3.230 -0.6892  0.2947 -0.1206
   38MOL   C18025414   2.764   5.345   3.122  0.4860  0.2673  0.0736
   38MOL   C18125415   2.866   5.452   3.177  0.3748 -0.2221  0.4859
   38MOL   C18225416   2.834   5.527   3.303 -0.5609 -0.5279  0.2490
   38MOL   C18325417   2.935   5.640   3.339  0.6322  0.4635 -0.1211
   38MOL   O18425418   3.016   5.688   3.254  0.6186  0.5578  0.3483
   38MOL   H18525419   2.267   4.679   3.546  1.1272 -1.8105  1.3674
   38MOL   H18625420   2.438   4.560   3.473 -0.7654  0.8280  1.4195
   38MOL   H18725421   2.341   4.479   3.361  1.7075  0.2904 -2.0669
   38MOL   H18825422   2.337   4.688   3.208 -1.1096  0.8897  1.1847
   38MOL   H18925423   2.501   4.643   3.224  0.0548 -1.7048  1.6288
   38MOL   H19025424   2.370   4.875   3.367 -0.1112 -0.6415 -1.1828
   38MOL   H19125425   2.516   4.804   3.426 -0.7027 -2.0983  0.9978
   38MOL   H19225426   2.443   4.928   3.158 -0.6733 -1.9405 -0.9052
   38MOL   H19325427   2.593   4.844   3.175 -1.2122 -0.9532 -0.3561
   38MOL   H19425428   2.664   5.007   3.366  0.3293  1.8482  0.6015
   38MOL   H19525429   2.514   5.079   3.363  1.2561  0.3854  0.7507
   38MOL   H19625430   2.657   5.079   3.115 -0.7063  0.0224 -0.8878
   38MOL   H19725431   2.526   5.193   3.169  0.8819  1.1872 -0.2552
   38MOL   H19825432   2.810   5.196   3.284  0.6194  2.7189 -0.0872
   38MOL   H19925433   2.683   5.302   3.309 -1.6614 -0.3558 -0.1397
   38MOL   H20025434   2.818   5.284   3.049 -1.5980  0.6780 -1.8478
   38MOL   H20125435   2.673   5.378   3.073 -0.7643 -2.2850  0.5819
   38MOL   H20225436   2.880   5.530   3.101 -0.1141  1.0128  1.6346
   38MOL   H20325437   2.958   5.395   3.193 -0.0533 -1.8432 -2.4274
   38MOL   H20425438   2.833   5.455   3.385 -2.0950 -0.0782  0.6413
   38MOL   H20525439   2.735   5.572   3.309 -0.3896 -0.2891  1.3300
   38MOL   N20625440   2.939   5.674   3.464 -0.4000 -0.4612  0.2407
   38MOL   C20725441   3.037   5.766   3.519 -0.2360 -0.5233  0.2869
   38MOL   C20825442   3.035   5.749   3.674  0.2392  0.2181 -0.3644
   38MOL   C20925443   3.155   5.817   3.736  1.3204 -0.4036  0.1611
   38MOL   C21025444   3.297   5.761   3.710 -0.1101  0.2517 -0.2473
   38MOL   C21125445   3.407   5.834   3.791  0.0492 -0.6798  0.1919
   38MOL   C21225446   3.545   5.806   3.746  0.4601 -0.3021  0.3428
   38MOL   C21325447   3.655   5.832   3.852 -0.2642 -0.1995  0.3224
   38MOL   C21425448   3.653   5.974   3.916 -0.8992 -0.9515 -1.3762
   38MOL   C21525449   3.725   5.981   4.049  0.3576 -0.4134 -0.3190
   38MOL   C21625450   3.748   6.125   4.098  0.7890 -0.7543  0.0952
   38MOL   C21725451   3.621   6.186   4.155  0.2295  0.0830  0.5961
   38MOL   O21825452   3.523   6.186   4.087  0.8127 -0.8373 -0.0568
   38MOL   H21925453   2.871   5.635   3.529 -2.1678  0.6819 -0.8752
   38MOL   H22025454   3.023   5.869   3.486  1.3559 -0.3563  0.0773
   38MOL   H22125455   3.138   5.734   3.494  0.2779  2.2973 -1.4137
   38MOL   H22225456   3.049   5.644   3.701  0.0011  0.0439 -0.9212
   38MOL   H22325457   2.939   5.772   3.719  0.7527  2.8259 -0.5021
   38MOL   H22425458   3.146   5.919   3.698 -0.4442 -0.4009  0.5304
   38MOL   H22525459   3.150   5.830   3.844  0.5395  0.9097 -0.0211
   38MOL   H22625460   3.322   5.781   3.606 -1.7204 -2.3902 -1.1741
   38MOL   H22725461   3.290   5.653   3.718 -0.7782  0.3839  1.2817
   38MOL   H22825462   3.384   5.809   3.895 -0.1292 -0.0503  0.3055
   38MOL   H22925463   3.387   5.941   3.778  1.9249 -0.3279 -0.0004
   38MOL   H23025464   3.565   5.706   3.708 -1.1491 -0.5915  0.1874
   38MOL   H23125465   3.561   5.883   3.670 -0.3947 -0.5610 -0.1088
   38MOL   H23225466   3.751   5.820   3.802 -0.4861  0.9061 -0.3923
   38MOL   H23325467   3.641   5.754   3.927 -0.0005 -2.2721 -1.7078
   38MOL   H23425468   3.692   6.049   3.847  1.2002 -0.2755  0.5055
   38MOL   H23525469   3.550   6.002   3.937 -0.6892 -1.0764 -0.1446
   38MOL   H23625470   3.821   5.931   4.034  0.6131  0.2254 -0.7869
   38MOL   H23725471   3.672   5.928   4.129 -1.1309 -1.0203 -1.6939
   38MOL   H23825472   3.793   6.191   4.024 -0.9248  0.8750  0.4753
   38MOL   H23925473   3.820   6.132   4.179 -0.0366 -1.9583  0.9509
   38MOL   N24025474   3.624   6.217   4.285 -0.2016  0.5406 -0.2681
   38MOL   C24125475   3.518   6.274   4.357  0.2421  0.0444 -0.2982
   38MOL   C24225476   3.495   6.212   4.497 -0.0392  0.7158  0.0109
   38MOL   C24325477   3.411   6.295   4.596 -0.8377  0.2722  0.1539
   38MOL   C24425478   3.371   6.212   4.713  0.5180 -0.1058  0.3753
   38MOL   C24525479   3.292   6.282   4.825  0.3374 -1.0369 -0.2865
   38MOL   C24625480   3.155   6.325   4.784 -0.3795 -0.0278 -1.1326
   38MOL   C24725481   3.109   6.444   4.868  0.2548  0.1763 -0.2754
   38MOL   C24825482   3.120   6.414   5.020  0.1606  0.3267 -0.2762
   38MOL   C24925483   3.070   6.531   5.109  0.0164 -0.0153  0.6834
   38MOL   C25025484   3.052   6.483   5.255 -0.4045 -0.2993  0.1281
   38MOL   C25125485   3.182   6.483   5.344 -0.5846  0.5461 -0.4065
   38MOL   O25225486   3.244   6.591   5.348  0.1388 -0.2815 -0.2903
   38MOL   H25325487   3.713   6.214   4.332 -0.4883  2.1651  0.4284
   38MOL   H25425488   3.425   6.267   4.302 -0.1716 -2.1534  0.6460
   38MOL   H25525489   3.557   6.376   4.358  0.0026  0.1358 -0.5007
   38MOL   H25625490   3.591   6.191   4.545 -1.0865  0.9199  2.2714
   38MOL   H25725491   3.447   6.116   4.478  0.2296  0.6500 -0.3483
   38MOL   H25825492   3.456   6.389   4.628 -1.4434  0.7506 -0.3683
   38MOL   H25925493   3.317   6.328   4.551 -2.4756  0.3535  3.4850
   38MOL   H26025494   3.465   6.175   4.754  1.8105  1.8474 -0.7151
   38MOL   H26125495   3.307   6.127   4.689 -0.5302  0.6394  0.4687
   38MOL   H26225496   3.350   6.374   4.838 -0.7630 -0.5287  1.2610
   38MOL   H26325497   3.293   6.217   4.913 -1.5874  1.2714  1.5218
   38MOL   H26425498   3.158   6.346   4.677  0.7007  0.2364 -1.0548
   38MOL   H26525499   3.082   6.246   4.801 -0.0889  0.5199  3.5462
   38MOL   H26625500   3.004   6.467   4.848  0.4544  1.3508  0.0215
   38MOL   H26725501   3.170   6.528   4.835 -1.5789  1.4953 -0.3427
   38MOL   H26825502   3.071   6.319   5.039 -0.9355  0.9690  0.1685
   38MOL   H26925503   3.225   6.401   5.047 -0.5882 -3.9144  0.9774
   38MOL   H27025504   2.977   6.573   5.073 -0.4374 -0.0627  1.7838
   38MOL   H27125505   3.139   6.614   5.096 -1.5185  0.8987 -2.0894
   38MOL   H27225506   2.992   6.392   5.257 -2.3542  0.9391 -0.1730
   38MOL   H27325507   2.986   6.557   5.302 -1.7883 -0.7305 -1.0967
   38MOL   N27425508   3.227   6.367   5.383  0.1335  0.0081  0.6833
   38MOL   C27525509   3.361   6.333   5.433  0.2600 -0.3028  0.5709
   38MOL   C27625510   3.461   6.295   5.322 -0.1138 -0.5916 -0.3785
   38MOL   C27725511   3.490   6.404   5.219 -0.4367  0.2156 -0.3860
   38MOL   C27825512   3.578   6.361   5.097  0.0934 -0.1405  0.7602
   38MOL   C27925513   3.631   6.487   5.024 -0.8497  0.8134 -0.3494
   38MOL   C28025514   3.693   6.450   4.886  0.3090 -0.3256  0.7544
   38MOL   C28125515   3.774   6.565   4.818  0.4903 -0.2944  0.6000
   38MOL   C28225516   3.898   6.506   4.742  0.6548  0.0197 -0.0873
   38MOL   C28325517   3.874   6.414   4.627 -0.5678  0.1804  0.4804
   38MOL   C28425518   4.005   6.350   4.582 -0.2070  0.1449 -0.1331
   38MOL   C28525519   3.984   6.238   4.478 -0.4629  0.2514 -0.1563
   38MOL   O28625520   3.873   6.209   4.426  0.2309 -0.5097  0.3700
   38MOL   H28725521   3.166   6.286   5.385 -2.6362  1.9750 -0.1486
   38MOL   H28825522   3.346   6.242   5.491 -1.5753 -0.0689  0.4932
   38MOL   H28925523   3.403   6.416   5.490  2.2123 -1.1558  0.4070
   38MOL   H29025524   3.417   6.208   5.274 -1.0080  0.6298 -1.7948
   38MOL   H29125525   3.557   6.263   5.363 -0.1283 -0.5817 -0.3377
   38MOL   H29225526   3.405   6.461   5.182 -0.0778  1.0825  0.0908
   38MOL   H29325527   3.545   6.489   5.260  2.4233 -0.2246 -3.1311
   38MOL   H29425528   3.534   6.293   5.024  1.1250  0.5006 -0.4880
   38MOL   H29525529   3.663   6.300   5.129 -0.9155 -2.9722 -1.8302
   38MOL   H29625530   3.713   6.529   5.082  0.4398  0.5172 -1.9017
   38MOL   H29725531   3.551   6.560   5.014  0.4835  2.6071  1.6366
   38MOL   H29825532   3.743   6.354   4.886  1.1162  0.0860 -1.0310
   38MOL   H29925533   3.607   6.421   4.825  0.1873 -1.2328  1.3588
   38MOL   H30025534   3.803   6.635   4.897 -0.3945 -0.4723  1.0890
   38MOL   H30125535   3.706   6.614   4.748  0.6779 -0.2641  0.4408
   38MOL   H30225536   3.968   6.582   4.709  0.7623  0.7850  1.8388
   38MOL   H30325537   3.955   6.459   4.823 -1.2070 -2.1135  0.0512
   38MOL   H30425538   3.827   6.476   4.550  1.5199  2.5597  1.0654
   38MOL   H30525539   3.805   6.334   4.654 -2.9565  2.1036  0.2820
   38MOL   H30625540   4.057   6.314   4.671  1.4109  2.8639  0.0858
   38MOL   H30725541   4.062   6.433   4.539 -1.2554  2.2711  2.4147
   38MOL   N30825542   4.091   6.167   4.456 -0.4825 -0.3482  1.2315
   38MOL   C30925543   4.105   6.062   4.355  0.5852  0.2024  0.0747
   38MOL   C31025544   4.255   6.031   4.335  0.5611 -0.4859 -0.0302
   38MOL   C31125545   4.329   6.142   4.260  0.3248 -0.1588  0.1572
   38MOL   C31225546   4.481   6.124   4.243 -0.2332 -0.3360  0.9795
   38MOL   C31325547   4.567   6.172   4.359  0.1127  0.5872 -0.4872
   38MOL   C31425548   4.721   6.137   4.340  0.6975 -0.0206  0.1263
   38MOL   C31525549   4.809   6.169   4.460  0.6613 -0.2005 -0.0500
   38MOL   C31625550   4.955   6.167   4.430  0.2741  0.5090  0.0383
   38MOL   C31725551   5.040   6.201   4.552 -0.1260 -0.3124 -0.2066
   38MOL   C31825552   5.195   6.199   4.534  0.3419  0.0515  0.9177
   38MOL   C31925553   5.250   6.294   4.433  0.0621  0.0186  0.4924
   38MOL   O32025554   5.199   6.394   4.403  0.0479  0.3453  0.3076
   38MOL   H32125555   4.177   6.212   4.483 -0.4721  1.4606 -1.6013
   38MOL   H32225556   4.052   6.095   4.265 -2.4275 -1.2853  1.2242
   38MOL   H32325557   4.056   5.969   4.383  0.3319 -0.3008 -1.9266
   38MOL   H32425558   4.264   5.935   4.284 -1.6288 -1.3251  1.1075
   38MOL   H32525559   4.298   6.004   4.431 -1.4022  2.0164  1.5936
   38MOL   H32625560   4.283   6.143   4.162 -0.7146  1.1024  0.6344
   38MOL   H32725561   4.313   6.239   4.308  0.5793 -0.5298  1.0163
   38MOL   H32825562   4.511   6.182   4.157 -2.4720  0.3035  0.6128
   38MOL   H32925563   4.510   6.020   4.227  1.6807  0.2816  0.3398
   38MOL   H33025564   4.527   6.117   4.444 -1.7752 -0.3030 -1.8995
   38MOL   H33125565   4.558   6.277   4.383 -0.7896  0.0399  1.6508
   38MOL   H33225566   4.739   6.037   4.302  1.1111  0.6752 -1.5276
   38MOL   H33325567   4.752   6.201   4.258  0.3360 -0.1179 -0.0888
   38MOL   H33425568   4.788   6.104   4.545  2.7592  0.2862  0.8660
   38MOL   H33525569   4.780   6.273   4.475 -0.2990 -0.0865 -2.4621
   38MOL   H33625570   4.972   6.061   4.409  0.9912 -0.0743  3.2404
   38MOL   H33725571   4.985   6.211   4.335  2.6800  0.0977  0.5738
   38MOL   H33825572   5.007   6.124   4.621  0.9928 -0.9401 -0.3574
   38MOL   H33925573   5.003   6.298   4.586 -0.6688 -0.3001 -0.8174
   38MOL   H34025574   5.226   6.097   4.511  1.4501  0.0902  2.1562
   38MOL   H34125575   5.239   6.234   4.628 -0.2246  1.2024  0.7682
   38MOL   N34225576   5.360   6.252   4.369  0.0641 -0.4692  0.2891
   38MOL   C34325577   5.446   6.337   4.282 -0.4215  0.1987 -0.0605
   38MOL   C34425578   5.458   6.293   4.134  0.6531 -0.2658 -0.5659
   38MOL   C34525579   5.555   6.378   4.061 -0.4759 -0.5005 -0.0766
   38MOL   C34625580   5.484   6.487   3.977  0.2337  0.5463 -0.6558
   38MOL   C34725581   5.568   6.530   3.864  0.4925  0.4410  0.5383
   38MOL   C34825582   5.509   6.620   3.764  0.6278  0.5588  0.4015
   38MOL   C34925583   5.603   6.670   3.653 -1.1136  0.1533 -0.8029
   38MOL   C35025584   5.712   6.771   3.698 -0.0373 -0.4165 -1.1193
   38MOL   C35125585   5.816   6.823   3.597  0.1980 -0.0575  0.1962
   38MOL   C35225586   5.934   6.907   3.651  0.2705  0.2382  0.3039
   38MOL   C35325587   5.906   7.016   3.752 -0.5960 -0.0247 -0.8096
   38MOL   O35425588   5.847   6.984   3.857  0.3252 -0.6967 -0.0506
   38MOL   H35525589   5.406   6.172   4.412 -0.0953 -0.6152  0.1883
   38MOL   H35625590   5.418   6.442   4.284  2.5828  1.0590  0.3050
   38MOL   H35725591   5.548   6.342   4.322 -1.0452  1.4328  1.4360
   38MOL   H35825592   5.354   6.301   4.102 -0.8185 -0.1416  3.8327
   38MOL   H35925593   5.465   6.185   4.129  1.3372 -0.3451  1.4735
   38MOL   H36025594   5.637   6.407   4.126  0.5667 -3.0664 -0.1809
   38MOL   H36125595   5.594   6.314   3.982  0.3722  0.9427 -0.8415
   38MOL   H36225596   5.451   6.576   4.029 -1.0991  0.5407 -1.4703
   38MOL   H36325597   5.387   6.447   3.949 -0.0259  0.5734  0.1947
   38MOL   H36425598   5.608   6.443   3.813 -0.9965  0.0473  0.0153
   38MOL   H36525599   5.657   6.578   3.904 -0.1381  0.3018  2.1287
   38MOL   H36625600   5.432   6.560   3.715  1.5961 -0.6655  0.3459
   38MOL   H36725601   5.453   6.700   3.812  0.4882  0.3717  0.5491
   38MOL   H36825602   5.543   6.724   3.580 -1.8286  3.0176  1.7809
   38MOL   H36925603   5.642   6.585   3.598  1.1012 -1.0003  2.3642
   38MOL   H37025604   5.663   6.853   3.751  2.2392  0.7911 -0.8446
   38MOL   H37125605   5.769   6.708   3.766 -0.0556  1.5589  0.7527
   38MOL   H37225606   5.766   6.881   3.519  1.5561 -1.9261 -2.1269
   38MOL   H37325607   5.856   6.736   3.546  0.5345 -0.3144  0.8919
   38MOL   H37425608   5.993   6.928   3.562 -0.7272 -0.1043 -0.4388
   38MOL   H37525609   5.992   6.826   3.697 -0.1471  0.2109  0.7839
   38MOL   N37625610   5.942   7.140   3.713 -0.2740  0.8209 -0.2372
   38MOL   C37725611   5.906   7.264   3.779 -0.2066 -0.3874 -0.4717
   38MOL   C37825612   5.796   7.334   3.706 -0.2960 -0.5784  0.7651
   38MOL   C37925613   5.666   7.255   3.705 -0.4913 -0.5715 -0.7873
   38MOL   C38025614   5.555   7.324   3.619 -0.7577  0.5629 -0.5267
   38MOL   C38125615   5.424   7.249   3.620  0.0723  0.2354 -0.5935
   38MOL   C38225616   5.336   7.277   3.496 -0.0706  0.0821  0.2894
   38MOL   C38325617   5.191   7.216   3.505 -0.1510 -0.7547 -0.2304
   38MOL   C38425618   5.121   7.269   3.381 -0.1936 -0.4088  0.0421
   38MOL   C38525619   4.970   7.246   3.394  0.0978 -0.7862 -0.0610
   38MOL   C38625620   4.946   7.099   3.393  0.2487 -0.2360  0.4165
   38MOL   C38725621   4.804   7.053   3.366 -0.2407 -0.1123  0.1487
   38MOL   O38825622   4.710   7.131   3.344  0.0817  0.5291  0.3788
   38MOL   H38925623   6.003   7.144   3.633  0.0869  0.7516  0.0277
   38MOL   H39025624   5.878   7.244   3.882  0.9625  1.6809  0.2840
   38MOL   H39125625   5.996   7.324   3.795 -0.1665 -0.3891 -0.6835
   38MOL   H39225626   5.827   7.344   3.602 -0.2803 -4.5657  0.2836
   38MOL   H39325627   5.787   7.432   3.751  0.0036  0.1517 -0.7363
   38MOL   H39425628   5.686   7.151   3.680  1.6256  0.1099 -2.1154
   38MOL   H39525629   5.627   7.257   3.807  1.8734 -0.3325  0.1523
   38MOL   H39625630   5.598   7.332   3.519  0.2589 -0.0126 -0.1527
   38MOL   H39725631   5.554   7.424   3.661  2.2554  0.6549 -0.5466
   38MOL   H39825632   5.370   7.290   3.705 -3.1372 -0.9928 -1.9792
   38MOL   H39925633   5.437   7.141   3.635 -0.6271  0.1167 -0.8082
   38MOL   H40025634   5.333   7.384   3.478 -1.3027 -0.1898 -1.1630
   38MOL   H40125635   5.395   7.237   3.413  0.1281  1.1367 -0.0844
   38MOL   H40225636   5.140   7.256   3.593  3.2964  1.2569  0.9801
   38MOL   H40325637   5.190   7.107   3.513 -1.1548 -0.7167  0.2208
   38MOL   H40425638   5.127   7.378   3.373 -0.1439 -0.3420  0.9144
   38MOL   H40525639   5.167   7.222   3.295 -2.3794 -0.4577 -1.1338
   38MOL   H40625640   4.909   7.300   3.322 -0.6329 -0.5343  0.7370
   38MOL   H40725641   4.942   7.294   3.488  2.1767 -0.9506  0.6671
   38MOL   H40825642   4.987   7.056   3.484  1.3188  2.7900  1.4449
   38MOL   H40925643   5.010   7.058   3.315 -0.9961 -3.1404  0.8637
   38MOL   N41025644   4.789   6.917   3.360 -0.3681  0.4036 -0.6620
   38MOL   C41125645   4.665   6.845   3.338  0.1367  0.2733  0.2280
   38MOL   C41225646   4.637   6.827   3.187  0.1952  0.6387 -0.3144
   38MOL   C41325647   4.764   6.771   3.105 -0.1881 -0.5573 -0.5802
   38MOL   C41425648   4.725   6.777   2.954 -0.1467  0.1733 -0.2160
   38MOL   C41525649   4.847   6.753   2.859  0.0706  0.1646 -0.6618
   38MOL   C41625650   4.825   6.745   2.705  0.3143 -0.1761 -0.2362
   38MOL   C41725651   4.942   6.768   2.605 -0.2672  0.0511  0.5726
   38MOL   C41825652   4.892   6.775   2.462 -0.0309 -0.1800 -0.1486
   38MOL   C41925653   5.013   6.787   2.367  0.2642 -0.1228  0.3050
   38MOL   C42025654   4.970   6.811   2.217 -0.0037  0.6599 -0.4691
   38MOL   C42125655   5.078   6.869   2.125 -0.2440 -0.3948 -0.5021
   38MOL   O42225656   5.196   6.846   2.150 -0.2512 -0.5243 -0.2373
   38MOL   H42325657   4.867   6.861   3.389 -0.0216  0.5406 -1.3347
   38MOL   H42425658   4.668   6.741   3.370 -1.5488 -0.4733 -1.8877
   38MOL   H42525659   4.584   6.898   3.388  0.6285 -1.3239  2.8632
   38MOL   H42625660   4.601   6.923   3.149 -1.4825  1.2049  2.5631
   38MOL   H42725661   4.552   6.762   3.167 -0.8796  1.7013  0.7304
   38MOL   H42825662   4.852   6.833   3.122 -0.3770 -0.7834  1.2915
   38MOL   H42925663   4.789   6.669   3.134 -1.3445 -0.8167 -0.4754
   38MOL   H43025664   4.667   6.860   2.915 -0.0206  0.2813 -0.1742
   38MOL   H43125665   4.654   6.698   2.931 -3.1570  2.5882  0.4755
   38MOL   H43225666   4.878   6.651   2.884 -1.1970 -0.0017  0.2746
   38MOL   H43325667   4.929   6.819   2.889 -1.2772  2.3129 -1.5982
   38MOL   H43425668   4.771   6.653   2.684 -0.4031  0.0141  0.7140
   38MOL   H43525669   4.762   6.832   2.682  0.7933  0.4719  0.8459
   38MOL   H43625670   5.001   6.677   2.613  0.1385  0.1720 -0.8375
   38MOL   H43725671   5.004   6.857   2.615 -1.4605  1.3843 -2.8255
   38MOL   H43825672   4.829   6.688   2.442 -1.2981  0.9676 -1.1920
   38MOL   H43925673   4.827   6.858   2.436 -3.2394 -2.2157  1.0443
   38MOL   H44025674   5.073   6.696   2.376 -0.5818 -0.8626 -1.3366
   38MOL   H44125675   5.086   6.864   2.393  3.1617 -3.1827  1.5624
   38MOL   H44225676   4.877   6.867   2.203 -1.2028 -1.2369 -0.2495
   38MOL   H44325677   4.950   6.713   2.173 -0.2662  0.8985 -0.8788
   38MOL   N44425678   5.046   6.930   2.015  0.2104  0.5482  0.0786
   38MOL   C44525679   5.140   6.944   1.906 -0.6539 -0.3158 -0.2680
   38MOL   C44625680   5.097   6.847   1.791  0.6955 -0.0534  0.0768
   38MOL   C44725681   5.064   6.705   1.836 -0.2448  0.4174  0.8382
   38MOL   C44825682   5.036   6.607   1.722 -0.0440 -0.4079  0.2927
   38MOL   C44925683   5.000   6.467   1.775  0.3815 -0.1872 -0.9978
   38MOL   C45025684   4.984   6.349   1.677 -0.0471  0.2719 -0.2002
   38MOL   C45125685   4.926   6.220   1.736 -0.0209 -1.0595 -0.7955
   38MOL   C45225686   4.904   6.109   1.629  0.2553 -0.1279  0.2983
   38MOL   C45325687   4.860   5.985   1.699  0.4887 -0.0476  0.3301
   38MOL   C45425688   4.847   5.863   1.609 -0.4338 -0.6454  0.3536
   38MOL   C45525689   4.772   5.750   1.670 -0.0501  0.2168  0.1940
   38MOL   O45625690   4.803   5.709   1.780 -0.2007 -0.0311  0.2954
   38MOL   H45725691   4.964   6.988   2.004 -0.1533  0.0407  0.1183
   38MOL   H45825692   5.126   7.049   1.879  0.3733 -0.0885  0.0694
   38MOL   H45925693   5.243   6.914   1.921 -0.1574  2.2670  1.6834
   38MOL   H46025694   5.179   6.829   1.722 -0.6934 -1.7845 -1.1406
   38MOL   H46125695   5.012   6.888   1.736  0.0864 -1.0276  0.2868
   38MOL   H46225696   5.143   6.666   1.901 -0.3989 -1.0118  0.2035
   38MOL   H46325697   4.969   6.710   1.889 -0.0049 -0.9119  1.4319
   38MOL   H46425698   5.126   6.603   1.661  0.5369 -2.4828  1.2720
   38MOL   H46525699   4.954   6.637   1.655 -0.0587  0.9480  0.8976
   38MOL   H46625700   4.920   6.474   1.849  1.1832 -0.1970 -0.1129
   38MOL   H46725701   5.089   6.436   1.830  0.0863 -0.6723 -0.7926
   38MOL   H46825702   4.920   6.384   1.597  0.2956  0.3202 -0.4556
   38MOL   H46925703   5.076   6.320   1.626 -0.0195 -0.1767  0.1055
   38MOL   H47025704   4.831   6.246   1.783  0.1899 -0.0394 -0.9061
   38MOL   H47125705   4.987   6.188   1.821 -0.8971  0.9345  0.6167
   38MOL   H47225706   4.830   6.144   1.557  1.9341  0.9435 -0.9595
   38MOL   H47325707   4.994   6.084   1.572 -1.6219 -0.7244 -2.4933
   38MOL   H47425708   4.768   6.000   1.754  0.7432 -1.4373  1.1726
   38MOL   H47525709   4.922   5.957   1.784 -0.6231 -2.5908  0.3491
   38MOL   H47625710   4.941   5.835   1.563 -0.9335 -2.0545  0.1690
   38MOL   H47725711   4.782   5.907   1.534 -1.1324  0.1845  1.4176
   38MOL   N47825712   4.693   5.691   1.579 -0.0253  0.5177 -0.0340
   38MOL   C47925713   4.612   5.572   1.606  0.8402 -0.8856 -0.8359
   38MOL   C48025714   4.692   5.448   1.572 -0.7044 -0.0560 -0.0614
   38MOL   C48125715   4.718   5.423   1.422  0.5501  0.0096  0.0284
   38MOL   C48225716   4.816   5.307   1.405  0.2067 -0.0082 -0.5659
   38MOL   C48325717   4.838   5.276   1.255  0.1705 -0.3748  0.0047
   38MOL   C48425718   4.886   5.132   1.232 -0.0058  0.0912  0.0370
   38MOL   C48525719   5.019   5.112   1.305  0.2302  0.3958 -0.3912
   38MOL   C48625720   5.122   5.207   1.253  0.1505  0.4776  0.4878
   38MOL   C48725721   5.258   5.211   1.326  0.5910  0.1962  0.1971
   38MOL   C48825722   5.250   5.267   1.470  0.4091 -0.2558 -0.3147
   38MOL   C48925723   5.209   5.416   1.478  0.4336  0.4307 -0.1726
   38MOL   O49025724   5.192   5.484   1.382 -0.4698 -0.3125 -0.5892
   38MOL   H49125725   4.664   5.735   1.493  1.5535 -1.2881 -1.5237
   38MOL   H49225726   4.591   5.562   1.713  1.8518  0.3863 -0.5091
   38MOL   H49325727   4.519   5.571   1.549  0.3962  0.3837 -0.1553
   38MOL   H49425728   4.639   5.367   1.622 -0.2891 -0.3453 -0.0919
   38MOL   H49525729   4.783   5.453   1.632 -2.1362 -0.8663  2.2574
   38MOL   H49625730   4.623   5.396   1.378 -0.9240 -0.5945  3.4633
   38MOL   H49725731   4.755   5.513   1.372 -1.4672  0.6193 -0.3970
   38MOL   H49825732   4.772   5.212   1.438 -1.2932  0.4611 -1.1559
   38MOL   H49925733   4.907   5.332   1.459 -1.0648 -1.1440  2.2299
   38MOL   H50025734   4.902   5.356   1.219 -1.1237  1.2981  1.3561
   38MOL   H50125735   4.743   5.308   1.211  0.6208  1.1013  0.1115
   38MOL   H50225736   4.807   5.060   1.250 -1.7415  1.3139 -2.3380
   38MOL   H50325737   4.896   5.122   1.124  1.1691  1.5950 -0.0283
   38MOL   H50425738   5.046   5.008   1.292 -0.6037  0.2806 -1.3236
   38MOL   H50525739   4.998   5.127   1.411 -0.7092 -0.0362 -0.5050
   38MOL   H50625740   5.139   5.181   1.149 -0.2396  0.7457  0.3559
   38MOL   H50725741   5.092   5.311   1.258  2.2822  1.1896 -1.1522
   38MOL   H50825742   5.321   5.278   1.267  0.6958 -0.3648 -0.3425
   38MOL   H50925743   5.310   5.115   1.322  1.2234  0.5928 -1.4074
   38MOL   H51025744   5.345   5.258   1.522  0.8230 -0.3923 -1.0989
   38MOL   H51125745   5.173   5.211   1.523  0.1555 -0.5663 -1.0110
   38MOL   N51225746   5.186   5.462   1.603  0.0362  0.1332  0.1082
   38MOL   C51325747   5.147   5.604   1.635  0.0264  0.5508 -0.0552
   38MOL   C51425748   5.258   5.697   1.691 -0.1485 -0.5843  0.1978
   38MOL   C51525749   5.209   5.837   1.729 -0.1082  0.1889 -0.3523
   38MOL   C51625750   5.322   5.921   1.786 -0.4127  0.3407  0.0027
   38MOL   C51725751   5.277   6.064   1.826 -0.9671  0.2517  0.3847
   38MOL   C51825752   5.394   6.156   1.876 -0.0321 -0.3998  0.2083
   38MOL   C51925753   5.357   6.301   1.846  0.6060  0.4044 -0.6395
   38MOL   C52025754   5.466   6.399   1.894 -0.4545 -0.5578 -0.2597
   38MOL   C52125755   5.422   6.545   1.878 -0.3378  0.0421  0.3207
   38MOL   C52225756   5.540   6.641   1.922  0.0184 -0.5975 -0.2048
   38MOL   C52325757   5.661   6.648   1.825 -0.0763  0.4736 -0.1262
   38MOL   O52425758   5.633   6.681   1.712  0.1869 -0.7603  0.5769
   38MOL   H52525759   5.214   5.401   1.679  0.5769 -1.4804 -1.3718
   38MOL   H52625760   5.096   5.648   1.549  0.7304  1.5609  0.0418
   38MOL   H52725761   5.060   5.591   1.700 -0.7834 -1.3772 -1.4754
   38MOL   H52825762   5.343   5.710   1.624 -0.4274  0.6640  0.0636
   38MOL   H52925763   5.301   5.645   1.777 -1.0084 -0.2913  0.8084
   38MOL   H53025764   5.168   5.884   1.639 -0.3290 -0.6007 -0.6678
   38MOL   H53125765   5.132   5.830   1.805  0.9951  1.9724  0.9826
   38MOL   H53225766   5.407   5.919   1.717 -2.8904 -0.5540 -3.1103
   38MOL   H53325767   5.354   5.862   1.873 -0.8872 -0.3364 -0.2797
   38MOL   H53425768   5.191   6.055   1.892 -1.0212 -1.3073  0.1053
   38MOL   H53525769   5.224   6.104   1.740  0.6084 -0.3127 -0.8768
   38MOL   H53625770   5.422   6.145   1.981 -1.5161  0.2084  0.6888
   38MOL   H53725771   5.490   6.137   1.827  0.6184 -1.0285  1.6867
   38MOL   H53825772   5.268   6.323   1.904 -0.0343  0.9531 -1.8131
   38MOL   H53925773   5.326   6.319   1.743 -1.1516  1.3293  0.0268
   38MOL   H54025774   5.502   6.376   1.994 -1.0233  0.1504  0.1205
   38MOL   H54125775   5.549   6.382   1.826  0.7981  0.6230  0.9223
   38MOL   H54225776   5.336   6.554   1.945 -0.2561 -2.2455  0.7732
   38MOL   H54325777   5.387   6.561   1.776 -1.9825 -2.0890  0.5096
   38MOL   H54425778   5.567   6.616   2.025  2.7106  1.8952 -0.2317
   38MOL   H54525779   5.500   6.741   1.935  1.9808 -0.2132  3.7717
   38MOL   N54625780   5.779   6.606   1.867 -0.4130  0.3229 -0.2602
   38MOL   C54725781   5.903   6.595   1.789  0.1586  0.7851  0.2468
   38MOL   C54825782   5.981   6.467   1.809  0.1675 -0.1596 -0.1629
   38MOL   C54925783   6.096   6.459   1.717  0.4482  0.5452 -0.2371
   38MOL   C55025784   6.178   6.329   1.729 -0.8927 -0.2430  0.6640
   38MOL   C55125785   6.226   6.289   1.584  0.4131 -0.7659  0.2837
   38MOL   C55225786   6.321   6.168   1.570 -0.0699 -0.4787 -0.2567
   38MOL   C55325787   6.404   6.154   1.436  0.2005  0.3339  0.3593
   38MOL   C55425788   6.331   6.072   1.332  0.6847 -0.0329  0.7013
   38MOL   C55525789   6.416   6.067   1.207  0.2791  0.2971  0.4990
   38MOL   C55625790   6.329   6.037   1.083  0.0221  0.3465 -0.4900
   38MOL   C55725791   6.270   5.901   1.087 -0.0670  0.5421 -0.9543
   38MOL   O55825792   6.326   5.803   1.042 -0.0258 -0.6865 -0.1924
   38MOL   H55925793   5.780   6.579   1.964  1.7471  2.4457  0.3576
   38MOL   H56025794   5.881   6.598   1.683  2.1555 -0.2609 -0.2367
   38MOL   H56125795   5.963   6.683   1.810 -0.8494  1.4687  0.2874
   38MOL   H56225796   5.909   6.384   1.811  1.3825 -1.2977 -2.3477
   38MOL   H56325797   6.030   6.472   1.906  1.9398 -1.9656 -0.9296
   38MOL   H56425798   6.046   6.470   1.621 -1.6125  0.0787  0.7578
   38MOL   H56525799   6.152   6.549   1.744 -0.2217  0.8066  0.3103
   38MOL   H56625800   6.126   6.247   1.778  0.6799 -1.4643  0.3416
   38MOL   H56725801   6.261   6.345   1.797  0.3508  0.2781 -0.9554
   38MOL   H56825802   6.276   6.375   1.540  0.2757 -2.4314 -3.3248
   38MOL   H56925803   6.139   6.278   1.520  1.0499 -1.9397 -0.3884
   38MOL   H57025804   6.395   6.164   1.650 -0.2490 -2.2055 -0.1516
   38MOL   H57125805   6.261   6.076   1.573  1.4761 -1.5940 -2.7161
   38MOL   H57225806   6.501   6.117   1.469  0.5685  0.6611 -0.3678
   38MOL   H57325807   6.433   6.252   1.400 -0.0418  0.3035  0.0791
   38MOL   H57425808   6.305   5.970   1.361 -2.3285  0.3269 -0.6224
   38MOL   H57525809   6.237   6.120   1.307 -0.5622 -3.0073 -0.5404
   38MOL   H57625810   6.498   5.995   1.209 -0.3701 -0.4686 -0.5092
   38MOL   H57725811   6.456   6.168   1.191 -3.3878  1.4648 -1.7402
   38MOL   H57825812   6.392   6.040   0.993  0.8781  0.7597  0.1197
   38MOL   H57925813   6.252   6.111   1.064  0.6749  0.5446 -2.5685
   38MOL   N58025814   6.151   5.896   1.156  0.1592 -0.2298 -0.3127
   38MOL   C58125815   6.077   5.778   1.201 -0.4253  0.4043  0.2227
   38MOL   C58225816   6.135   5.736   1.340  0.4119 -0.4074 -0.3801
   38MOL   C58325817   6.078   5.612   1.396  0.5542 -0.8738  0.3541
   38MOL   C58425818   6.136   5.585   1.539  0.2887  0.6599  0.3173
   38MOL   C58525819   6.056   5.482   1.622  0.4190  0.1215  0.1641
   38MOL   C58625820   6.122   5.458   1.760 -0.4055 -0.3009 -0.1491
   38MOL   C58725821   6.043   5.368   1.843  0.1447 -0.0013  0.4982
   38MOL   C58825822   6.098   5.354   1.986 -1.1502  0.0978  0.1052
   38MOL   C58925823   6.048   5.232   2.065  0.0532  0.1344 -0.3641
   38MOL   C59025824   5.897   5.218   2.078  0.3908 -0.0977 -0.3780
   38MOL   C59125825   5.827   5.342   2.132 -0.3082 -0.5512  0.4247
   38MOL   O59225826   5.722   5.375   2.084  0.0148  0.4837  0.4123
   38MOL   H59325827   6.115   5.987   1.179 -1.1766 -1.1098  1.1221
   38MOL   H59425828   5.968   5.790   1.207 -0.4779 -0.8780  2.5529
   38MOL   H59525829   6.088   5.697   1.129 -0.0075 -1.0269  1.8591
   38MOL   H59625830   6.113   5.820   1.406 -1.3139 -0.6901 -0.5567
   38MOL   H59725831   6.243   5.722   1.332  0.3999 -0.8628  0.2824
   38MOL   H59825832   5.972   5.637   1.393  1.1246  1.7497  0.8733
   38MOL   H59925833   6.094   5.520   1.340 -0.3656 -0.3588 -0.7520
   38MOL   H60025834   6.139   5.674   1.602 -1.1376 -0.3659  1.8982
   38MOL   H60125835   6.238   5.548   1.532  0.9438  2.3586  0.4392
   38MOL   H60225836   6.059   5.379   1.584 -0.7453 -0.9201  2.7652
   38MOL   H60325837   5.952   5.513   1.629  0.5183  0.6177 -0.5556
   38MOL   H60425838   6.223   5.422   1.745  0.3704  1.6499  0.2006
   38MOL   H60525839   6.134   5.552   1.814 -1.7484  0.1387 -0.5678
   38MOL   H60625840   6.030   5.268   1.802 -0.6262  0.2703  0.0708
   38MOL   H60725841   5.940   5.401   1.853  0.3416  1.3753 -1.7375
   38MOL   H60825842   6.205   5.336   1.977 -0.9782  0.6399  1.0145
   38MOL   H60925843   6.093   5.444   2.048 -1.6223 -0.2760  0.6121
   38MOL   H61025844   6.091   5.233   2.165  0.2105  2.2508 -0.4210
   38MOL   H61125845   6.093   5.145   2.019 -0.0799 -1.0202  1.6117
   38MOL   H61225846   5.867   5.134   2.140 -2.3490  1.1007  0.0037
   38MOL   H61325847   5.862   5.193   1.978 -1.2898 -1.0172  0.4198
   38MOL   N61425848   5.895   5.413   2.228  0.2011 -0.5833  0.3859
   38MOL   C61525849   5.834   5.533   2.283 -0.2513 -0.2108 -0.0447
   38MOL   C61625850   5.946   5.633   2.320 -0.4101 -0.2941  0.1242
   38MOL   C61725851   5.890   5.739   2.424 -0.4186  0.1760 -0.4029
   38MOL   C61825852   5.993   5.839   2.473 -0.1746  0.6719  0.3611
   38MOL   C61925853   5.944   5.910   2.604  0.2320  1.0049 -0.3305
   38MOL   C62025854   6.043   6.007   2.665  0.3063  0.1466  0.3517
   38MOL   C62125855   5.984   6.087   2.781  1.2084  0.0023  0.5229
   38MOL   C62225856   6.086   6.184   2.836 -0.4921  0.1597 -0.8140
   38MOL   C62325857   6.016   6.301   2.921  0.3339  0.2869 -0.0109
   38MOL   C62425858   6.108   6.410   2.980  1.2337  1.1440 -0.1908
   38MOL   C62525859   6.163   6.512   2.879 -0.0867  0.3157  0.5382
   38MOL   O62625860   6.134   6.511   2.761 -0.0665 -0.3543 -0.4294
   38MOL   H62725861   5.993   5.397   2.248  0.2429 -1.2722 -0.3750
   38MOL   H62825862   5.789   5.497   2.375 -0.6162  0.5443  0.0756
   38MOL   H62925863   5.762   5.587   2.222 -0.0884  0.4556  0.3486
   38MOL   H63025864   5.988   5.686   2.234 -0.7039  0.5663  0.5026
   38MOL   H63125865   6.027   5.583   2.373 -0.9030 -0.5679  0.6238
   38MOL   H63225866   5.801   5.794   2.395 -0.1603  1.2783  0.8316
   38MOL   H63325867   5.856   5.684   2.511  0.4579 -2.0164 -1.4161
   38MOL   H63425868   6.024   5.909   2.396 -1.3823  2.1914  1.2278
   38MOL   H63525869   6.085   5.788   2.502 -0.6334 -1.0593 -1.1172
   38MOL   H63625870   5.897   5.846   2.679  0.9919  0.6757 -0.1328
   38MOL   H63725871   5.858   5.966   2.567  0.0122  0.7346 -0.2306
   38MOL   H63825872   6.126   5.947   2.702 -0.9247 -1.8671 -0.0701
   38MOL   H63925873   6.081   6.074   2.587 -0.7168  1.7853  1.2327
   38MOL   H64025874   5.935   6.022   2.854  1.4733 -2.7438 -1.6592
   38MOL   H64125875   5.899   6.144   2.742  1.9010  1.2584  0.8386
   38MOL   H64225876   6.161   6.124   2.889 -1.2536 -0.2130 -0.1477
   38MOL   H64325877   6.135   6.242   2.758 -0.4011 -0.8409 -1.5012
   38MOL   H64425878   5.977   6.244   3.005 -1.9278  0.1601 -1.1218
   38MOL   H64525879   5.925   6.339   2.875 -0.6572  0.0712  1.7570
   38MOL   H64625880   6.193   6.380   3.041 -0.1843  0.3395  1.4462
   38MOL   H64725881   6.043   6.464   3.049 -1.9589 -2.3706 -0.2482
   38MOL   N64825882   6.232   6.617   2.927  0.1147  0.4950 -0.0979
   38MOL   C64925883   6.285   6.732   2.857  0.0753  0.2474  0.0072
   38MOL   C65025884   6.354   6.825   2.953  0.0509  0.3970  0.5130
   38MOL   C65125885   6.450   6.927   2.896  0.6435 -0.3866  0.0316
   38MOL   C65225886   6.537   7.005   2.998  0.7469  0.4270  0.2313
   38MOL   C65325887   6.615   7.109   2.920 -0.3963  0.2163 -0.5880
   38MOL   C65425888   6.667   7.218   3.011  0.7945 -0.5619  0.8938
   38MOL   C65525889   6.734   7.333   2.928  0.2271 -0.1871 -0.3421
   38MOL   C65625890   6.623   7.420   2.856 -0.3381 -0.0901  0.5914
   38MOL   C65725891   6.679   7.562   2.815 -0.2985 -0.0296  0.3519
   38MOL   C65825892   6.748   7.557   2.679  0.2724 -0.1481 -0.4848
   38MOL   C65925893   6.828   7.686   2.650  0.1777  0.1050  0.1834
   38MOL   O66025894   6.781   0.077   2.652 -0.5012 -0.2317  0.3357
   38MOL   H66125895   6.251   6.613   3.026 -0.9885 -0.1749  0.0978
   38MOL   H66225896   6.232   6.790   2.782  0.9509 -1.7512 -2.2079
   38MOL   H66325897   6.364   6.689   2.796  1.2064 -0.0592  1.6374
   38MOL   H66425898   6.409   6.762   3.023  2.3588  1.0121 -0.7036
   38MOL   H66525899   6.285   6.869   3.025  0.0637 -1.8044  1.9375
   38MOL   H66625900   6.509   6.865   2.828  1.8863 -1.5265  2.1002
   38MOL   H66725901   6.395   6.992   2.828  0.6990  0.1885  0.5430
   38MOL   H66825902   6.593   6.940   3.065  0.1840  0.1254  0.4120
   38MOL   H66925903   6.465   7.054   3.063  1.6470  0.4534  1.2166
   38MOL   H67025904   6.553   7.147   2.838 -1.4544 -0.3396 -0.0644
   38MOL   H67125905   6.703   7.070   2.869 -0.1938  0.0648 -0.1209
   38MOL   H67225906   6.591   7.270   3.070  0.7606  0.8698 -0.3622
   38MOL   H67325907   6.741   7.169   3.074  0.1907 -3.6422 -0.6889
   38MOL   H67425908   6.811   7.300   2.858  1.9919  0.4389  1.2282
   38MOL   H67525909   6.781   7.399   3.002 -0.0452  0.2473 -0.5506
   38MOL   H67625910   6.583   7.369   2.768 -0.5192 -0.2369  0.7571
   38MOL   H67725911   6.543   7.436   2.928  1.2138  2.5284  1.8254
   38MOL   H67825912   6.728   7.608   2.900  1.2776 -0.9192 -0.0508
   38MOL   H67925913   6.588   7.619   2.795 -1.2080 -1.3252  0.7144
   38MOL   H68025914   6.679   7.538   2.597 -1.4103  3.0846  0.0886
   38MOL   H68125915   6.813   7.471   2.690 -0.5108 -0.5587  0.9122
   38MOL   H68225916   6.929   7.662   2.618  0.9697  1.9180  1.2637
   39MOL     N125917   5.172   7.271   4.439  0.5344  0.3661 -0.3486
   39MOL     C225918   5.049   7.251   4.518 -0.2161  0.5323 -0.0192
   39MOL     C325919   5.036   7.361   4.626  0.2007 -0.1210 -0.7288
   39MOL     C425920   4.901   7.360   4.703 -0.3345  0.3499  0.1103
   39MOL     C525921   4.911   7.465   4.811  0.3716  0.0704 -0.0106
   39MOL     C625922   4.905   7.608   4.775  0.3575  0.1682  0.0166
   39MOL     C725923   4.946   7.701   4.893 -0.3170 -0.7726  0.4556
   39MOL     C825924   4.909   0.129   4.861 -0.5872 -0.2347  0.2635
   39MOL     C925925   4.929   0.234   4.974  0.5613  0.1831 -0.0660
   39MOL    C1025926   5.068   0.279   5.023 -0.1824 -0.0702 -0.6691
   39MOL    C1125927   5.069   0.404   5.114 -0.5576 -0.2294  0.0979
   39MOL    C1225928   5.032   0.380   5.255 -0.1957 -0.3942 -0.3022
   39MOL    O1325929   4.972   0.279   5.289  0.0337  0.4513  0.0167
   39MOL    H1425930   5.139   7.260   4.345  0.0164  1.9953 -0.3652
   39MOL    H1525931   5.040   7.154   4.565 -0.2570  0.7833  0.4943
   39MOL    H1625932   4.958   7.270   4.460  0.4358  1.7476 -0.6680
   39MOL    H1725933   5.059   7.459   4.585  2.0588  0.7985  2.3082
   39MOL    H1825934   5.104   7.324   4.703 -0.3051  0.6936  0.1163
   39MOL    H1925935   4.817   7.371   4.635 -0.5922  2.9066  0.8116
   39MOL    H2025936   4.874   7.265   4.751 -0.0037 -0.3656 -1.1032
   39MOL    H2125937   5.002   7.446   4.869  1.1967 -0.4418 -1.4693
   39MOL    H2225938   4.832   7.445   4.883 -0.4359  0.6990 -0.7086
   39MOL    H2325939   4.803   7.624   4.740 -0.4453 -0.6633  1.8937
   39MOL    H2425940   4.960   7.632   4.684 -0.6686 -1.4451 -1.0486
   39MOL    H2525941   4.898   7.685   4.989  0.3135  0.9835  1.0712
   39MOL    H2625942   5.054   7.711   4.910 -0.6916 -0.2125  2.6325
   39MOL    H2725943   4.805   0.151   4.835 -0.4672 -0.1327 -0.1252
   39MOL    H2825944   4.955   0.157   4.766  2.2221 -0.2703  1.5694
   39MOL    H2925945   4.879   0.329   4.953 -1.1062 -0.0918  2.3888
   39MOL    H3025946   4.871   0.205   5.062  1.9667  0.5107  0.9778
   39MOL    H3125947   5.132   0.292   4.936 -0.5135  0.0550 -0.8970
   39MOL    H3225948   5.128   0.201   5.071 -0.6532  0.1711  0.3363
   39MOL    H3325949   5.010   0.482   5.066 -1.6420 -1.7432 -1.0700
   39MOL    H3425950   5.171   0.441   5.128  1.0833 -3.9170 -1.1187
   39MOL    H3525951   5.193   7.369   4.453  0.8520 -0.0935  2.8561
   39MOL    N3625952   5.052   0.477   5.339 -0.7880  0.2656 -0.2080
   39MOL    C3725953   5.032   0.474   5.485 -0.5323  0.0832 -0.3450
   39MOL    C3825954   4.890   0.523   5.504  0.0524  0.4194  0.1868
   39MOL    C3925955   4.852   0.529   5.652 -0.6792 -0.1621  0.2603
   39MOL    C4025956   4.729   0.441   5.682  0.2952  0.0781  0.4465
   39MOL    C4125957   4.692   0.464   5.831 -0.4549 -0.0907 -0.9174
   39MOL    C4225958   4.554   0.405   5.874 -0.1165  0.0661  0.6886
   39MOL    C4325959   4.516   0.432   6.020  0.6818 -0.0035  0.2669
   39MOL    C4425960   4.408   0.330   6.060 -0.0162 -0.3241 -1.0507
   39MOL    C4525961   4.364   0.345   6.204 -0.3878  0.0574 -0.3070
   39MOL    C4625962   4.255   0.244   6.239 -0.5315 -0.6993 -0.2845
   39MOL    C4725963   4.225   0.258   6.388 -0.6148 -0.0147 -0.5876
   39MOL    O4825964   4.306   0.245   6.480  0.3944 -0.0663  0.3188
   39MOL    H4925965   5.097   0.559   5.302  1.1777 -0.6549  0.0763
   39MOL    H5025966   5.038   0.372   5.522  0.8175 -0.4460 -1.9466
   39MOL    H5125967   5.104   0.537   5.537  1.0379 -0.7850 -1.4028
   39MOL    H5225968   4.821   0.453   5.457 -0.3702  0.6781  0.4082
   39MOL    H5325969   4.882   0.622   5.459 -2.6070 -0.2492 -0.9104
   39MOL    H5425970   4.938   0.500   5.713  0.1013 -0.9130 -1.1704
   39MOL    H5525971   4.833   0.632   5.680 -0.0117 -0.6983  2.8115
   39MOL    H5625972   4.760   0.338   5.665  0.2412  0.5191 -2.6687
   39MOL    H5725973   4.658   0.474   5.607  1.7601 -1.6678 -1.7721
   39MOL    H5825974   4.692   0.569   5.860 -0.2436 -0.7113  1.4137
   39MOL    H5925975   4.768   0.408   5.886  0.0130 -0.1454 -1.6105
   39MOL    H6025976   4.475   0.436   5.805  0.1461 -0.6630  0.0585
   39MOL    H6125977   4.567   0.300   5.851 -0.5584 -0.6643  3.5764
   39MOL    H6225978   4.495   0.539   6.027 -0.2942 -0.3293  2.5234
   39MOL    H6325979   4.599   0.419   6.089 -0.9086 -1.5804  1.9250
   39MOL    H6425980   4.316   0.344   6.002 -0.7570  2.5334  0.7421
   39MOL    H6525981   4.445   0.229   6.040 -0.0294 -0.4978 -0.1779
   39MOL    H6625982   4.326   0.444   6.228 -1.4222 -0.5151  0.4382
   39MOL    H6725983   4.447   0.332   6.274  0.2977 -0.5497 -1.2077
   39MOL    H6825984   4.295   0.146   6.215  1.8646  0.1997 -0.1472
   39MOL    H6925985   4.161   0.255   6.185  0.0713 -0.6169 -1.3244
   39MOL    N7025986   4.098   0.292   6.410  0.6352 -0.3505  0.3152
   39MOL    C7125987   4.049   0.326   6.540  0.0568 -0.1638  0.0334
   39MOL    C7225988   3.923   0.411   6.534  1.0106  0.9787  0.8482
   39MOL    C7325989   3.857   0.412   6.667 -0.3748  0.1049  0.1312
   39MOL    C7425990   3.725   0.487   6.658 -0.3900 -1.1275  0.1850
   39MOL    C7525991   3.670   0.483   6.796  0.7163 -0.4364 -0.0468
   39MOL    C7625992   3.731   0.577   6.898 -0.5214  0.0922  0.6733
   39MOL    C7725993   3.645   0.582   7.032 -0.0616  0.4447 -0.2361
   39MOL    C7825994   3.725   0.660   7.143  0.4386  0.7752  0.7504
   39MOL    C7925995   3.667   0.657   7.293  0.1356  0.1961  0.4189
   39MOL    C8025996   3.784   0.692   7.388 -0.2775 -0.0809 -0.1230
   39MOL    C8125997   3.748   0.692   7.534 -0.0127  0.1507 -0.4468
   39MOL    O8225998   3.699   0.591   7.582 -0.3853 -0.1351 -0.5096
   39MOL    H8325999   4.023   0.279   6.343 -0.1861  0.0713  1.1373
   39MOL    H8426000   4.037   0.237   6.601  0.3222  2.0734  3.4709
   39MOL    H8526001   4.129   0.381   6.591  1.3958  1.1846 -3.3533
   39MOL    H8626002   3.858   0.365   6.459  2.3999  0.9330 -0.3560
   39MOL    H8726003   3.944   0.513   6.504  1.2121  0.0333 -2.3840
   39MOL    H8826004   3.841   0.309   6.700  1.6724 -0.3078 -0.0992
   39MOL    H8926005   3.915   0.460   6.745  1.1130  1.9496 -2.0471
   39MOL    H9026006   3.663   0.442   6.581  1.3293 -0.2884 -1.7586
   39MOL    H9126007   3.756   0.586   6.624 -3.7500 -0.2793 -0.5765
   39MOL    H9226008   3.674   0.381   6.835  1.9732 -1.3468 -2.4901
   39MOL    H9326009   3.567   0.518   6.791  1.7898  2.5740 -2.3929
   39MOL    H9426010   3.838   0.561   6.907 -0.1029  0.4442 -2.7583
   39MOL    H9526011   3.740   0.679   6.858 -2.7334  0.1157  0.1843
   39MOL    H9626012   3.620   0.481   7.064  0.6510  0.2960 -0.1250
   39MOL    H9726013   3.549   0.628   7.009 -0.5930 -0.6142 -0.1552
   39MOL    H9826014   3.825   0.616   7.144  0.5024  0.9243  0.8635
   39MOL    H9926015   3.714   0.767   7.125 -0.8700  0.7595  1.3765
   39MOL   H10026016   3.624   0.561   7.318  0.5802  0.6495  3.0588
   39MOL   H10126017   3.592   0.734   7.307 -0.6779 -0.5738  0.3019
   39MOL   H10226018   3.843   0.777   7.355 -1.0500  0.5097  0.0066
   39MOL   H10326019   3.853   0.607   7.384 -0.6329 -0.4921  1.7567
   39MOL   N10426020   3.770   0.800   7.604 -0.6038 -0.0712 -0.2728
   39MOL   C10526021   3.771   0.804   0.031 -0.1704 -0.4119 -1.3312
   39MOL   C10626022   3.740   0.945   0.078  0.5690  0.7857  0.1548
   39MOL   C10726023   3.754   0.982   0.227  0.1420  0.3494  0.5934
   39MOL   C10826024   3.686   0.876   0.321 -0.5540  0.1632  0.0531
   39MOL   C10926025   3.697   0.913   0.471 -0.4424  0.2539  1.1881
   39MOL   C11026026   3.845   0.927   0.520 -0.3328 -0.3586 -0.5562
   39MOL   C11126027   3.925   0.797   0.532 -0.3586 -0.0571 -0.0198
   39MOL   C11226028   4.024   0.761   0.417 -0.1887 -0.2254 -0.1505
   39MOL   C11326029   4.058   0.608   0.410  0.2230 -0.5019 -0.6426
   39MOL   C11426030   4.156   0.563   0.307  0.6631  0.0090 -0.5725
   39MOL   C11526031   4.299   0.589   0.345  0.5601  0.6926 -0.6898
   39MOL   O11626032   4.342   0.536   0.450  0.7375 -0.2437 -0.2034
   39MOL   H11726033   3.811   0.879   7.557  0.1707 -0.9016 -1.0186
   39MOL   H11826034   3.690   0.740   0.064  1.5845 -1.1503  1.7476
   39MOL   H11926035   3.862   0.759   0.071 -1.2283  0.3296  2.1483
   39MOL   H12026036   3.634   0.962   0.060  0.0995 -1.8776  0.1472
   39MOL   H12126037   3.799   1.014   0.019  0.3837  1.3293  0.6031
   39MOL   H12226038   3.863   0.988   0.224  0.0858  0.9883 -0.8406
   39MOL   H12326039   3.723   1.080   0.261 -0.7518  1.2261 -2.5493
   39MOL   H12426040   3.725   0.780   0.287  1.5216  1.0231 -0.0343
   39MOL   H12526041   3.582   0.876   0.287 -0.0794 -1.7410 -1.4791
   39MOL   H12626042   3.636   0.849   0.534  1.6963 -2.3166  0.7491
   39MOL   H12726043   3.664   1.014   0.494  0.1553  0.4235  1.3071
   39MOL   H12826044   3.898   1.001   0.460 -0.0057 -1.3740 -1.5326
   39MOL   H12926045   3.855   0.965   0.622 -0.1057 -1.9892  0.0501
   39MOL   H13026046   3.860   0.712   0.553  0.2713 -0.7609 -0.8772
   39MOL   H13126047   3.984   0.815   0.621  2.2178  1.2730 -1.9360
   39MOL   H13226048   3.967   0.785   0.327  1.1178 -0.7627 -1.1380
   39MOL   H13326049   4.107   0.831   0.421 -0.2395  0.1641 -4.2075
   39MOL   H13426050   3.968   0.547   0.404  0.8524 -1.4308 -0.7172
   39MOL   H13526051   4.109   0.589   0.505  1.1598 -1.9213 -1.3934
   39MOL   H13626052   4.140   0.597   0.204 -1.1908  2.9383  0.5995
   39MOL   H13726053   4.162   0.455   0.303 -1.4017 -0.2522  2.0274
   39MOL   N13826054   4.379   0.664   0.265 -0.2370 -0.2104  0.1015
   39MOL   C13926055   4.522   0.703   0.299 -0.5393 -0.7650  0.2936
   39MOL   C14026056   4.548   0.848   0.264  0.2406  0.1742  0.3585
   39MOL   C14126057   4.691   0.890   0.285 -0.3593 -0.3727 -0.0133
   39MOL   C14226058   4.732   1.020   0.230 -0.9352  0.0555  0.1548
   39MOL   C14326059   4.887   1.040   0.215  0.5134  0.4253  0.5243
   39MOL   C14426060   4.913   1.168   0.137 -0.4303  0.5421  0.8570
   39MOL   C14526061   5.057   1.230   0.145 -0.2751  0.2601 -0.7258
   39MOL   C14626062   5.160   1.146   0.058  0.4485  0.4102  0.0241
   39MOL   C14726063   5.299   1.205   0.030 -0.1440  0.2809  0.6149
   39MOL   C14826064   5.354   1.172   7.605  0.0859  0.3508 -0.6891
   39MOL   C14926065   5.424   1.035   7.599 -0.0672 -0.5053  0.5537
   39MOL   O15026066   5.387   0.945   7.677  0.4876  0.0942 -0.3260
   39MOL   H15126067   4.329   0.698   0.184 -0.2685 -0.8453 -0.1476
   39MOL   H15226068   4.547   0.680   0.403 -1.6680 -0.6292  0.5974
   39MOL   H15326069   4.578   0.630   0.241 -1.3687  0.1747 -1.7206
   39MOL   H15426070   4.470   0.908   0.311 -0.8718  0.7662 -2.2041
   39MOL   H15526071   4.536   0.869   0.158 -1.0300 -1.9678  0.0490
   39MOL   H15626072   4.719   0.894   0.390 -2.4741  0.3127  0.5612
   39MOL   H15726073   4.752   0.814   0.235 -1.5620 -1.2046 -0.2659
   39MOL   H15826074   4.682   1.097   0.288  0.0477  1.5433 -0.9195
   39MOL   H15926075   4.694   1.026   0.128 -0.0874 -2.2542 -0.3353
   39MOL   H16026076   4.941   0.962   0.161 -0.9121 -0.3405  0.1671
   39MOL   H16126077   4.928   1.050   0.316  0.7350 -1.1013  0.6006
   39MOL   H16226078   4.898   1.146   0.032 -1.9205  1.2202  0.9120
   39MOL   H16326079   4.841   1.247   0.162 -1.7060 -0.2481 -0.2782
   39MOL   H16426080   5.090   1.228   0.249  1.8600  0.4514 -1.3751
   39MOL   H16526081   5.056   1.338   0.129  0.8963  0.3940  0.0641
   39MOL   H16626082   5.170   1.051   0.110 -3.0618 -0.2642 -0.4441
   39MOL   H16726083   5.123   1.114   7.677  0.2925  0.5019  0.0535
   39MOL   H16826084   5.371   1.194   0.111  0.2732 -2.1389 -0.0610
   39MOL   H16926085   5.285   1.313   0.042 -0.2910  0.5718 -1.8459
   39MOL   H17026086   5.441   1.237   7.595  0.1758  0.2904 -0.2983
   39MOL   H17126087   5.285   1.193   7.523  0.1225  3.7535  0.0868
   39MOL   N17226088   5.525   1.028   7.519 -0.3618 -0.1974  0.4004
   39MOL   C17326089   5.610   0.911   7.482  0.2503  0.3583 -0.4413
   39MOL   C17426090   5.612   0.901   7.328  0.3624 -0.2076 -0.4328
   39MOL   C17526091   5.704   0.792   7.278  0.7800  0.4876 -0.6194
   39MOL   C17626092   5.859   0.791   7.307 -0.0394 -0.5343 -0.0476
   39MOL   C17726093   5.917   0.935   7.285 -0.4876  0.1305 -0.2296
   39MOL   C17826094   6.072   0.931   7.259 -0.7354 -0.4275  0.8153
   39MOL   C17926095   6.139   1.074   7.234  0.3964  0.0610  0.2605
   39MOL   C18026096   6.258   1.062   7.137 -0.5853 -0.0148 -0.6803
   39MOL   C18126097   6.304   1.204   7.115  0.2202  0.8128  0.1082
   39MOL   C18226098   6.441   1.210   7.036  0.1990  0.1896  0.2588
   39MOL   C18326099   6.559   1.207   7.134 -0.7347  0.5918 -0.2517
   39MOL   O18426100   6.557   1.283   7.235  0.1525  0.0250  0.6719
   39MOL   H18526101   5.540   1.118   7.476 -1.7051 -0.4397 -0.6362
   39MOL   H18626102   5.708   0.932   7.525  0.4011 -0.0351 -0.5939
   39MOL   H18726103   5.571   0.818   7.524 -0.4920  1.6718  1.8845
   39MOL   H18826104   5.629   0.998   7.281 -2.0271 -0.2419 -1.3896
   39MOL   H18926105   5.508   0.882   7.305  0.2281  1.0295 -0.8956
   39MOL   H19026106   5.660   0.698   7.311  0.7454  1.1511  1.2870
   39MOL   H19126107   5.684   0.790   7.171 -2.3432  0.6311 -0.0872
   39MOL   H19226108   5.909   0.722   7.238 -1.4657 -0.6158 -1.0069
   39MOL   H19326109   5.880   0.740   7.402  1.5217 -0.3747 -0.2866
   39MOL   H19426110   5.895   0.992   7.375  0.3800 -1.1525  0.8194
   39MOL   H19526111   5.869   0.982   7.199 -0.0069 -0.0716 -0.6100
   39MOL   H19626112   6.134   0.878   7.331 -0.0684 -1.5861 -0.5866
   39MOL   H19726113   6.078   0.871   7.168  2.1322  1.9048 -0.6293
   39MOL   H19826114   6.175   1.113   7.329  1.4347 -0.1017 -0.0609
   39MOL   H19926115   6.071   1.146   7.188  0.4157 -0.8992 -1.3112
   39MOL   H20026116   6.336   1.009   7.191 -0.8000  3.2175  3.0483
   39MOL   H20126117   6.223   1.020   7.042 -0.7959 -3.0086  0.6709
   39MOL   H20226118   6.300   1.262   7.207 -1.0413  1.1626 -0.1521
   39MOL   H20326119   6.242   1.259   7.044 -1.0749  1.9395  2.0858
   39MOL   H20426120   6.448   1.299   6.974 -2.2502 -0.5720 -1.1881
   39MOL   H20526121   6.444   1.126   6.966 -0.0893  1.0848 -0.8471
   39MOL   N20626122   6.649   1.108   7.123  0.2173  0.1985  0.2792
   39MOL   C20726123   6.758   1.087   7.214  0.5299 -0.4458 -0.0974
   39MOL   C20826124   6.839   0.967   7.171  0.3902 -0.0154  0.4759
   39MOL   C20926125   6.971   0.960   7.248  0.4454 -0.3128 -0.4282
   39MOL   C21026126   7.063   0.844   7.200  0.0148  0.0951 -0.7455
   39MOL   C21126127   7.187   0.831   7.287  0.3176  0.0495 -1.0979
   39MOL   C21226128   7.263   0.706   7.265 -0.2219 -0.2772 -0.1910
   39MOL   C21326129   7.391   0.696   7.350 -0.0960  0.0087 -0.1336
   39MOL   C21426130   7.504   0.597   7.307 -0.0336  0.3973  0.7335
   39MOL   C21526131   7.607   0.602   7.413  0.7050 -0.4229  0.0268
   39MOL   C21626132   0.027   0.535   7.396 -0.0661 -0.0204  0.1782
   39MOL   C21726133   0.111   0.629   7.307 -0.0525 -0.4368 -0.5559
   39MOL   O21826134   0.087   0.635   7.182 -0.1892 -0.1490 -0.4378
   39MOL   H21926135   6.639   1.057   7.037  0.6307 -0.9573  0.8995
   39MOL   H22026136   6.713   1.077   7.313 -0.5924 -1.0959 -0.6743
   39MOL   H22126137   6.809   1.183   7.225  1.2944 -0.9886  1.2665
   39MOL   H22226138   6.860   0.969   7.064  1.6325 -2.7000  0.6335
   39MOL   H22326139   6.782   0.876   7.193 -0.5788  0.1441 -1.3003
   39MOL   H22426140   7.020   1.056   7.232  1.9701 -0.9981 -0.0096
   39MOL   H22526141   6.938   0.960   7.351 -1.1540 -1.1939 -0.9298
   39MOL   H22626142   7.088   0.860   7.096  1.0026  2.1533 -0.2025
   39MOL   H22726143   6.999   0.756   7.215  1.1815 -0.3420  1.9035
   39MOL   H22826144   7.147   0.830   7.388  2.0839 -0.1938 -0.3862
   39MOL   H22926145   7.253   0.915   7.264 -0.6660  0.7246 -1.5110
   39MOL   H23026146   7.195   0.622   7.272  1.9530 -2.1784 -0.9326
   39MOL   H23126147   7.290   0.719   7.160  2.9703  1.9987  0.8349
   39MOL   H23226148   7.358   0.679   7.453  0.5645  0.1940  0.1141
   39MOL   H23326149   7.431   0.797   7.349 -1.8880  0.7234 -1.8958
   39MOL   H23426150   7.475   0.492   7.306  3.6933 -0.6971  0.8467
   39MOL   H23526151   7.541   0.614   7.206  0.3237 -1.2793  0.5676
   39MOL   H23626152   7.562   0.570   7.507 -2.3409  0.0713 -1.1719
   39MOL   H23726153   7.629   0.706   7.433  0.5621 -0.4958  0.5722
   39MOL   H23826154   0.027   0.435   7.352 -0.8211 -0.0400  0.2135
   39MOL   H23926155   0.079   0.531   7.491  2.0292  2.6330 -0.8053
   39MOL   N24026156   0.212   0.697   7.365  0.6572 -0.7673  0.5217
   39MOL   C24126157   0.295   0.791   7.295 -0.4488 -0.4539 -1.2012
   39MOL   C24226158   0.388   0.842   7.402 -0.0586  0.3963  0.1065
   39MOL   C24326159   0.496   0.942   7.350 -0.4753  0.0061  0.3121
   39MOL   C24426160   0.604   0.988   7.449  0.1476 -0.1381 -0.1509
   39MOL   C24526161   0.712   1.091   7.399  0.4723 -0.8907 -0.3761
   39MOL   C24626162   0.821   1.127   7.498  0.0234 -0.0176  0.3802
   39MOL   C24726163   0.927   1.021   7.527 -0.0941  0.2958 -0.2187
   39MOL   C24826164   1.027   0.976   7.425 -0.7929  0.6455  0.8776
   39MOL   C24926165   1.008   0.841   7.351 -0.5206  0.4056  0.7750
   39MOL   C25026166   1.119   0.802   7.247  0.2490 -0.1722 -0.8538
   39MOL   C25126167   1.135   0.651   7.237 -0.0956  0.0483  0.7066
   39MOL   O25226168   1.161   0.585   7.337 -0.0118  0.3500  0.2137
   39MOL   H25326169   0.244   0.674   7.457 -2.7066 -0.3808  1.8769
   39MOL   H25426170   0.240   0.877   7.256 -0.2286  0.3800  0.2867
   39MOL   H25526171   0.350   0.744   7.213  1.1017 -0.2970 -0.2603
   39MOL   H25626172   0.445   0.760   7.447  0.7919  0.6090 -0.5687
   39MOL   H25726173   0.332   0.892   7.482  1.7406 -0.2098  1.7919
   39MOL   H25826174   0.549   0.897   7.266  0.6618 -2.0558  2.0800
   39MOL   H25926175   0.449   1.029   7.304 -0.6204  0.4439  1.2744
   39MOL   H26026176   0.661   0.899   7.476  3.2640  1.7754 -0.1365
   39MOL   H26126177   0.557   1.036   7.535  1.6149  0.5424  0.2936
   39MOL   H26226178   0.669   1.180   7.353 -0.1664 -0.7288  0.5404
   39MOL   H26326179   0.752   1.037   7.313  0.0509 -0.3340 -0.9280
   39MOL   H26426180   0.871   1.220   7.468  2.5428 -1.1312  1.0273
   39MOL   H26526181   0.766   1.151   7.588 -0.6895 -1.0036  0.2139
   39MOL   H26626182   0.887   0.932   7.575 -1.3399  1.0589  0.1912
   39MOL   H26726183   0.985   1.074   7.602 -1.2615 -2.6785  2.8967
   39MOL   H26826184   1.049   1.046   7.345 -0.5322 -1.7696 -1.2397
   39MOL   H26926185   1.121   0.974   7.480 -0.3471  3.0163  0.2564
   39MOL   H27026186   0.912   0.848   7.302 -0.9224 -0.4421  1.4280
   39MOL   H27126187   0.993   0.761   7.424 -2.9408  0.7783  0.7243
   39MOL   H27226188   1.213   0.847   7.279  1.2927 -0.6614 -3.0683
   39MOL   H27326189   1.080   0.838   7.151  1.6426  0.1267 -1.3283
   39MOL   N27426190   1.123   0.594   7.114  0.0348  0.1798  0.3325
   39MOL   C27526191   1.149   0.458   7.075 -0.2457 -0.9594  0.8322
   39MOL   C27626192   1.071   0.407   6.950 -0.3711  0.1446  0.3655
   39MOL   C27726193   1.105   0.266   6.903  0.0342  0.3835  0.6536
   39MOL   C27826194   1.011   0.204   6.793 -0.7558  0.2326 -0.1471
   39MOL   C27926195   1.034   0.243   6.649 -0.3075 -0.0045  0.5405
   39MOL   C28026196   0.959   0.376   6.597  0.3657  0.3910  0.3052
   39MOL   C28126197   0.806   0.350   6.606 -0.1177 -0.6889 -0.7537
   39MOL   C28226198   0.728   0.417   6.725 -0.0212 -0.3651  0.3388
   39MOL   C28326199   0.735   0.571   6.714  0.0076  0.4639 -0.0941
   39MOL   C28426200   0.664   0.639   6.834  0.0822 -0.3894  0.4659
   39MOL   C28526201   0.664   0.792   6.839  0.2999 -0.3183  0.1893
   39MOL   O28626202   0.691   0.860   6.742 -0.5079 -0.2466  0.1091
   39MOL   H28726203   1.136   0.650   7.032 -0.4905  0.3845  0.3851
   39MOL   H28826204   1.149   0.387   7.158  0.7897 -2.0672 -0.0895
   39MOL   H28926205   1.256   0.460   7.052 -0.7021  0.8527 -1.4176
   39MOL   H29026206   1.090   0.466   6.861 -1.9794  1.7034  1.0482
   39MOL   H29126207   0.965   0.399   6.975 -0.0417  0.7314  1.9880
   39MOL   H29226208   1.212   0.256   6.886  0.0511  1.6303 -0.0008
   39MOL   H29326209   1.097   0.199   6.988  2.4909 -2.7165 -1.4377
   39MOL   H29426210   0.908   0.213   6.829  0.3174  0.8874  2.8748
   39MOL   H29526211   1.024   0.097   6.807  0.4732  0.0878 -2.2105
   39MOL   H29626212   1.002   0.157   6.590 -2.1015  0.2244  1.1422
   39MOL   H29726213   1.141   0.260   6.637 -0.1789 -0.9536  0.2926
   39MOL   H29826214   0.990   0.463   6.656 -0.7852  0.7852  0.3490
   39MOL   H29926215   0.985   0.406   6.496  0.7275  1.4928  0.7127
   39MOL   H30026216   0.779   0.245   6.609 -2.9362  0.0112  0.6770
   39MOL   H30126217   0.750   0.400   6.527 -0.1476 -0.7695 -0.7842
   39MOL   H30226218   0.624   0.389   6.707 -0.0855  0.1612 -0.1056
   39MOL   H30326219   0.756   0.381   6.824 -0.9256  1.5132  1.2883
   39MOL   H30426220   0.686   0.608   6.623 -1.5748 -1.4755 -0.0693
   39MOL   H30526221   0.833   0.618   6.708  0.3313 -0.4619 -3.1016
   39MOL   H30626222   0.689   0.606   6.935 -0.4748  0.5447  0.9039
   39MOL   H30726223   0.561   0.605   6.823 -1.3585  4.0785 -0.9154
   39MOL   N30826224   0.625   0.834   6.960 -0.1141 -0.5079 -0.0438
   39MOL   C30926225   0.610   0.972   7.000  0.0412  0.5260 -0.5848
   39MOL   C31026226   0.460   1.020   7.014 -0.5676 -1.5600  0.1250
   39MOL   C31126227   0.441   1.167   7.033 -0.1678 -0.0192  0.8509
   39MOL   C31226228   0.290   1.191   7.061  0.0913  0.2163  0.1473
   39MOL   C31326229   0.244   1.342   7.056 -0.2136  0.4125  0.1513
   39MOL   C31426230   0.099   1.363   7.115 -0.4872  0.3683 -0.0001
   39MOL   C31526231   0.074   1.516   7.122  0.4861  0.0031 -0.1684
   39MOL   C31626232   7.629   1.542   7.120  0.2612 -0.9959 -0.0761
   39MOL   C31726233   7.585   1.684   7.168  0.3920 -0.1121 -0.0452
   39MOL   C31826234   7.439   1.723   7.139  0.8403  1.1080  0.0172
   39MOL   C31926235   7.415   1.735   6.990  0.8002 -0.5312  0.7766
   39MOL   O32026236   7.470   1.826   6.934  0.1814  0.6119 -0.5778
   39MOL   H32126237   0.622   0.767   7.036 -1.9190 -0.3994 -0.0091
   39MOL   H32226238   0.659   1.044   6.934  1.8881 -0.8838 -0.7943
   39MOL   H32326239   0.656   0.984   7.097  0.0810 -3.4108 -0.0397
   39MOL   H32426240   0.406   0.959   7.087  1.6324 -2.5552  0.9620
   39MOL   H32526241   0.416   1.009   6.915 -1.6321 -0.3005  0.4494
   39MOL   H32626242   0.501   1.220   7.106 -1.1529  1.4621  0.5907
   39MOL   H32726243   0.467   1.219   6.940  1.0134 -1.4928  0.3323
   39MOL   H32826244   0.257   1.144   7.153  1.0412 -1.0800 -0.1635
   39MOL   H32926245   0.231   1.140   6.985 -0.6356 -0.3957  1.1200
   39MOL   H33026246   0.241   1.384   6.956  0.6432 -1.2412 -0.5835
   39MOL   H33126247   0.314   1.408   7.108  0.8654  0.5604 -1.4662
   39MOL   H33226248   0.031   1.321   7.042  0.3291 -0.0703 -0.5144
   39MOL   H33326249   0.093   1.311   7.211  1.1244  0.5924  0.2362
   39MOL   H33426250   0.130   1.567   7.044  0.7213  0.2317  0.1465
   39MOL   H33526251   0.130   1.553   7.208 -0.7429 -0.5380  0.8754
   39MOL   H33626252   7.606   1.530   7.014  1.9277 -2.1145 -0.3452
   39MOL   H33726253   7.582   1.463   7.179  1.4951  0.4266  2.9288
   39MOL   H33826254   7.650   1.759   7.122 -0.0805 -0.5230 -1.3849
   39MOL   H33926255   7.595   1.681   7.277  2.1844  0.6379 -0.1703
   39MOL   H34026256   7.405   1.814   7.189 -0.2614 -0.9508  3.1938
   39MOL   H34126257   7.368   1.646   7.170  2.2620 -0.3346 -0.2547
   39MOL   N34226258   7.336   1.648   6.918  0.2161  0.5015  0.3496
   39MOL   C34326259   7.283   1.674   6.785 -0.5499  0.7713 -0.9962
   39MOL   C34426260   7.368   1.598   6.678  0.6257 -0.4210 -0.4986
   39MOL   C34526261   7.328   1.629   6.526  0.0842  0.2369 -0.5110
   39MOL   C34626262   7.417   1.549   6.430 -0.2594  0.7479 -0.3272
   39MOL   C34726263   7.418   1.596   6.291 -0.6785  0.5860  0.2292
   39MOL   C34826264   7.456   1.478   6.202  0.1952  0.5201 -0.2932
   39MOL   C34926265   7.446   1.510   6.051  0.0937 -0.1318 -0.2017
   39MOL   C35026266   7.306   1.528   6.001 -0.1192 -0.0928 -0.2171
   39MOL   C35126267   7.297   1.526   5.846  0.2200 -0.5493 -0.1242
   39MOL   C35226268   7.167   1.468   5.787  0.0500 -0.2217 -0.0345
   39MOL   C35326269   7.170   1.321   5.774 -0.7134 -0.1726  0.4545
   39MOL   O35426270   7.240   1.258   5.844 -0.5956 -0.6006 -0.2475
   39MOL   H35526271   7.296   1.564   6.956  0.2906  0.1493 -0.3360
   39MOL   H35626272   7.176   1.655   6.781 -1.0379  3.2401 -0.7427
   39MOL   H35726273   7.301   1.781   6.771 -2.1921  0.8540 -2.7442
   39MOL   H35826274   7.356   1.491   6.696  0.0321 -0.1958  0.4730
   39MOL   H35926275   7.475   1.615   6.680  0.5540 -0.1217  0.9236
   39MOL   H36026276   7.225   1.606   6.499 -0.5126  2.0918  0.0967
   39MOL   H36126277   7.327   1.736   6.509 -1.8933  0.0918 -1.4915
   39MOL   H36226278   7.390   1.443   6.436  2.0889  0.1948  1.1842
   39MOL   H36326279   7.518   1.553   6.469 -0.5406 -0.0938  0.5045
   39MOL   H36426280   7.489   1.673   6.261 -1.7046  0.9363 -1.3391
   39MOL   H36526281   7.320   1.636   6.264 -0.9859  1.0795  2.0277
   39MOL   H36626282   7.559   1.456   6.230 -0.2102 -1.2546 -0.1163
   39MOL   H36726283   7.401   1.386   6.220 -0.6161  1.0601  0.0361
   39MOL   H36826284   7.504   1.446   5.985  0.8589 -0.8427  1.1451
   39MOL   H36926285   7.502   1.601   6.032 -0.7881  0.8539  1.7714
   39MOL   H37026286   7.239   1.453   6.045 -1.1716  0.9052 -0.1011
   39MOL   H37126287   7.268   1.616   6.053 -0.3453  0.8292 -1.9132
   39MOL   H37226288   7.391   1.487   5.808  0.5313  0.7447 -0.7273
   39MOL   H37326289   7.301   1.630   5.811 -1.4327 -0.8792 -1.3698
   39MOL   H37426290   7.166   1.492   5.680 -0.4389 -0.4425 -0.0796
   39MOL   H37526291   7.076   1.511   5.828  0.6260  0.3941  0.6089
   39MOL   N37626292   7.095   1.267   5.680  0.5104 -0.3778 -0.2063
   39MOL   C37726293   7.065   1.122   5.666 -0.2598  0.1631  0.4867
   39MOL   C37826294   7.183   1.051   5.599  0.1726 -0.1962 -0.4600
   39MOL   C37926295   7.146   0.903   5.582 -0.5348 -0.3057  0.2591
   39MOL   C38026296   7.251   0.820   5.508 -0.2892 -0.2962 -0.4451
   39MOL   C38126297   7.207   0.677   5.469 -0.1075  0.7787 -1.1157
   39MOL   C38226298   7.314   0.591   5.416 -0.6594  0.9736 -0.5890
   39MOL   C38326299   7.270   0.453   5.353 -0.3832 -0.7078  0.8032
   39MOL   C38426300   7.373   0.387   5.262  0.0819 -0.0939 -0.3883
   39MOL   C38526301   7.369   0.437   5.118  0.5782 -0.0882 -0.5608
   39MOL   C38626302   7.252   0.374   5.026  0.3698 -0.4598  0.2772
   39MOL   C38726303   7.278   0.415   4.882  0.3214 -0.1584  0.5024
   39MOL   O38826304   7.271   0.534   4.848  0.0531 -0.0891 -0.1721
   39MOL   H38926305   7.039   1.329   5.624  3.1987  2.9751  0.6560
   39MOL   H39026306   7.046   1.080   5.765 -0.3717 -0.0661  0.3692
   39MOL   H39126307   6.978   1.108   5.602 -1.0252  0.4612  1.4518
   39MOL   H39226308   7.267   1.063   5.668 -0.4340 -0.2754  0.2959
   39MOL   H39326309   7.221   1.102   5.510  2.0688  0.3865  0.6542
   39MOL   H39426310   7.135   0.854   5.679  1.2135  0.4829  0.8780
   39MOL   H39526311   7.050   0.904   5.531 -1.1112 -1.2060  1.3122
   39MOL   H39626312   7.342   0.817   5.567  0.4181  2.1195 -1.3500
   39MOL   H39726313   7.281   0.868   5.415 -0.4388  0.6913  0.0049
   39MOL   H39826314   7.118   0.680   5.407 -1.0307  3.3765  0.2653
   39MOL   H39926315   7.171   0.633   5.562  0.6762 -0.6553 -1.4715
   39MOL   H40026316   7.358   0.652   5.337  1.8035 -0.9119 -0.7356
   39MOL   H40126317   7.393   0.561   5.485 -0.2815  0.8691 -1.0605
   39MOL   H40226318   7.177   0.458   5.298  0.6191  0.8265 -0.7966
   39MOL   H40326319   7.272   0.390   5.442  2.0044 -1.9691 -0.0880
   39MOL   H40426320   7.476   0.402   5.297 -0.0431 -0.7618  0.2798
   39MOL   H40526321   7.354   0.280   5.263  0.3663 -0.1508 -0.6763
   39MOL   H40626322   7.466   0.399   5.084  0.4918  0.6442 -1.6271
   39MOL   H40726323   7.374   0.546   5.114  1.6167 -0.1779 -2.8135
   39MOL   H40826324   7.152   0.414   5.041  0.3069  0.5669 -2.5533
   39MOL   H40926325   7.257   0.265   5.032  1.3781 -0.4950 -0.9938
   39MOL   N41026326   7.314   0.321   4.795  0.5205  0.4856 -0.5989
   39MOL   C41126327   7.330   0.342   4.652 -0.0271 -0.2460 -1.7705
   39MOL   C41226328   7.480   0.350   4.606  0.5015 -0.5108 -0.1433
   39MOL   C41326329   7.509   0.407   4.465 -0.5871 -0.1999  0.0111
   39MOL   C41426330   7.656   0.402   4.442 -0.7983 -0.2054  0.6652
   39MOL   C41526331   7.691   0.434   4.293 -0.1881 -0.3685 -0.3450
   39MOL   C41626332   0.133   0.431   4.278  0.3868 -0.2329  0.1167
   39MOL   C41726333   0.174   0.471   4.141  0.2749 -0.6832  0.8318
   39MOL   C41826334   0.326   0.471   4.130  0.4519 -0.7095  0.0059
   39MOL   C41926335   0.375   0.520   3.994  0.1731  0.2817 -0.4565
   39MOL   C42026336   0.355   0.675   3.984  0.1868 -0.3315 -0.4005
   39MOL   C42126337   0.451   0.757   4.071 -0.0884 -0.2897  0.3722
   39MOL   O42226338   0.572   0.749   4.051  0.1516  0.1515 -0.1411
   39MOL   H42326339   7.335   0.231   4.838  0.6038  0.5032 -0.6035
   39MOL   H42426340   7.283   0.257   4.603 -0.8645 -0.6013 -0.3836
   39MOL   H42526341   7.272   0.423   4.606 -0.1116 -0.1234 -1.4529
   39MOL   H42626342   7.524   0.250   4.617 -2.3777 -1.7405  0.6860
   39MOL   H42726343   7.537   0.406   4.680  2.1419 -1.7158 -0.4526
   39MOL   H42826344   7.467   0.339   4.391 -0.1073 -2.9526  2.2006
   39MOL   H42926345   7.471   0.509   4.453 -0.1231  0.0589  0.7164
   39MOL   H43026346   7.690   0.301   4.461 -3.0218 -0.9749  0.7294
   39MOL   H43126347   7.708   0.460   4.519 -1.3568 -0.4783  1.2563
   39MOL   H43226348   7.660   0.537   4.273 -0.6642 -0.5349 -0.4559
   39MOL   H43326349   7.646   0.361   4.227 -1.2162 -2.6657  2.7676
   39MOL   H43426350   0.179   0.492   4.356  0.2151 -1.3183  1.0699
   39MOL   H43526351   0.171   0.331   4.300 -0.2167 -0.4308  0.2539
   39MOL   H43626352   0.130   0.566   4.112 -0.8571 -1.8653 -1.4796
   39MOL   H43726353   0.128   0.402   4.070 -1.7657 -0.2252  1.6899
   39MOL   H43826354   0.359   0.540   4.208  3.5956 -1.3762 -0.6546
   39MOL   H43926355   0.362   0.373   4.162  1.0668 -0.2626  0.6952
   39MOL   H44026356   0.320   0.475   3.911 -1.3653  2.7545 -0.8369
   39MOL   H44126357   0.479   0.489   3.985  0.0275 -0.0970 -0.8707
   39MOL   H44226358   0.254   0.713   4.000  1.4410  3.0987 -0.0228
   39MOL   H44326359   0.380   0.708   3.883 -2.1899 -0.5647 -1.1020
   39MOL   N44426360   0.404   0.833   4.168 -0.0246 -0.3109  0.7234
   39MOL   C44526361   0.471   0.936   4.250 -0.6912  0.1927  0.9737
   39MOL   C44626362   0.507   1.063   4.177 -0.4266 -0.3008  0.0056
   39MOL   C44726363   0.391   1.161   4.150 -0.2127 -0.1960 -1.0685
   39MOL   C44826364   0.311   1.134   4.026  0.3518  0.1152  0.4126
   39MOL   C44926365   0.192   1.231   4.008 -0.5461 -0.2430  0.1328
   39MOL   C45026366   0.084   1.206   4.107 -0.6507 -0.0533 -0.7029
   39MOL   C45126367   7.667   1.262   4.062 -0.0362 -0.2024  0.4627
   39MOL   C45226368   7.544   1.199   4.126 -0.1460  0.4920 -0.1320
   39MOL   C45326369   7.420   1.289   4.121  0.6346  0.9387 -0.0007
   39MOL   C45426370   7.309   1.221   4.198 -0.0948  0.6817 -0.0855
   39MOL   C45526371   7.169   1.260   4.150  0.5047 -0.5304  0.7758
   39MOL   O45626372   7.137   1.234   4.033 -0.2582  0.6648 -0.1107
   39MOL   H45726373   0.304   0.840   4.166 -0.0117 -0.1291 -1.5448
   39MOL   H45826374   0.403   0.957   4.333 -1.3806 -1.1039  0.7575
   39MOL   H45926375   0.566   0.889   4.275 -1.4614 -0.9361  1.8728
   39MOL   H46026376   0.552   1.045   4.079 -1.2896  0.0496 -0.4647
   39MOL   H46126377   0.587   1.121   4.224  0.2396  0.0742 -1.5491
   39MOL   H46226378   0.324   1.158   4.237 -0.8814  0.4755 -1.5497
   39MOL   H46326379   0.439   1.259   4.148 -2.2331  0.8837  0.6447
   39MOL   H46426380   0.291   1.027   4.013 -3.0458  0.7067  0.2265
   39MOL   H46526381   0.375   1.150   3.939 -0.5374  0.7512 -0.1312
   39MOL   H46626382   0.159   1.221   3.905  1.6374 -0.8227 -0.5438
   39MOL   H46726383   0.217   1.337   4.016 -0.4961 -0.2951  0.7267
   39MOL   H46826384   0.066   1.100   4.126  0.9062 -0.1444  0.4707
   39MOL   H46926385   0.107   1.266   4.196  0.5681 -0.3644 -0.7952
   39MOL   H47026386   7.657   1.243   3.955 -2.9018 -1.0564  0.8257
   39MOL   H47126387   7.656   1.370   4.073  5.0518  0.5035 -0.3614
   39MOL   H47226388   7.524   1.107   4.071 -0.7365  0.0592  0.7924
   39MOL   H47326389   7.573   1.180   4.229  0.3151  1.6859 -0.0341
   39MOL   H47426390   7.395   1.316   4.018  1.3549 -0.1809 -0.4854
   39MOL   H47526391   7.451   1.385   4.162  1.4218  1.7130 -2.2992
   39MOL   H47626392   7.323   1.254   4.301  2.1598  0.5190 -0.3275
   39MOL   H47726393   7.314   1.112   4.200 -0.0464  0.7005  1.3163
   39MOL   N47826394   7.081   1.306   4.241 -0.7953  0.2269  0.3252
   39MOL   C47926395   6.943   1.332   4.212  0.1890 -0.0612 -0.0676
   39MOL   C48026396   6.884   1.434   4.305  0.2194  0.5585  0.7021
   39MOL   C48126397   6.752   1.496   4.236  0.5108 -0.2818  0.0510
   39MOL   C48226398   6.635   1.395   4.198 -0.0730  0.7150 -0.0428
   39MOL   C48326399   6.547   1.350   4.315  0.7081  0.4283 -0.8635
   39MOL   C48426400   6.578   1.213   4.388 -0.5934 -0.2890  0.3374
   39MOL   C48526401   6.487   1.179   4.505 -0.3164 -0.1723  0.1545
   39MOL   C48626402   6.502   1.032   4.550 -0.6701  0.0746 -0.2511
   39MOL   C48726403   6.417   0.999   4.676  0.3010 -0.4300  0.2268
   39MOL   C48826404   6.421   0.845   4.708  0.1650 -0.1620 -0.2081
   39MOL   C48926405   6.528   0.801   4.810  0.2984  0.2872  0.2855
   39MOL   O49026406   6.504   0.827   4.934 -0.0450 -0.0178 -0.1339
   39MOL   H49126407   7.120   1.314   4.334 -0.6929 -5.5596  1.0146
   39MOL   H49226408   6.940   1.370   4.110  0.4522  2.1310  0.7282
   39MOL   H49326409   6.885   1.241   4.225  1.3380 -0.6898  0.7623
   39MOL   H49426410   6.963   1.505   4.329 -0.0840  0.9834  0.4552
   39MOL   H49526411   6.871   1.389   4.404 -1.2859 -0.0605  0.2392
   39MOL   H49626412   6.716   1.562   4.315  2.2603 -1.3768  1.8267
   39MOL   H49726413   6.774   1.554   4.147 -0.1090 -1.2523 -0.7561
   39MOL   H49826414   6.659   1.316   4.127  1.2158  2.4796 -1.5909
   39MOL   H49926415   6.575   1.469   4.145 -0.1566 -0.3169 -1.4018
   39MOL   H50026416   6.442   1.352   4.285  0.6149  0.1693 -0.5604
   39MOL   H50126417   6.541   1.424   4.395 -1.6353 -3.0045  2.2680
   39MOL   H50226418   6.558   1.130   4.321 -0.0004 -0.0232 -0.1821
   39MOL   H50326419   6.684   1.225   4.408 -0.6731  0.1905  0.4920
   39MOL   H50426420   6.382   1.185   4.475 -1.2626  0.1270  3.3104
   39MOL   H50526421   6.511   1.249   4.586  1.3757 -0.9873  0.3685
   39MOL   H50626422   6.461   0.967   4.473  2.0337  0.5234 -2.1416
   39MOL   H50726423   6.601   0.992   4.572 -0.7256 -0.3339 -0.7480
   39MOL   H50826424   6.316   1.039   4.675  0.0687 -0.9410  1.5923
   39MOL   H50926425   6.452   1.056   4.762 -1.0769  0.1544  0.4178
   39MOL   H51026426   6.432   0.779   4.621  1.2842 -1.7006  1.0701
   39MOL   H51126427   6.326   0.829   4.757  0.9851 -0.2203  1.3934
   39MOL   N51226428   6.630   0.736   4.766  0.6460  0.2732 -0.0704
   39MOL   C51326429   6.743   0.687   4.841  0.0892 -0.4177  0.8399
   39MOL   C51426430   6.859   0.789   4.852 -0.4180  0.4604 -0.0136
   39MOL   C51526431   6.948   0.729   4.962  0.2660 -0.5340  0.2620
   39MOL   C51626432   7.087   0.800   4.983  0.2126  0.2187  0.4439
   39MOL   C51726433   7.086   0.883   5.116 -0.0287 -0.0934  0.3501
   39MOL   C51826434   7.000   1.006   5.115  0.1677  0.6358  0.9586
   39MOL   C51926435   6.999   1.071   5.251  0.8869  0.6804 -0.2142
   39MOL   C52026436   6.914   1.200   5.236 -0.9399 -0.1607  0.4540
   39MOL   C52126437   6.923   1.300   5.358  0.0953 -0.0189  0.2999
   39MOL   C52226438   6.836   1.418   5.334  0.1834 -0.0692  0.0013
   39MOL   C52326439   6.845   1.527   5.450  0.2311 -0.3405  0.0757
   39MOL   O52426440   6.945   1.527   5.525 -0.1310  0.2474  0.6667
   39MOL   H52526441   6.626   0.705   4.670 -0.5878  0.9097 -0.2375
   39MOL   H52626442   6.711   0.658   4.941  0.0377 -0.5023  0.8001
   39MOL   H52726443   6.770   0.593   4.792  2.1982 -0.4046  1.9149
   39MOL   H52826444   6.817   0.881   4.891 -1.3396 -0.6928  1.8079
   39MOL   H52926445   6.913   0.798   4.758 -0.5972 -0.7668 -0.2454
   39MOL   H53026446   6.898   0.716   5.058  0.2718 -1.6930  0.1186
   39MOL   H53126447   6.978   0.631   4.923  2.1680 -0.5367  1.6463
   39MOL   H53226448   7.125   0.841   4.889 -1.3204 -0.8150 -0.6383
   39MOL   H53326449   7.160   0.722   5.005  0.1029 -0.3584 -1.1779
   39MOL   H53426450   7.186   0.917   5.143 -0.3658  2.0395 -0.9516
   39MOL   H53526451   7.066   0.821   5.204  1.8388 -0.3907  0.5832
   39MOL   H53626452   7.040   1.078   5.043 -0.7254 -0.6395 -0.8665
   39MOL   H53726453   6.897   0.988   5.083  0.2885  1.6881 -0.0612
   39MOL   H53826454   7.095   1.118   5.273 -0.3635  3.4258 -0.4215
   39MOL   H53926455   6.964   1.005   5.331  1.1033 -0.3360 -0.9645
   39MOL   H54026456   6.941   1.243   5.139 -0.0680 -1.3825  0.1458
   39MOL   H54126457   6.811   1.165   5.230 -0.6900 -0.6692 -1.1554
   39MOL   H54226458   7.028   1.329   5.355 -0.3782  1.6940 -0.3150
   39MOL   H54326459   6.899   1.251   5.453  0.5864  2.0618  1.5169
   39MOL   H54426460   6.734   1.383   5.324  0.5874 -0.7714 -2.1360
   39MOL   H54526461   6.863   1.453   5.234  1.1928 -0.5700  0.0870
   39MOL   N54626462   6.741   1.615   5.457  0.1500 -0.8948 -0.5587
   39MOL   C54726463   6.751   1.725   5.555  0.4174 -0.9970 -0.1451
   39MOL   C54826464   6.681   1.680   5.686  0.1201  0.0905  0.1342
   39MOL   C54926465   6.663   1.788   5.791  0.4291 -0.0090  0.3468
   39MOL   C55026466   6.791   1.840   5.852 -0.1792 -0.2922  0.1113
   39MOL   C55126467   6.898   1.735   5.888  1.1523 -0.0704  0.0389
   39MOL   C55226468   7.003   1.797   5.971  0.1147  0.3225 -0.2213
   39MOL   C55326469   7.110   1.877   5.899 -0.6378  0.7375 -0.9592
   39MOL   C55426470   7.216   1.925   5.999 -0.1810 -0.0810 -0.2164
   39MOL   C55526471   7.299   2.039   5.940 -0.2060  0.4681 -0.8329
   39MOL   C55626472   7.220   2.180   5.921 -0.1740 -0.2818  0.3476
   39MOL   C55726473   7.320   2.296   5.892  0.3822  0.7197 -0.3413
   39MOL   O55826474   7.442   2.274   5.879  0.0671  0.2357 -0.0563
   39MOL   H55926475   6.660   1.618   5.397 -1.0197  2.3055  1.0486
   39MOL   H56026476   6.846   1.773   5.576 -0.7637  0.4024  2.1911
   39MOL   H56126477   6.689   1.798   5.504  0.3389  1.1981  2.9659
   39MOL   H56226478   6.743   1.599   5.724 -0.2589 -0.1471  0.2439
   39MOL   H56326479   6.583   1.637   5.668 -0.0025  1.1411 -1.9852
   39MOL   H56426480   6.619   1.880   5.752  0.6353  0.3301  0.9004
   39MOL   H56526481   6.599   1.734   5.861 -0.2510 -0.7612 -0.8466
   39MOL   H56626482   6.757   1.914   5.924 -0.5022 -1.8110  1.5377
   39MOL   H56726483   6.834   1.918   5.788 -1.1628 -0.6651 -1.0200
   39MOL   H56826484   6.935   1.698   5.792  0.2025 -1.6266  0.2521
   39MOL   H56926485   6.839   1.653   5.930 -1.2603  1.4117 -0.3623
   39MOL   H57026486   6.955   1.867   6.040 -0.6258 -0.4049  0.0088
   39MOL   H57126487   7.054   1.724   6.034  1.6743  1.2852 -0.3545
   39MOL   H57226488   7.078   1.962   5.838  0.7947  1.5459 -0.6044
   39MOL   H57326489   7.155   1.807   5.829  0.8996 -0.6024  1.2839
   39MOL   H57426490   7.164   1.952   6.091 -0.4677 -2.1990  0.2733
   39MOL   H57526491   7.282   1.844   6.031  0.9179  0.9382  0.1509
   39MOL   H57626492   7.335   2.008   5.842 -1.1427  0.3064 -1.1306
   39MOL   H57726493   7.392   2.059   5.992 -0.6177  0.7472 -0.1936
   39MOL   H57826494   7.168   2.202   6.015  0.8240 -1.4721  1.2023
   39MOL   H57926495   7.148   2.168   5.840  2.5503 -3.3735 -1.7418
   39MOL   N58026496   7.263   2.415   5.878 -0.1737  0.2282  0.3258
   39MOL   C58126497   7.339   2.531   5.844  0.2942 -0.5903 -1.0877
   39MOL   C58226498   7.244   2.652   5.821  0.6370  0.1746  0.3807
   39MOL   C58326499   7.328   2.780   5.807 -0.0601  0.0500 -0.0580
   39MOL   C58426500   7.249   2.915   5.776 -0.2257  0.4191  1.0744
   39MOL   C58526501   7.332   3.040   5.775 -0.3923  0.6563  0.5866
   39MOL   C58626502   7.483   3.021   5.730  0.5062 -0.1165 -0.9553
   39MOL   C58726503   7.505   3.032   5.575  0.0477 -0.2070  0.2608
   39MOL   C58826504   7.659   3.021   5.539 -0.0069 -0.2375 -0.5246
   39MOL   C58926505   7.692   3.025   5.386  0.2758 -0.0688 -0.2668
   39MOL   C59026506   0.124   2.996   5.357 -0.0111  0.3781  0.2567
   39MOL   C59126507   0.220   3.087   5.433  0.2387 -0.0039 -0.2095
   39MOL   O59226508   0.249   3.189   5.379 -1.0677  0.1953  0.1132
   39MOL   H59326509   7.163   2.413   5.891 -0.5334 -0.1301 -2.1428
   39MOL   H59426510   7.411   2.549   5.923  0.4434  2.6770 -1.9185
   39MOL   H59526511   7.391   2.509   5.750  0.9770  0.2913 -0.9170
   39MOL   H59626512   7.161   2.667   5.890  1.0515  0.0423  0.9080
   39MOL   H59726513   7.195   2.630   5.726 -1.3031  2.0198  0.9049
   39MOL   H59826514   7.391   2.784   5.896 -1.2297 -0.1563  0.7913
   39MOL   H59926515   7.397   2.770   5.724  1.3492  0.6619  1.0158
   39MOL   H60026516   7.168   2.935   5.846 -1.7514 -0.8249 -0.3195
   39MOL   H60126517   7.194   2.911   5.683  3.6886 -0.2041 -1.3295
   39MOL   H60226518   7.345   3.070   5.879  1.1293  0.0602  0.5764
   39MOL   H60326519   7.275   3.115   5.719  0.3860  0.5338 -0.3872
   39MOL   H60426520   7.542   3.101   5.774 -2.9380  2.2135 -0.4021
   39MOL   H60526521   7.532   2.931   5.768  0.3601  0.9320  1.7759
   39MOL   H60626522   7.453   3.117   5.531 -2.9173 -1.8797  0.3590
   39MOL   H60726523   7.458   2.944   5.529  0.5079 -1.1749  1.6147
   39MOL   H60826524   7.715   3.101   5.587  0.0311 -0.7467  0.2844
   39MOL   H60926525   7.699   2.935   5.594  0.6815 -0.4773 -1.3886
   39MOL   H61026526   7.659   3.126   5.359  0.0692  0.3473  1.4987
   39MOL   H61126527   7.629   2.951   5.338  0.7096 -0.9939  0.5717
   39MOL   H61226528   0.136   3.013   5.250  0.6176  1.2628  0.4640
   39MOL   H61326529   0.154   2.892   5.370 -1.8421 -0.3713 -1.1582
   39MOL   N61426530   0.267   3.064   5.557  0.0706  0.3487  0.1849
   39MOL   C61526531   0.378   3.149   5.610  0.2179 -0.2576 -0.5130
   39MOL   C61626532   0.407   3.115   5.756 -0.5411  0.2146  0.1697
   39MOL   C61726533   0.504   2.996   5.777  0.4147 -0.5070  0.1801
   39MOL   C61826534   0.549   2.977   5.921 -0.5137  0.4197 -0.5081
   39MOL   C61926535   0.439   2.927   6.020 -0.1449  0.2308  0.8240
   39MOL   C62026536   0.368   2.788   6.008  0.4992 -0.5067 -0.4604
   39MOL   C62126537   0.302   2.757   6.138 -0.5974  0.6260  0.6939
   39MOL   C62226538   0.232   2.616   6.132  0.3339 -0.5838 -0.4642
   39MOL   C62326539   0.086   2.611   6.061  0.7161 -0.0852 -0.3361
   39MOL   C62426540   0.020   2.469   6.063 -0.7287 -0.2327  0.1830
   39MOL   C62526541   0.069   2.380   5.946 -0.4039  0.4665 -0.2034
   39MOL   O62626542   0.158   2.411   5.873 -0.0660  0.7824  0.1784
   39MOL   H62726543   0.272   2.966   5.582 -1.3478 -0.0546 -1.0450
   39MOL   H62826544   0.348   3.253   5.594  0.8638  0.1368  0.7934
   39MOL   H62926545   0.462   3.121   5.546 -0.8377 -1.3483 -1.4441
   39MOL   H63026546   0.327   3.091   5.826  0.9417 -1.0067  1.4865
   39MOL   H63126547   0.444   3.210   5.797  0.4015 -0.4104  0.7900
   39MOL   H63226548   0.472   2.902   5.732  1.0609 -0.3320 -0.6569
   39MOL   H63326549   0.596   3.022   5.725  0.2747 -1.2461 -0.4451
   39MOL   H63426550   0.595   3.068   5.958 -0.2314 -0.4288  1.2716
   39MOL   H63526551   0.633   2.909   5.911 -1.2472 -0.5948  0.0798
   39MOL   H63626552   0.360   3.001   6.038 -0.3751  0.1277  0.2573
   39MOL   H63726553   0.492   2.920   6.115  1.1910 -0.7847  0.0214
   39MOL   H63826554   0.292   2.793   5.931  0.6656 -0.6065 -0.6312
   39MOL   H63926555   0.446   2.714   5.987  1.3391  0.3646 -0.4962
   39MOL   H64026556   0.226   2.831   6.163 -2.2346 -0.4331 -1.0156
   39MOL   H64126557   0.372   2.744   6.221  0.5913 -0.0994 -0.4074
   39MOL   H64226558   0.294   2.542   6.080  1.6771  0.0580  0.1872
   39MOL   H64326559   0.224   2.577   6.234  2.9474  0.4014  0.1526
   39MOL   H64426560   0.074   2.654   5.962  2.1113 -0.1995 -0.5674
   39MOL   H64526561   0.019   2.673   6.121  0.2281  0.0298 -1.0005
   39MOL   H64626562   7.629   2.479   6.045 -1.1888 -3.6290  0.8112
   39MOL   H64726563   0.039   2.420   6.158 -1.8642 -1.4674 -0.2197
   39MOL   N64826564   0.008   2.263   5.922  0.1365  0.3949  0.4075
   39MOL   C64926565   0.054   2.162   5.823  0.1769  0.0156 -0.3322
   39MOL   C65026566   7.715   2.026   5.860 -0.2281 -0.2208  0.2942
   39MOL   C65126567   0.050   1.966   5.995  0.3488 -0.6695  0.3436
   39MOL   C65226568   0.079   1.814   5.991  0.0180  0.7358  0.8526
   39MOL   C65326569   0.158   1.757   6.107  0.0400 -0.6431 -0.1291
   39MOL   C65426570   0.092   1.761   6.245 -0.8888  0.3638  0.0371
   39MOL   C65526571   0.183   1.718   6.364 -0.0194 -0.3014 -0.3079
   39MOL   C65626572   0.132   1.749   6.502  0.0779 -0.2714  0.1261
   39MOL   C65726573   0.209   1.669   6.604  0.1877  0.2711 -0.3732
   39MOL   C65826574   0.170   1.705   6.749 -0.3658  0.1812  0.3721
   39MOL   C65926575   0.037   1.645   6.788 -0.1672  1.1189  0.2713
   39MOL   O66026576   7.713   1.534   6.755 -0.7964  0.0749  0.1744
   39MOL   H66126577   7.643   2.234   5.976  1.0591 -0.5763  1.2826
   39MOL   H66226578   0.162   2.153   5.831  0.0751 -0.8441  0.1737
   39MOL   H66326579   0.020   2.195   5.725 -3.8625 -0.7744  0.7039
   39MOL   H66426580   0.020   1.955   5.780  2.4571  0.1942  0.5975
   39MOL   H66526581   7.606   2.034   5.869 -0.4151 -0.4469 -1.4510
   39MOL   H66626582   0.149   2.006   6.017 -0.2284  0.7056  0.4653
   39MOL   H66726583   7.713   2.009   6.080 -0.5839  0.3759 -0.7471
   39MOL   H66826584   0.135   1.783   5.904 -0.7730  3.2277 -0.6012
   39MOL   H66926585   7.700   1.760   5.995 -0.2427  1.2322  1.5263
   39MOL   H67026586   0.252   1.813   6.102 -1.6576  2.5570  2.3021
   39MOL   H67126587   0.183   1.654   6.081  1.7911  0.0380 -1.2360
   39MOL   H67226588   0.050   1.861   6.255 -0.2412  0.6464 -0.0536
   39MOL   H67326589   0.012   1.687   6.247 -0.2148 -0.5691 -3.4078
   39MOL   H67426590   0.287   1.749   6.350  0.5529 -2.3645 -0.8351
   39MOL   H67526591   0.183   1.609   6.365 -1.1818 -0.3117 -0.4741
   39MOL   H67626592   0.132   1.857   6.513 -0.2925 -0.1609 -0.9728
   39MOL   H67726593   0.026   1.725   6.504 -0.5169  2.2662  2.1702
   39MOL   H67826594   0.316   1.685   6.590  0.1409  0.9028 -0.0238
   39MOL   H67926595   0.197   1.562   6.588  1.5490 -0.1145  1.0001
   39MOL   H68026596   0.164   1.814   6.748 -0.9792  0.1455 -0.8607
   39MOL   H68126597   0.252   1.689   6.819 -0.2008 -2.6081 -0.3797
   39MOL   H68226598   7.688   1.714   6.842  0.3710  1.3261  0.6633
   40MOL     N126599   0.170   5.290   4.171  0.1318  0.3703  0.8879
   40MOL     C226600   0.287   5.259   4.245 -0.0870  0.7610  0.4762
   40MOL     C326601   0.359   5.132   4.188 -0.0481  0.4828  0.1600
   40MOL     C426602   0.493   5.084   4.245 -0.0312  0.3376  0.2474
   40MOL     C526603   0.526   4.936   4.203 -0.3137  0.3534  0.4032
   40MOL     C626604   0.678   4.920   4.209 -0.4508  0.5128  0.1565
   40MOL     C726605   0.714   4.772   4.204 -0.4424  0.4247  0.2728
   40MOL     C826606   0.863   4.747   4.232 -0.3069  0.1269  0.0558
   40MOL     C926607   0.891   4.594   4.206 -0.4174  0.1210  0.0831
   40MOL    C1026608   1.039   4.563   4.230 -0.9088  0.5205 -0.7169
   40MOL    C1126609   1.132   4.623   4.130  0.3172 -0.0904  0.1709
   40MOL    C1226610   1.275   4.584   4.125 -0.7150  0.1992 -0.4261
   40MOL    O1326611   1.297   4.468   4.155 -0.4308 -0.1096  0.8949
   40MOL    H1426612   0.131   5.380   4.196 -0.4557  0.3598  0.0119
   40MOL    H1526613   0.277   5.242   4.352  1.1160 -0.4103  0.4232
   40MOL    H1626614   0.353   5.345   4.239  2.6356 -1.1473  1.9804
   40MOL    H1726615   0.365   5.145   4.080 -0.4940  0.7479  0.1639
   40MOL    H1826616   0.285   5.052   4.196  1.0798 -0.5377  0.5310
   40MOL    H1926617   0.569   5.147   4.200 -0.8068  2.6717  2.0980
   40MOL    H2026618   0.507   5.098   4.352  1.2453  2.9359 -0.2314
   40MOL    H2126619   0.506   4.925   4.097 -0.2488  3.6715 -0.0005
   40MOL    H2226620   0.473   4.861   4.261  0.1040 -0.5754 -0.4068
   40MOL    H2326621   0.730   4.955   4.298 -0.8526 -0.7660  0.9126
   40MOL    H2426622   0.734   4.969   4.130  1.7696  0.4459  1.6436
   40MOL    H2526623   0.663   4.706   4.274 -0.7631 -0.0858 -0.4390
   40MOL    H2626624   0.675   4.724   4.114  1.5645 -1.8532  0.5574
   40MOL    H2726625   0.890   4.776   4.333 -0.1276 -0.7164  0.2566
   40MOL    H2826626   0.924   4.810   4.168 -0.9361  0.0273 -0.6497
   40MOL    H2926627   0.844   4.526   4.276  0.0618 -0.2021  0.0966
   40MOL    H3026628   0.853   4.570   4.107  0.2423  3.1936 -0.9568
   40MOL    H3126629   1.051   4.455   4.218  2.2589  0.8297 -0.7883
   40MOL    H3226630   1.070   4.596   4.329  1.4176 -3.5792  0.0193
   40MOL    H3326631   1.118   4.731   4.133 -1.6626 -0.3330  0.6133
   40MOL    H3426632   1.101   4.591   4.031 -1.1309 -0.0636  0.6101
   40MOL    H3526633   0.099   5.233   4.213  0.1718 -0.5694 -0.3054
   40MOL    N3626634   1.370   4.673   4.090  0.1423  0.0588 -0.0658
   40MOL    C3726635   1.505   4.639   4.053 -0.4849 -0.0699 -0.5059
   40MOL    C3826636   1.567   4.770   4.005 -0.3615 -0.0725  0.3609
   40MOL    C3926637   1.698   4.754   3.926  0.1707 -0.1070 -0.1828
   40MOL    C4026638   1.760   4.885   3.876 -0.1801  0.0055  0.4979
   40MOL    C4126639   1.674   4.981   3.790 -0.1518 -1.2631  0.3157
   40MOL    C4226640   1.750   5.103   3.735 -0.2990  0.1109  0.3623
   40MOL    C4326641   1.813   5.190   3.847 -0.4304 -0.0889 -0.3009
   40MOL    C4426642   1.908   5.301   3.782  0.2985  0.2373  0.0929
   40MOL    C4526643   2.015   5.366   3.874 -0.0874 -0.5530 -0.1560
   40MOL    C4626644   2.075   5.488   3.801 -0.3655 -0.2344  0.5230
   40MOL    C4726645   2.188   5.557   3.886  0.0501  0.0196 -0.3992
   40MOL    O4826646   2.300   5.512   3.886  0.0430 -0.3994  0.7176
   40MOL    H4926647   1.338   4.768   4.080  0.2897  0.2667  1.3052
   40MOL    H5026648   1.564   4.593   4.131  1.0277  1.7979 -0.4977
   40MOL    H5126649   1.504   4.565   3.973  1.2209 -0.0249 -0.5848
   40MOL    H5226650   1.591   4.840   4.086  2.2986  0.1859 -0.5974
   40MOL    H5326651   1.491   4.812   3.939  0.6392  0.6740 -0.3359
   40MOL    H5426652   1.766   4.707   3.997 -0.1025 -2.9868 -1.7494
   40MOL    H5526653   1.688   4.677   3.849 -1.1785  0.9024 -1.0246
   40MOL    H5626654   1.857   4.855   3.835 -0.3622 -0.4910  0.4196
   40MOL    H5726655   1.794   4.943   3.961 -1.4836  2.1005 -0.3909
   40MOL    H5826656   1.584   5.017   3.839  0.5758 -2.0174  2.2651
   40MOL    H5926657   1.632   4.928   3.704 -2.1004 -0.6541  0.8711
   40MOL    H6026658   1.827   5.075   3.662 -2.0917  1.4050 -2.0780
   40MOL    H6126659   1.677   5.161   3.679  0.8384  1.2383  0.0075
   40MOL    H6226660   1.866   5.138   3.926 -2.0253  0.5238  1.1876
   40MOL    H6326661   1.731   5.247   3.891 -1.1439 -0.6588 -0.8754
   40MOL    H6426662   1.967   5.256   3.702  0.4432 -0.9417  0.8549
   40MOL    H6526663   1.847   5.370   3.723 -0.1657 -1.4060 -1.4258
   40MOL    H6626664   2.094   5.296   3.902 -0.6166 -1.7536 -1.5803
   40MOL    H6726665   1.964   5.402   3.963  1.2859 -0.9565  0.8121
   40MOL    H6826666   1.996   5.560   3.782 -0.6979 -0.3524  1.4014
   40MOL    H6926667   2.124   5.465   3.706 -0.2366 -1.1698  0.8090
   40MOL    N7026668   2.157   5.669   3.952  0.1344 -0.5309 -0.1116
   40MOL    C7126669   2.250   5.756   4.024  0.5462 -0.2694  0.2992
   40MOL    C7226670   2.289   5.875   3.949  0.1935  0.6142  0.4372
   40MOL    C7326671   2.391   5.956   4.022 -0.0059 -0.0222 -0.3205
   40MOL    C7426672   2.441   6.074   3.927 -0.2559 -1.0634  0.8696
   40MOL    C7526673   2.567   6.022   3.857 -0.4740 -0.4914 -0.1804
   40MOL    C7626674   2.626   6.123   3.752  0.4369  0.5995  0.1681
   40MOL    C7726675   2.760   6.070   3.685  0.5372 -0.0425 -0.3563
   40MOL    C7826676   2.842   6.192   3.644 -0.7776  0.0789 -0.4866
   40MOL    C7926677   2.969   6.162   3.569  0.1782 -0.4873 -0.6114
   40MOL    C8026678   3.075   6.269   3.586 -0.3357  0.3767  0.3248
   40MOL    C8126679   3.038   6.403   3.513 -0.1962  0.1766  0.0364
   40MOL    O8226680   2.993   6.407   3.400 -0.1082  0.2797  0.0009
   40MOL    H8326681   2.057   5.686   3.957  0.4245  1.0531  0.7776
   40MOL    H8426682   2.207   5.778   4.121  0.2238 -3.4309  0.9322
   40MOL    H8526683   2.338   5.693   4.034  1.2026  0.3946 -1.1730
   40MOL    H8626684   2.200   5.933   3.924 -0.1646  1.3811  3.2861
   40MOL    H8726685   2.322   5.838   3.851  0.9353 -1.9297  1.6059
   40MOL    H8826686   2.347   5.995   4.113 -0.3825  2.9610 -1.6928
   40MOL    H8926687   2.476   5.893   4.049 -1.1127 -1.1738  0.5078
   40MOL    H9026688   2.464   6.157   3.994 -0.3838 -1.8285  1.8796
   40MOL    H9126689   2.359   6.095   3.857  0.0514 -0.6602  0.6308
   40MOL    H9226690   2.542   5.928   3.807 -0.8949 -0.6493  0.3214
   40MOL    H9326691   2.650   6.008   3.926 -0.0693  1.2631 -0.2820
   40MOL    H9426692   2.552   6.150   3.676 -0.7335 -0.1969  1.0124
   40MOL    H9526693   2.648   6.211   3.813  0.2605 -0.3665  1.6442
   40MOL    H9626694   2.730   6.007   3.602  0.9250  0.2841 -0.7449
   40MOL    H9726695   2.816   6.014   3.760 -1.1346 -1.2961 -0.0281
   40MOL    H9826696   2.778   6.250   3.578 -1.2741  0.9990  0.7803
   40MOL    H9926697   2.859   6.253   3.733 -0.5482 -2.7694  1.5101
   40MOL   H10026698   2.946   6.152   3.463 -0.1003 -3.1245 -0.3517
   40MOL   H10126699   3.010   6.067   3.606  1.9884  0.2790 -0.6103
   40MOL   H10226700   3.169   6.240   3.541  0.0596 -0.8775  1.9173
   40MOL   H10326701   3.098   6.294   3.690 -0.3221  1.3792  0.0850
   40MOL   N10426702   3.048   6.515   3.583 -0.6652 -0.4142  0.3185
   40MOL   C10526703   3.031   6.650   3.531 -0.2011 -0.0179 -0.0094
   40MOL   C10626704   2.890   6.705   3.565 -0.0258 -0.2080 -0.3559
   40MOL   C10726705   2.871   6.713   3.714  0.2134 -0.0926 -0.3731
   40MOL   C10826706   2.968   6.786   3.810  0.4623  1.1528 -0.5479
   40MOL   C10926707   2.919   6.794   3.959 -0.5452  0.3664 -0.1058
   40MOL   C11026708   3.023   6.840   4.062 -0.5301 -0.3036 -0.6781
   40MOL   C11126709   2.973   6.950   4.166  0.0993  0.4235 -0.1013
   40MOL   C11226710   3.051   6.955   4.298 -0.2448 -0.2435  0.2830
   40MOL   C11326711   3.000   7.072   4.383 -0.0662 -0.0925 -0.0938
   40MOL   C11426712   3.063   7.086   4.522 -0.7910  0.5073 -0.1013
   40MOL   C11526713   3.011   7.207   4.594  1.0655 -0.0837  0.6725
   40MOL   O11626714   3.088   7.293   4.628 -0.2255 -0.5302 -0.0628
   40MOL   H11726715   3.091   6.492   3.671  0.4638 -1.3554 -0.4597
   40MOL   H11826716   3.098   6.717   3.585 -0.2154 -0.4741  0.5868
   40MOL   H11926717   3.061   6.662   3.427 -1.1541  4.7593  0.1788
   40MOL   H12026718   2.812   6.645   3.518 -1.6970  1.2357  0.5349
   40MOL   H12126719   2.873   6.804   3.522 -0.6006 -0.4264 -0.6367
   40MOL   H12226720   2.769   6.748   3.726 -0.6436 -2.5281 -0.2768
   40MOL   H12326721   2.857   6.610   3.748  0.0069  0.1844  0.3748
   40MOL   H12426722   2.989   6.886   3.775  0.0459  2.8795  3.8141
   40MOL   H12526723   3.062   6.731   3.819  0.2478  0.8919  0.1899
   40MOL   H12626724   2.894   6.693   3.991  3.7640  0.2083  3.1825
   40MOL   H12726725   2.823   6.846   3.965 -1.0154 -0.6079  0.9213
   40MOL   H12826726   3.072   6.755   4.111  0.8356  0.4880 -0.6281
   40MOL   H12926727   3.102   6.889   4.005 -0.0863 -0.6917 -0.3968
   40MOL   H13026728   2.868   6.935   4.191  0.6604 -2.2450  0.7866
   40MOL   H13126729   2.978   7.047   4.116 -0.2685  0.5709  0.1459
   40MOL   H13226730   3.045   6.856   4.343 -0.4609 -0.7950 -0.9347
   40MOL   H13326731   3.157   6.973   4.284 -0.1702  0.7820  1.9720
   40MOL   H13426732   2.893   7.052   4.396  0.2331 -1.5757  0.1367
   40MOL   H13526733   2.999   7.163   4.323 -2.5038 -0.5594 -0.8239
   40MOL   H13626734   3.169   7.112   4.523 -0.2726 -1.5691  0.1860
   40MOL   H13726735   3.053   6.996   4.582 -0.3895  1.0165  0.7475
   40MOL   N13826736   2.880   7.208   4.629  0.2507 -0.3603 -0.7428
   40MOL   C13926737   2.808   7.326   4.681 -0.6491 -0.5062 -0.3340
   40MOL   C14026738   2.669   7.334   4.622 -0.1361  0.4927 -0.3004
   40MOL   C14126739   2.677   7.325   4.462  0.6881  0.2931 -0.2509
   40MOL   C14226740   2.540   7.332   4.395 -0.6093 -0.2023  0.1544
   40MOL   C14326741   2.549   7.346   4.240 -0.1912 -0.0350  0.3733
   40MOL   C14426742   2.616   7.234   4.160 -0.0288  0.4067 -0.0809
   40MOL   C14526743   2.664   7.277   4.021 -0.0173  0.5663 -0.0262
   40MOL   C14626744   2.745   7.173   3.941 -0.7827  0.1752 -0.2272
   40MOL   C14726745   2.742   7.198   3.794  0.1673  0.0384 -0.6585
   40MOL   C14826746   2.825   7.318   3.746 -0.4293  0.2438  0.0906
   40MOL   C14926747   2.759   7.456   3.755  0.0218 -0.0329 -0.6156
   40MOL   O15026748   2.644   7.474   3.708 -0.5681  0.1026 -0.1899
   40MOL   H15126749   2.820   7.133   4.598  0.8435 -0.5099 -1.5221
   40MOL   H15226750   2.805   7.310   4.789 -0.1554 -1.4300 -0.4488
   40MOL   H15326751   2.865   7.417   4.665 -0.5838 -0.9557 -2.7557
   40MOL   H15426752   2.617   7.428   4.645 -1.7137 -0.5632  0.5516
   40MOL   H15526753   2.610   7.250   4.660  2.9737 -1.2772  0.7548
   40MOL   H15626754   2.747   7.406   4.440  1.4237 -0.2939 -0.1115
   40MOL   H15726755   2.738   7.238   4.437  0.9186  0.2276  0.5225
   40MOL   H15826756   2.477   7.408   4.442  1.1888  1.0349  0.5895
   40MOL   H15926757   2.487   7.239   4.418  0.1027 -0.3984  1.0607
   40MOL   H16026758   2.586   7.441   4.202 -0.0200 -0.3684 -0.3058
   40MOL   H16126759   2.449   7.361   4.199  0.3303 -0.4375 -1.0875
   40MOL   H16226760   2.706   7.194   4.206 -0.0552 -0.4687 -0.7537
   40MOL   H16326761   2.551   7.146   4.152  2.1544 -1.1712 -1.0447
   40MOL   H16426762   2.709   7.375   4.010  0.9745 -0.1226 -2.4206
   40MOL   H16526763   2.574   7.307   3.968 -0.5628  1.7836  1.5441
   40MOL   H16626764   2.845   7.175   3.984 -0.0888  1.3382 -1.8327
   40MOL   H16726765   2.714   7.072   3.967  0.1043 -0.0741 -0.1271
   40MOL   H16826766   2.639   7.205   3.760  0.1573  0.4640 -0.5415
   40MOL   H16926767   2.776   7.111   3.738 -0.4911  0.0364 -1.0668
   40MOL   H17026768   2.847   7.289   3.643 -3.0612  0.9355 -0.7024
   40MOL   H17126769   2.923   7.308   3.792 -0.0020 -1.5527 -1.1894
   40MOL   N17226770   2.819   7.555   3.821 -0.2520 -0.2365  0.8125
   40MOL   C17326771   2.799   7.699   3.800  0.1558  0.1590 -0.3626
   40MOL   C17426772   2.726   0.043   3.927  0.1345 -0.1795  0.2215
   40MOL   C17526773   2.761   0.183   3.958  0.0010 -0.0078 -0.5510
   40MOL   C17626774   2.671   0.218   4.071  0.6239 -0.5016  0.1882
   40MOL   C17726775   2.696   0.354   4.133  0.1194 -0.3524  0.1833
   40MOL   C17826776   2.620   0.379   4.269 -0.1842 -0.2403  0.1515
   40MOL   C17926777   2.640   0.529   4.313 -0.0366  0.0342  0.0221
   40MOL   C18026778   2.526   0.574   4.410 -0.0518  0.4346  0.7515
   40MOL   C18126779   2.510   0.725   4.422 -0.1400  0.8210  0.5996
   40MOL   C18226780   2.423   0.754   4.541  0.0732 -0.4196  0.2366
   40MOL   C18326781   2.503   0.750   4.666 -0.2229  0.5836 -0.0843
   40MOL   O18426782   2.595   0.827   4.672 -0.2097 -0.7124 -0.0375
   40MOL   H18526783   2.899   7.533   3.879  0.7206 -0.0973 -0.4740
   40MOL   H18626784   2.885   0.046   3.780  0.2847  0.0405 -0.1839
   40MOL   H18726785   2.721   7.712   3.725  0.3726 -2.0731 -1.0123
   40MOL   H18826786   2.747   7.693   4.011  2.4507 -0.9407 -0.9159
   40MOL   H18926787   2.618   0.036   3.909  0.3943 -0.3201 -1.3733
   40MOL   H19026788   2.864   0.181   3.994 -0.0128 -0.0281 -0.5129
   40MOL   H19126789   2.757   0.248   3.870  1.7372  1.5324  0.4868
   40MOL   H19226790   2.692   0.137   4.142  0.5976 -0.7116 -0.0467
   40MOL   H19326791   2.565   0.212   4.047  0.5233  1.5118  0.0115
   40MOL   H19426792   2.678   0.426   4.054  0.2817 -1.4173 -0.8376
   40MOL   H19526793   2.800   0.349   4.166 -0.0285  1.0703  0.9132
   40MOL   H19626794   2.514   0.356   4.272  0.0703 -1.3900  0.9540
   40MOL   H19726795   2.672   0.314   4.339 -0.5933 -0.6968  0.0345
   40MOL   H19826796   2.648   0.586   4.221  1.1892  2.8475  1.8127
   40MOL   H19926797   2.737   0.538   4.361  0.4398 -2.3330 -0.4498
   40MOL   H20026798   2.435   0.530   4.367  0.9992 -0.8231 -0.2111
   40MOL   H20126799   2.543   0.523   4.504  1.6121 -0.3468  0.0388
   40MOL   H20226800   2.472   0.770   4.329 -1.0444  0.6309  0.8750
   40MOL   H20326801   2.613   0.756   4.439  0.6322 -1.6213  0.4682
   40MOL   H20426802   2.336   0.688   4.542 -1.3025  1.3382 -0.5381
   40MOL   H20526803   2.375   0.850   4.521 -0.7498 -1.0799 -1.0523
   40MOL   N20626804   2.463   0.661   4.764 -0.5923 -0.1971 -0.0367
   40MOL   C20726805   2.550   0.629   4.876  0.3396  0.3646 -0.6501
   40MOL   C20826806   2.585   0.481   4.883  0.3409  0.8980 -0.0039
   40MOL   C20926807   2.705   0.444   4.975  0.4017 -0.3215 -0.5487
   40MOL   C21026808   2.668   0.436   5.132  0.3267  0.1272  0.0682
   40MOL   C21126809   2.699   0.574   5.198 -0.6268 -0.0011 -0.0618
   40MOL   C21226810   2.634   0.575   5.336 -0.3764  0.4375  0.3873
   40MOL   C21326811   2.668   0.695   5.424  0.5116 -0.0413 -0.6686
   40MOL   C21426812   2.814   0.695   5.478 -0.6530  0.6150  0.6293
   40MOL   C21526813   2.821   0.807   5.591 -0.5946 -0.3002  0.3969
   40MOL   C21626814   2.956   0.824   5.663  0.1422 -0.0484  0.3464
   40MOL   C21726815   3.019   0.700   5.721 -0.0503 -0.3209 -0.2460
   40MOL   O21826816   2.978   0.660   5.829  0.0843  0.4850  0.5255
   40MOL   H21926817   2.378   0.608   4.760  0.7743 -2.3381 -1.5885
   40MOL   H22026818   2.496   0.663   4.964 -0.2607  0.3382 -1.0064
   40MOL   H22126819   2.651   0.669   4.863  0.5606 -0.2305 -0.7692
   40MOL   H22226820   2.613   0.447   4.784  1.3365 -2.3614  1.3163
   40MOL   H22326821   2.498   0.418   4.905  0.9112  1.0898  2.9627
   40MOL   H22426822   2.745   0.349   4.939 -0.9956 -1.8738  1.8780
   40MOL   H22526823   2.790   0.510   4.956 -1.8349  2.9123  0.1469
   40MOL   H22626824   2.723   0.361   5.189  3.4939  1.3368 -1.2402
   40MOL   H22726825   2.568   0.395   5.138  0.1046  0.6461 -0.0564
   40MOL   H22826826   2.661   0.658   5.141  0.9636  0.5141 -0.3817
   40MOL   H22926827   2.805   0.600   5.204 -0.8827  0.7143  1.8373
   40MOL   H23026828   2.529   0.569   5.310 -1.0369 -0.1459  3.0079
   40MOL   H23126829   2.671   0.483   5.381 -1.8284 -1.5306 -2.3226
   40MOL   H23226830   2.591   0.697   5.500 -0.4285 -0.8809 -1.5865
   40MOL   H23326831   2.642   0.784   5.367  0.4400  1.4743  1.6916
   40MOL   H23426832   2.823   0.593   5.515  2.7145  1.0075  1.1211
   40MOL   H23526833   2.890   0.709   5.401  0.0399 -4.2656  0.2536
   40MOL   H23626834   2.735   0.798   5.658 -1.2356  2.6599  0.0394
   40MOL   H23726835   2.806   0.892   5.525  0.3453  1.5785  2.5508
   40MOL   H23826836   2.955   0.901   5.741 -0.1673 -1.1647  1.4518
   40MOL   H23926837   3.029   0.867   5.594 -0.8335  0.5574 -0.3339
   40MOL   N24026838   3.110   0.636   5.654  0.0207  0.0012 -0.4573
   40MOL   C24126839   3.173   0.507   5.694 -0.6055  0.3831  0.3008
   40MOL   C24226840   3.078   0.388   5.659 -0.1401  0.1347  0.7316
   40MOL   C24326841   3.075   0.332   5.512  0.0810  0.1889 -0.0717
   40MOL   C24426842   2.981   0.218   5.505 -0.0785 -0.2396  0.2977
   40MOL   C24526843   2.960   0.172   5.364 -0.0389 -0.0122 -0.7744
   40MOL   C24626844   2.851   0.070   5.358 -0.8402 -0.3820  0.8177
   40MOL   C24726845   2.822   0.011   5.216  0.4232  0.2246  0.2460
   40MOL   C24826846   2.923   7.611   5.169 -0.4403 -0.3990 -0.5632
   40MOL   C24926847   2.894   7.553   5.023 -0.2736  0.0238  0.0462
   40MOL   C25026848   3.005   7.456   4.976  0.0425  0.0239  0.4819
   40MOL   C25126849   2.978   7.311   5.008  0.9435  0.3229 -0.3663
   40MOL   O25226850   2.913   7.276   5.112 -0.0402  0.2948 -0.1770
   40MOL   H25326851   3.136   0.674   5.565 -2.1797  0.0730 -1.0986
   40MOL   H25426852   3.195   0.513   5.801  2.4248  1.4575 -0.3095
   40MOL   H25526853   3.269   0.485   5.647  0.2433  1.9104  1.2665
   40MOL   H25626854   2.973   0.397   5.686 -0.0039 -1.3185  1.8052
   40MOL   H25726855   3.107   0.299   5.716 -0.0698  0.9580  2.0049
   40MOL   H25826856   3.046   0.415   5.446 -1.1757 -1.5392 -1.7629
   40MOL   H25926857   3.178   0.301   5.499 -0.2500 -2.2573  2.7899
   40MOL   H26026858   2.886   0.240   5.555 -0.3543 -0.4759 -0.1155
   40MOL   H26126859   3.023   0.130   5.554  3.3598  1.4238  0.4311
   40MOL   H26226860   3.056   0.141   5.320 -0.4251 -0.8793 -1.0267
   40MOL   H26326861   2.934   0.253   5.296 -0.4291 -0.5493 -1.2705
   40MOL   H26426862   2.873   7.704   5.425  0.5005  0.6843  1.6966
   40MOL   H26526863   2.755   0.110   5.392 -0.9972  0.3502 -0.4526
   40MOL   H26626864   2.824   0.086   5.137  0.8203  0.8306  0.8254
   40MOL   H26726865   2.720   7.690   5.222  1.1135 -2.0801 -1.5054
   40MOL   H26826866   3.023   7.654   5.172 -0.4188 -0.5067  0.1397
   40MOL   H26926867   2.925   7.529   5.240 -0.7479 -0.1539 -0.2769
   40MOL   H27026868   2.890   7.638   4.955 -3.6801  0.8825  1.1849
   40MOL   H27126869   2.793   7.513   5.012 -0.0680 -0.0268 -1.7795
   40MOL   H27226870   3.105   7.486   5.007 -0.1743  2.1483 -0.7998
   40MOL   H27326871   3.012   7.461   4.867  0.8607 -0.2462  0.5191
   40MOL   N27426872   3.040   7.219   4.931 -0.0762  0.1711  0.4544
   40MOL   C27526873   3.046   7.071   4.968  0.2852  0.0061  0.3224
   40MOL   C27626874   3.159   6.998   4.897 -0.4013 -0.4352  0.3598
   40MOL   C27726875   3.180   6.852   4.940 -0.5419 -0.9542 -0.1931
   40MOL   C27826876   3.328   6.803   4.921 -0.4192 -0.2416 -0.3072
   40MOL   C27926877   3.379   6.821   4.774  0.0744  0.4081  0.5334
   40MOL   C28026878   3.303   6.741   4.667 -0.3508  0.1563 -0.5642
   40MOL   C28126879   3.390   6.729   4.542  0.3039  0.9596  0.7668
   40MOL   C28226880   3.322   6.689   4.416 -0.3895 -0.6961  0.2343
   40MOL   C28326881   3.401   6.728   4.295  0.2462 -0.6644  0.6422
   40MOL   C28426882   3.365   6.661   4.164  0.4444  0.2783  0.0004
   40MOL   C28526883   3.422   6.729   4.038 -0.1970 -0.5057 -0.3001
   40MOL   O28626884   3.512   6.808   4.047 -0.3972 -0.2048  0.1610
   40MOL   H28726885   3.079   7.249   4.844  1.4020 -0.1544  0.9853
   40MOL   H28826886   2.950   7.021   4.957  1.1435 -1.4367 -0.8291
   40MOL   H28926887   3.061   7.066   5.076  1.0394  0.7511  0.2645
   40MOL   H29026888   3.246   7.047   4.941  0.0370 -0.9050  0.0279
   40MOL   H29126889   3.155   7.006   4.789  3.8788  0.4859  0.1623
   40MOL   H29226890   3.160   6.840   5.046  2.8821 -2.1011  0.4005
   40MOL   H29326891   3.108   6.786   4.892 -0.2695 -0.7614 -0.8747
   40MOL   H29426892   3.338   6.698   4.948  1.3300  0.3557  1.4598
   40MOL   H29526893   3.395   6.870   4.975  1.2112 -0.8016 -1.5864
   40MOL   H29626894   3.485   6.798   4.774 -0.1307 -0.6287  2.0712
   40MOL   H29726895   3.385   6.926   4.747  0.9724  0.3311  0.4409
   40MOL   H29826896   3.280   6.642   4.704 -1.4957  0.9792  0.9991
   40MOL   H29926897   3.205   6.782   4.642 -0.2315  1.0411  0.3823
   40MOL   H30026898   3.474   6.664   4.566 -0.3786 -0.1632  0.1362
   40MOL   H30126899   3.443   6.821   4.517  1.8720 -0.8514 -2.8407
   40MOL   H30226900   3.300   6.582   4.418 -0.5477 -0.6658  0.1790
   40MOL   H30326901   3.229   6.746   4.409 -0.0793 -0.1936  0.1392
   40MOL   H30426902   3.505   6.708   4.318  0.9255 -0.4052 -2.0097
   40MOL   H30526903   3.385   6.836   4.292 -0.7177 -0.7352  2.4704
   40MOL   H30626904   3.257   6.648   4.153 -0.1022  2.7340  2.1573
   40MOL   H30726905   3.410   6.562   4.157 -1.1557 -0.3889 -1.2880
   40MOL   N30826906   3.370   6.700   3.918  0.4443  0.1342 -0.4107
   40MOL   C30926907   3.395   6.785   3.799  0.0335 -0.4949 -0.9251
   40MOL   C31026908   3.478   6.706   3.698  0.3302 -0.6933 -0.1567
   40MOL   C31126909   3.488   6.788   3.564 -0.0003  0.3849 -0.5330
   40MOL   C31226910   3.584   6.726   3.464 -0.4645  0.0501 -0.2606
   40MOL   C31326911   3.731   6.705   3.520 -0.0662  0.1992  0.2809
   40MOL   C31426912   3.836   6.701   3.410  0.0418 -0.7452 -0.5758
   40MOL   C31526913   3.969   6.702   3.479 -0.1063 -0.5457 -0.0246
   40MOL   C31626914   4.087   6.690   3.378 -0.7381  0.4220 -0.6073
   40MOL   C31726915   4.217   6.746   3.439 -0.6336 -0.8153 -0.1964
   40MOL   C31826916   4.269   6.695   3.572  0.7368 -0.5619 -0.5429
   40MOL   C31926917   4.267   6.541   3.582 -0.0827 -0.4574 -0.2122
   40MOL   O32026918   4.331   6.472   3.508 -0.8759  0.9911  0.3842
   40MOL   H32126919   3.294   6.634   3.917 -0.7829  1.4577  2.0135
   40MOL   H32226920   3.438   6.877   3.837 -0.8780 -0.7423  0.7239
   40MOL   H32326921   3.301   6.807   3.749  0.1178  1.6229 -0.1497
   40MOL   H32426922   3.437   6.609   3.672  1.3036 -0.9928 -0.5778
   40MOL   H32526923   3.580   6.692   3.735  1.1584  1.3470 -1.5254
   40MOL   H32626924   3.389   6.798   3.519  0.3347  2.6715 -0.8009
   40MOL   H32726925   3.508   6.891   3.593  1.5266 -0.1937  0.5623
   40MOL   H32826926   3.601   6.788   3.376 -0.6609 -1.2720 -1.2422
   40MOL   H32926927   3.540   6.633   3.429 -2.4115  1.2228 -1.0336
   40MOL   H33026928   3.726   6.603   3.557  0.3924 -0.4085 -1.2908
   40MOL   H33126929   3.754   6.770   3.605 -0.7224 -0.6395  1.1136
   40MOL   H33226930   3.818   6.612   3.351  2.2801 -1.3664 -0.3530
   40MOL   H33326931   3.827   6.791   3.348  0.3095  1.4304  2.4064
   40MOL   H33426932   3.988   6.630   3.559  1.0746  0.2238  0.4122
   40MOL   H33526933   3.980   6.797   3.530  2.1707 -1.8695  2.0724
   40MOL   H33626934   4.106   6.585   3.353  1.7449  0.6809  0.0475
   40MOL   H33726935   4.068   6.744   3.285 -3.5204  1.2394  0.4100
   40MOL   H33826936   4.214   6.854   3.451  0.9042 -0.5934 -1.6708
   40MOL   H33926937   4.305   6.729   3.377  1.3777  1.1712  2.0138
   40MOL   H34026938   4.204   6.733   3.652 -0.6784  2.1908 -2.9311
   40MOL   H34126939   4.365   6.737   3.601 -0.3802  0.1282  2.3675
   40MOL   N34226940   4.181   6.488   3.670  0.0282  0.0719 -0.3136
   40MOL   C34326941   4.154   6.345   3.679  0.3936 -0.5303 -0.2393
   40MOL   C34426942   3.999   6.316   3.673 -0.3318 -0.5195  0.1452
   40MOL   C34526943   3.936   6.346   3.804  0.3248  0.3914  0.1551
   40MOL   C34626944   3.881   6.496   3.813 -0.4442  0.0383 -0.3226
   40MOL   C34726945   3.806   6.517   3.947  0.2903  0.9573 -0.0005
   40MOL   C34826946   3.886   6.542   4.076 -0.4515 -0.1264 -0.3155
   40MOL   C34926947   3.797   6.591   4.188  0.4622  0.0380 -0.0901
   40MOL   C35026948   3.876   6.658   4.310  0.0570 -0.1365 -0.3247
   40MOL   C35126949   3.787   6.744   4.399 -0.3299  0.4340  0.4975
   40MOL   C35226950   3.850   6.802   4.519  0.6345 -0.4850 -0.3671
   40MOL   C35326951   3.960   6.905   4.496  0.3501  0.8071  0.0518
   40MOL   O35426952   3.994   6.932   4.383  0.9573  0.4399 -0.0431
   40MOL   H35526953   4.131   6.547   3.734  1.5050  3.4302 -2.1475
   40MOL   H35626954   4.191   6.281   3.599  0.5399  0.9805 -1.4030
   40MOL   H35726955   4.182   6.301   3.775 -1.2560 -2.7747 -0.7397
   40MOL   H35826956   3.967   6.216   3.644 -1.9901  0.0508 -0.0328
   40MOL   H35926957   3.947   6.387   3.608 -2.6432 -0.2170  2.2492
   40MOL   H36026958   3.842   6.292   3.819  0.0279  1.4209  2.1634
   40MOL   H36126959   3.996   6.304   3.884  0.3392  0.0497 -0.0330
   40MOL   H36226960   3.808   6.514   3.734 -2.3712 -0.2341  1.3565
   40MOL   H36326961   3.955   6.575   3.800  0.0604  0.1141  2.5645
   40MOL   H36426962   3.731   6.440   3.966  1.1425  0.1976  0.3336
   40MOL   H36526963   3.758   6.609   3.914  0.6278  0.9861 -0.4121
   40MOL   H36626964   3.941   6.449   4.092  2.0482  1.2750 -0.4001
   40MOL   H36726965   3.968   6.611   4.055 -0.4634  0.5441  1.8157
   40MOL   H36826966   3.724   6.518   4.225  1.7164 -1.4263 -0.4614
   40MOL   H36926967   3.734   6.667   4.142  2.4412  0.6583 -1.8239
   40MOL   H37026968   3.926   6.582   4.370 -2.4328 -0.5303  1.2828
   40MOL   H37126969   3.950   6.726   4.266 -1.5458  0.8390 -1.5714
   40MOL   H37226970   3.707   6.673   4.417 -1.9468  2.1319  0.2229
   40MOL   H37326971   3.734   6.817   4.337 -1.0486  1.2662  2.0727
   40MOL   H37426972   3.893   6.717   4.571 -2.2878 -2.5899 -1.2416
   40MOL   H37526973   3.780   6.842   4.592  1.2098  1.8050 -1.0304
   40MOL   N37626974   3.996   6.969   4.610 -0.7758 -0.1576 -0.0130
   40MOL   C37726975   4.093   7.074   4.611  0.3002 -0.0103 -0.0705
   40MOL   C37826976   4.132   7.130   4.749  0.4206 -0.4710  0.5647
   40MOL   C37926977   4.183   7.030   4.850  0.0010 -0.4093  0.0156
   40MOL   C38026978   4.219   7.081   4.992  0.0310  0.3371  0.6522
   40MOL   C38126979   4.274   6.962   5.079 -0.2469 -0.0788  0.1467
   40MOL   C38226980   4.327   7.002   5.214  0.0641  0.2920  0.2678
   40MOL   C38326981   4.387   6.884   5.297  0.3457 -0.0933  0.1617
   40MOL   C38426982   4.284   6.790   5.360  0.0148 -0.5012  0.5901
   40MOL   C38526983   4.350   6.681   5.439  0.0597  0.1091 -0.3664
   40MOL   C38626984   4.250   6.572   5.490  0.5804 -0.4249 -0.7941
   40MOL   C38726985   4.314   6.451   5.549  0.3443 -0.0528 -0.0428
   40MOL   O38826986   4.337   6.445   5.666  0.0454  0.3375 -0.3276
   40MOL   H38926987   3.965   6.938   4.700 -0.7848  1.8321  0.6799
   40MOL   H39026988   4.183   7.044   4.558  0.2536  0.2175 -0.2775
   40MOL   H39126989   4.040   7.153   4.558 -0.2104 -0.4342 -0.1985
   40MOL   H39226990   4.045   7.188   4.777  1.3632  1.1998  0.1444
   40MOL   H39326991   4.208   7.208   4.741  1.2229 -1.1689  1.2313
   40MOL   H39426992   4.113   6.947   4.862  0.4279 -0.9177 -0.9068
   40MOL   H39526993   4.268   6.977   4.806  0.0736  0.5599 -1.0411
   40MOL   H39626994   4.147   7.142   5.045  0.0490  1.3282 -0.4423
   40MOL   H39726995   4.305   7.148   4.987 -0.9144  1.4771 -0.8460
   40MOL   H39826996   4.355   6.907   5.031  1.5222  1.7877  0.8744
   40MOL   H39926997   4.199   6.884   5.079 -0.9667  0.6069  0.5037
   40MOL   H40026998   4.404   7.078   5.198  1.3928 -0.7981  1.3652
   40MOL   H40126999   4.242   7.036   5.273 -0.4975  0.5490 -0.6804
   40MOL   H40227000   4.440   6.931   5.380  0.0510  1.9842 -0.7976
   40MOL   H40327001   4.465   6.834   5.242  0.5316  0.1191  0.2286
   40MOL   H40427002   4.210   6.843   5.420 -0.1708  0.1354 -0.1855
   40MOL   H40527003   4.220   6.745   5.284 -3.0062  1.2417  2.0537
   40MOL   H40627004   4.398   6.729   5.524 -0.6470 -0.7043  0.4954
   40MOL   H40727005   4.434   6.637   5.385 -0.7433 -1.7666 -0.1025
   40MOL   H40827006   4.186   6.545   5.405 -0.4849  2.5443 -0.9949
   40MOL   H40927007   4.187   6.623   5.562  0.5587 -0.0673 -1.0622
   40MOL   N41027008   4.335   6.356   5.468 -0.2005  0.0113 -0.0104
   40MOL   C41127009   4.401   6.236   5.496  0.2960  0.2629  0.5137
   40MOL   C41227010   4.501   6.204   5.381  0.1738  0.2129  0.6110
   40MOL   C41327011   4.609   6.314   5.368  0.0596  0.4395  0.5924
   40MOL   C41427012   4.682   6.302   5.233  0.0957 -0.1003 -0.3321
   40MOL   C41527013   4.740   6.167   5.188 -0.4260  0.3624  0.3320
   40MOL   C41627014   4.817   6.187   5.051  0.3983  0.4136 -0.0703
   40MOL   C41727015   4.852   6.046   5.007 -0.1326 -0.6352 -0.5889
   40MOL   C41827016   4.905   6.052   4.861 -0.1353  0.9063  0.0125
   40MOL   C41927017   4.917   5.911   4.802 -0.4259  0.0310 -0.9024
   40MOL   C42027018   5.007   5.816   4.880  0.8228  0.5060 -0.3592
   40MOL   C42127019   5.152   5.853   4.911 -0.3216 -0.2646  0.4280
   40MOL   O42227020   5.221   5.869   4.813 -0.5597 -0.4595 -0.7994
   40MOL   H42327021   4.314   6.364   5.369  0.9874 -1.0229 -0.3725
   40MOL   H42427022   4.442   6.247   5.597  0.9769  1.3014  0.1336
   40MOL   H42527023   4.342   6.145   5.501  0.1938  0.1533 -1.9926
   40MOL   H42627024   4.452   6.191   5.285 -2.9073 -0.1679  2.1645
   40MOL   H42727025   4.535   6.104   5.408  0.8134 -0.2930 -2.0289
   40MOL   H42827026   4.572   6.416   5.381  0.0081  0.3467  1.1742
   40MOL   H42927027   4.676   6.304   5.453  0.1941 -1.6643  0.2592
   40MOL   H43027028   4.767   6.371   5.233  1.5949 -1.8992 -0.9221
   40MOL   H43127029   4.615   6.344   5.159 -0.2739  0.3280  0.2391
   40MOL   H43227030   4.666   6.092   5.162 -0.8950  0.8727  0.1800
   40MOL   H43327031   4.798   6.113   5.262  1.3994  1.1683 -0.4854
   40MOL   H43427032   4.756   6.244   4.980  0.7841 -0.1961 -0.8935
   40MOL   H43527033   4.907   6.249   5.048  0.8597 -0.3231 -1.6317
   40MOL   H43627034   4.767   5.983   5.030 -0.9548  0.8845  0.6240
   40MOL   H43727035   4.926   6.006   5.076 -0.6551  0.0624  0.3844
   40MOL   H43827036   4.831   6.100   4.797 -0.4557 -1.3495 -1.4039
   40MOL   H43927037   4.997   6.111   4.865 -0.6368  1.7592 -0.7933
   40MOL   H44027038   4.969   5.916   4.706 -0.8802 -0.2097 -1.1624
   40MOL   H44127039   4.817   5.871   4.787 -0.6298 -0.1619  0.8551
   40MOL   H44227040   5.006   5.714   4.841  0.4011 -0.7795  2.9075
   40MOL   H44327041   4.964   5.799   4.978  0.6951  1.8577 -0.1780
   40MOL   N44427042   5.197   5.855   5.037  0.1572 -0.7682  0.1050
   40MOL   C44527043   5.330   5.906   5.086  0.1328 -0.1722  0.1851
   40MOL   C44627044   5.360   6.051   5.056  0.8210  0.0436  0.2045
   40MOL   C44727045   5.496   6.090   5.123 -0.1227  1.2619  0.2482
   40MOL   C44827046   5.545   6.228   5.079 -0.7460  0.2388 -0.2790
   40MOL   C44927047   5.700   6.230   5.087  0.3511  0.2323 -0.4593
   40MOL   C45027048   5.744   6.374   5.073 -0.0277 -0.3347 -0.0825
   40MOL   C45127049   5.898   6.368   5.083 -0.0676 -0.0401 -0.1043
   40MOL   C45227050   5.950   6.502   5.022 -0.1170 -0.2634 -0.7554
   40MOL   C45327051   6.104   6.511   5.006  0.0556 -0.0916  0.1368
   40MOL   C45427052   6.126   6.654   4.966  0.2495  0.1458 -0.1642
   40MOL   C45527053   6.267   6.690   4.954  0.5357  0.4152  0.0215
   40MOL   O45627054   6.345   6.603   4.926 -0.3126 -0.3368 -0.1716
   40MOL   H45727055   5.124   5.833   5.103  0.1344  1.6360  0.9467
   40MOL   H45827056   5.318   5.892   5.194  1.2013 -2.0758  0.0695
   40MOL   H45927057   5.404   5.835   5.052  0.8832  0.3309  0.7444
   40MOL   H46027058   5.283   6.116   5.096 -0.7186 -2.4757  1.4892
   40MOL   H46127059   5.364   6.054   4.947 -0.6903  0.5003  0.1568
   40MOL   H46227060   5.502   6.082   5.232  3.0682  2.2818  0.1999
   40MOL   H46327061   5.575   6.026   5.083 -0.7833 -0.0641  1.0275
   40MOL   H46427062   5.494   6.301   5.142 -2.5779 -0.6797 -0.6719
   40MOL   H46527063   5.525   6.259   4.977 -1.7267 -0.2077 -0.2241
   40MOL   H46627064   5.744   6.156   5.020  0.0959 -0.0722 -0.2919
   40MOL   H46727065   5.733   6.205   5.188  0.6614  1.7991 -0.1531
   40MOL   H46827066   5.721   6.398   4.970 -1.5175 -4.7077 -0.8720
   40MOL   H46927067   5.692   6.442   5.141 -0.9048 -0.9594 -0.1297
   40MOL   H47027068   5.934   6.285   5.021 -2.8259 -1.5579  0.2665
   40MOL   H47127069   5.934   6.342   5.183  0.7509  1.6249  0.0545
   40MOL   H47227070   5.909   6.528   4.924  1.7171  1.0175 -1.2071
   40MOL   H47327071   5.920   6.585   5.086 -1.6892 -0.1030 -1.6579
   40MOL   H47427072   6.136   6.444   4.927  0.4418 -0.7622  0.8507
   40MOL   H47527073   6.162   6.483   5.094  1.6411  1.6133 -0.3144
   40MOL   H47627074   6.084   6.724   5.038  1.9107  0.3449  0.6349
   40MOL   H47727075   6.070   6.674   4.874  3.1528  1.8480 -1.6295
   40MOL   N47827076   6.309   6.811   4.973 -0.0904  0.2209 -0.4650
   40MOL   C47927077   6.449   6.854   4.974 -0.5258 -0.0299  1.0216
   40MOL   C48027078   6.461   7.009   4.973  0.0643 -0.2766 -0.2963
   40MOL   C48127079   6.410   7.073   4.845 -0.0234  0.1074  0.2208
   40MOL   C48227080   6.443   7.226   4.839 -0.0148  0.8798  0.5227
   40MOL   C48327081   6.379   7.299   4.722  0.0238  0.1189 -0.0035
   40MOL   C48427082   6.402   7.447   4.717 -0.6239 -0.3143  0.1086
   40MOL   C48527083   6.345   7.513   4.592  0.2056 -0.2937 -0.2836
   40MOL   C48627084   6.391   7.450   4.461 -0.1220 -0.2200  0.2235
   40MOL   C48727085   6.366   7.520   4.328  1.6539 -0.4688 -0.3768
   40MOL   C48827086   6.224   7.575   4.288  0.0396 -0.4727 -0.3913
   40MOL   C48927087   6.203   7.638   4.154  0.0497 -0.1181 -0.4709
   40MOL   O49027088   6.170   7.577   4.055  0.5293 -0.6739 -0.2145
   40MOL   H49127089   6.239   6.882   4.994  1.6104  1.5427  0.8201
   40MOL   H49227090   6.488   6.799   5.060  0.6783  0.7079  0.9596
   40MOL   H49327091   6.508   6.807   4.895 -2.2053 -1.4168  0.5704
   40MOL   H49427092   6.567   7.035   4.977  0.4183 -1.9609  1.9931
   40MOL   H49527093   6.405   7.053   5.055  0.1457 -0.7492  0.0106
   40MOL   H49627094   6.446   7.013   4.762 -2.2831 -1.1923  0.1266
   40MOL   H49727095   6.301   7.065   4.843 -0.1462  1.7419 -0.9782
   40MOL   H49827096   6.552   7.235   4.837  0.1401 -0.7576  0.5563
   40MOL   H49927097   6.396   7.277   4.923  0.4113  1.4660  0.4105
   40MOL   H50027098   6.271   7.283   4.726 -0.2820  1.0233 -3.0389
   40MOL   H50127099   6.417   7.258   4.629 -0.8859 -2.0885  0.5700
   40MOL   H50227100   6.349   7.496   4.799  2.0421  0.3697  1.4718
   40MOL   H50327101   6.503   7.476   4.746 -1.0523  1.9106 -0.4927
   40MOL   H50427102   6.383   7.615   4.593  1.1393 -0.5939 -2.3199
   40MOL   H50527103   6.236   7.510   4.603  0.2478  0.0593  0.2382
   40MOL   H50627104   6.494   7.424   4.482  0.0553  0.3283  0.0523
   40MOL   H50727105   6.339   7.356   4.443 -0.8791  0.1043  0.6741
   40MOL   H50827106   6.406   7.468   4.241 -0.6447  0.1138 -1.8279
   40MOL   H50927107   6.430   7.606   4.349  0.0861  1.3235 -2.6264
   40MOL   H51027108   6.190   7.647   4.363 -0.5935 -1.5827  0.3909
   40MOL   H51127109   6.161   7.488   4.304  1.8246 -1.7864 -0.2508
   40MOL   N51227110   6.209   0.056   4.151  0.4027  0.0603 -0.0967
   40MOL   C51327111   6.193   0.146   4.036  0.7026  0.1201 -0.5682
   40MOL   C51427112   6.324   0.156   3.950  0.3018  0.2032  0.4548
   40MOL   C51527113   6.308   0.218   3.810 -0.0079 -0.4258  0.0682
   40MOL   C51627114   6.428   0.195   3.719  0.0810 -0.5417 -0.3004
   40MOL   C51727115   6.397   0.219   3.567 -0.3686  0.6227 -0.5029
   40MOL   C51827116   6.314   0.353   3.537  0.6855  0.2363 -0.1657
   40MOL   C51927117   6.301   0.386   3.388  0.3222  0.3838  0.8237
   40MOL   C52027118   6.218   0.512   3.358  0.1344 -0.5796  0.1249
   40MOL   C52127119   6.298   0.636   3.382  1.0408 -0.1132 -0.0806
   40MOL   C52227120   6.252   0.763   3.312 -0.7759 -0.4201 -0.6923
   40MOL   C52327121   6.100   0.779   3.326  0.0387  0.0502  0.3859
   40MOL   O52427122   6.025   0.710   3.256 -0.2631 -0.1079 -0.4922
   40MOL   H52527123   6.224   0.102   4.239 -0.5037  1.3007 -0.5631
   40MOL   H52627124   6.115   0.099   3.976 -0.3303  0.5301  0.4506
   40MOL   H52727125   6.165   0.242   4.078  0.7071 -0.4001  0.6534
   40MOL   H52827126   6.373   0.059   3.935  0.6442  0.5619 -0.7817
   40MOL   H52927127   6.395   0.204   4.018  0.7838  1.7935 -1.1393
   40MOL   H53027128   6.225   0.167   3.761 -0.1615  0.9163 -1.1022
   40MOL   H53127129   6.275   0.322   3.816 -1.5768 -0.8327 -1.0935
   40MOL   H53227130   6.451   0.089   3.734  0.6712 -0.2591  0.7924
   40MOL   H53327131   6.516   0.246   3.756 -0.0136 -1.0349  0.6267
   40MOL   H53427132   6.339   0.134   3.532 -0.9650  0.8150  0.0148
   40MOL   H53527133   6.491   0.220   3.512  0.0501 -1.2411  0.1338
   40MOL   H53627134   6.221   0.353   3.593  1.0068 -0.5278  0.3783
   40MOL   H53727135   6.358   0.439   3.586 -1.0592  0.0103  1.8847
   40MOL   H53827136   6.252   0.303   3.337  1.6704 -0.3101  0.6422
   40MOL   H53927137   6.400   0.401   3.344  0.1384  0.0260  0.2826
   40MOL   H54027138   6.196   0.512   3.251 -1.3233 -0.0343  0.4203
   40MOL   H54127139   6.118   0.505   3.399  0.9777  0.0243  2.3882
   40MOL   H54227140   6.405   0.627   3.364  1.0749  1.1566 -0.5289
   40MOL   H54327141   6.278   0.656   3.488  0.9515  2.1909 -0.5076
   40MOL   H54427142   6.277   0.770   3.206 -1.8166 -2.6383 -1.0967
   40MOL   H54527143   6.297   0.852   3.357 -0.0458 -0.4511 -1.3456
   40MOL   N54627144   6.041   0.872   3.402 -0.0298 -0.1107 -0.0157
   40MOL   C54727145   5.898   0.887   3.413 -0.4318  0.1108  0.4011
   40MOL   C54827146   5.868   0.965   3.536 -0.0822  0.2060  0.2672
   40MOL   C54927147   5.720   0.971   3.578 -0.3901 -0.1381 -0.1483
   40MOL   C55027148   5.687   1.072   3.695  0.6696 -0.2597  0.3870
   40MOL   C55127149   5.536   1.081   3.724 -0.1518  0.0593 -0.1400
   40MOL   C55227150   5.491   1.184   3.828 -0.4578 -0.2659  0.0654
   40MOL   C55327151   5.504   1.127   3.976 -0.1439  0.0539 -1.3066
   40MOL   C55427152   5.490   1.240   4.071  0.3904 -0.5618 -0.6712
   40MOL   C55527153   5.478   1.191   4.224 -0.4011  0.0049  0.4090
   40MOL   C55627154   5.437   1.295   4.327  0.0228 -0.4196  0.1544
   40MOL   C55727155   5.437   1.238   4.473 -0.2336 -0.0780 -0.4099
   40MOL   O55827156   5.497   1.133   4.503  0.2210 -0.6066 -0.3201
   40MOL   H55927157   6.087   0.945   3.454  0.8772 -0.4590 -0.3297
   40MOL   H56027158   5.854   0.941   3.329  2.2780  0.6153 -0.7352
   40MOL   H56127159   5.854   0.787   3.415 -0.9806  0.3330 -0.3056
   40MOL   H56227160   5.915   1.062   3.524  0.9173 -0.2792  0.1974
   40MOL   H56327161   5.926   0.916   3.613 -0.0661  0.5178  0.4532
   40MOL   H56427162   5.657   1.001   3.494 -0.7992  0.9722  0.5437
   40MOL   H56527163   5.692   0.869   3.605 -0.6324 -0.3479 -1.1465
   40MOL   H56627164   5.732   1.168   3.667 -2.2399  0.4243 -2.3585
   40MOL   H56727165   5.742   1.042   3.783 -0.1255  1.5943  1.5515
   40MOL   H56827166   5.506   0.978   3.747  1.5690  0.0238  2.1354
   40MOL   H56927167   5.478   1.106   3.636  0.0027 -0.4890 -0.3981
   40MOL   H57027168   5.545   1.279   3.817 -1.5958  0.0454 -3.6440
   40MOL   H57127169   5.386   1.209   3.813 -0.0486  0.8652 -1.0716
   40MOL   H57227170   5.603   1.084   3.995 -0.8901 -0.8787  0.5588
   40MOL   H57327171   5.424   1.055   3.988 -0.1055  0.3113  0.5497
   40MOL   H57427172   5.562   1.322   4.067 -1.5775  1.2227 -0.1942
   40MOL   H57527173   5.397   1.292   4.050  0.2381  0.0017  1.2383
   40MOL   H57627174   5.571   1.144   4.256  0.0018 -0.3568 -1.2520
   40MOL   H57727175   5.426   1.095   4.234 -1.1721  0.4715  0.9205
   40MOL   H57827176   5.340   1.334   4.296  0.3445  1.5837  1.5501
   40MOL   H57927177   5.511   1.374   4.326  0.5928 -0.9491  0.1493
   40MOL   N58027178   5.377   1.312   4.568 -0.4660 -0.1778  0.2261
   40MOL   C58127179   5.380   1.279   4.704 -0.3947 -0.3788 -0.1203
   40MOL   C58227180   5.260   1.341   4.768  0.7974 -0.5214 -0.5940
   40MOL   C58327181   5.241   1.298   4.911  0.4358  0.5332  0.0234
   40MOL   C58427182   5.094   1.336   4.963 -0.8267  0.3424 -0.1528
   40MOL   C58527183   4.985   1.255   4.891 -0.1172  0.4627  0.0957
   40MOL   C58627184   4.845   1.278   4.961 -0.3358  0.1577  0.0225
   40MOL   C58727185   4.768   1.392   4.916  0.2403  0.5042 -0.1380
   40MOL   C58827186   4.629   1.413   4.987  0.0266  0.6232 -0.1573
   40MOL   C58927187   4.616   1.565   4.994 -0.1089  0.2658  0.5665
   40MOL   C59027188   4.493   1.618   5.063  0.3506 -0.1256 -0.5065
   40MOL   C59127189   4.479   1.578   5.211  0.3107  0.0592 -0.3126
   40MOL   O59227190   4.571   1.612   5.290  0.2625 -0.0759 -0.6605
   40MOL   H59327191   5.325   1.394   4.538  0.9718  0.6377 -0.0596
   40MOL   H59427192   5.374   1.170   4.708 -0.4662 -0.3694  0.0356
   40MOL   H59527193   5.475   1.313   4.745 -1.4376  4.3204 -1.3523
   40MOL   H59627194   5.170   1.328   4.707 -0.1658  2.6610  0.0671
   40MOL   H59727195   5.277   1.447   4.782  0.2587 -0.2837 -1.6806
   40MOL   H59827196   5.255   1.191   4.921  1.0287  0.7164  1.2682
   40MOL   H59927197   5.315   1.350   4.972  1.7750  0.8153 -1.7869
   40MOL   H60027198   5.077   1.443   4.952  0.9702  0.7754  1.0681
   40MOL   H60127199   5.096   1.319   5.070 -1.2274 -3.8444 -0.7182
   40MOL   H60227200   5.004   1.149   4.905 -0.1054  0.4125 -0.2731
   40MOL   H60327201   4.982   1.277   4.784 -0.7292 -1.0445 -0.2019
   40MOL   H60427202   4.786   1.188   4.943 -0.0599 -0.1293  0.5354
   40MOL   H60527203   4.865   1.290   5.068 -0.7799 -0.9557  0.2331
   40MOL   H60627204   4.753   1.402   4.808 -2.1244 -0.3645  0.0876
   40MOL   H60727205   4.829   1.475   4.954  0.3139  0.4821 -0.2071
   40MOL   H60827206   4.560   1.361   4.920 -1.5090  1.9864  0.3350
   40MOL   H60927207   4.625   1.364   5.085 -1.8540  1.5546  0.2603
   40MOL   H61027208   4.629   1.623   4.903 -0.6363 -1.0317 -0.3577
   40MOL   H61127209   4.693   1.609   5.057  0.2257 -0.1518  0.4532
   40MOL   H61227210   4.412   1.583   4.998  0.4925  2.2541 -2.0205
   40MOL   H61327211   4.477   1.725   5.056  0.5660 -0.2472 -3.4200
   40MOL   N61427212   4.375   1.509   5.250  0.8432  0.2544 -0.3859
   40MOL   C61527213   4.343   1.470   5.388  0.4779  1.0360 -0.7586
   40MOL   C61627214   4.384   1.320   5.419 -1.3786  0.0062 -0.8158
   40MOL   C61727215   4.346   1.276   5.563  0.0096 -0.2339  0.7767
   40MOL   C61827216   4.204   1.221   5.579  0.5887  0.0097  0.6901
   40MOL   C61927217   4.162   1.084   5.524  0.3132 -0.1755 -0.3533
   40MOL   C62027218   4.036   1.020   5.584  0.5257 -0.5356 -0.1346
   40MOL   C62127219   3.999   0.871   5.545  0.2550 -0.2818 -0.0617
   40MOL   C62227220   3.892   0.812   5.639  0.2556  0.3975  0.1197
   40MOL   C62327221   3.867   0.666   5.624 -0.2992  0.1289  0.7256
   40MOL   C62427222   3.773   0.610   5.725 -0.1105  0.5968 -0.1567
   40MOL   C62527223   3.658   0.693   5.781 -0.4100 -0.1387 -0.3183
   40MOL   O62627224   3.674   0.735   5.901  0.3043 -0.4399  0.2640
   40MOL   H62727225   4.305   1.480   5.183  1.9066  2.1509 -2.3703
   40MOL   H62827226   4.236   1.478   5.405  0.4843 -1.6049  0.8344
   40MOL   H62927227   4.393   1.545   5.448  0.4324  1.3529 -1.1169
   40MOL   H63027228   4.492   1.313   5.404 -1.5987  1.2928 -3.1490
   40MOL   H63127229   4.355   1.237   5.355  2.4973 -0.4418 -2.1128
   40MOL   H63227230   4.412   1.198   5.602  1.2152  0.3252 -0.1016
   40MOL   H63327231   4.363   1.356   5.634 -1.0807 -0.6501  1.5342
   40MOL   H63427232   4.148   1.307   5.544  1.0548  1.2795  2.9192
   40MOL   H63527233   4.178   1.229   5.685 -0.2525 -0.3577  0.5139
   40MOL   H63627234   4.248   1.019   5.543 -1.4040 -2.7762 -1.2782
   40MOL   H63727235   4.163   1.083   5.415  0.6993 -2.2337 -0.3520
   40MOL   H63827236   4.037   1.024   5.693  3.1204 -2.6815 -0.0481
   40MOL   H63927237   3.948   1.078   5.554 -0.5845 -1.8390  0.5237
   40MOL   H64027238   4.092   0.814   5.548 -1.9836 -4.0276  0.6709
   40MOL   H64127239   3.954   0.877   5.446 -1.9921 -0.5336  0.9253
   40MOL   H64227240   3.931   0.819   5.740  0.8690  1.6391 -0.1986
   40MOL   H64327241   3.804   0.877   5.638  0.2736  0.4184 -0.0659
   40MOL   H64427242   3.963   0.615   5.636 -0.5787 -0.4800  0.3565
   40MOL   H64527243   3.846   0.650   5.518 -0.6402 -0.4179  0.8751
   40MOL   H64627244   3.835   0.584   5.811  1.5031  2.5013 -0.6952
   40MOL   H64727245   3.734   0.511   5.700 -2.6065  1.1559  1.3309
   40MOL   N64827246   3.552   0.719   5.697 -0.3236 -0.3371 -0.6942
   40MOL   C64927247   3.429   0.786   5.737  0.3232 -0.2344  0.1151
   40MOL   C65027248   3.413   0.928   5.674  0.1924 -0.3999  1.2278
   40MOL   C65127249   3.509   1.038   5.727  0.1791 -0.3012  0.0040
   40MOL   C65227250   3.526   1.158   5.634  0.3085  0.0264 -0.4470
   40MOL   C65327251   3.396   1.246   5.595  0.6473  0.3005 -0.0101
   40MOL   C65427252   3.435   1.358   5.504 -0.0502  0.8863 -0.5035
   40MOL   C65527253   3.318   1.449   5.467  0.3425 -0.0102  0.3083
   40MOL   C65627254   3.351   1.570   5.390 -0.4004 -0.8329 -0.6206
   40MOL   C65727255   3.231   1.667   5.385  0.7134  0.5157 -0.2400
   40MOL   C65827256   3.109   1.623   5.316 -0.2700  0.0239  0.1339
   40MOL   C65927257   3.124   1.600   5.168 -0.3634 -0.5713 -0.3160
   40MOL   O66027258   3.203   1.667   5.100  0.4832  0.2721  0.7805
   40MOL   H66127259   3.549   0.654   5.620 -0.6462 -2.3333  0.9589
   40MOL   H66227260   3.415   0.791   5.845 -2.2972  0.8934 -0.2336
   40MOL   H66327261   3.347   0.730   5.692 -0.3758 -0.6177  1.8374
   40MOL   H66427262   3.306   0.952   5.675 -0.0075 -1.2715  1.4898
   40MOL   H66527263   3.433   0.900   5.571 -1.0632 -1.6990  1.3183
   40MOL   H66627264   3.476   1.076   5.824 -0.2469 -1.1781  0.2195
   40MOL   H66727265   3.608   0.993   5.736  0.6331  0.7611  0.3281
   40MOL   H66827266   3.577   1.118   5.546 -0.9613 -1.3734 -0.5692
   40MOL   H66927267   3.608   1.222   5.668  1.3616 -1.8443  0.5965
   40MOL   H67027268   3.343   1.288   5.681  0.7541 -0.9885  0.6825
   40MOL   H67127269   3.327   1.183   5.539  3.2878 -0.8934 -2.0136
   40MOL   H67227270   3.522   1.408   5.548 -0.1063 -0.7542  1.5473
   40MOL   H67327271   3.482   1.306   5.421 -1.0393  0.4269 -0.7774
   40MOL   H67427272   3.254   1.467   5.553 -2.3561  1.5547 -1.9534
   40MOL   H67527273   3.268   1.382   5.397 -1.4140  0.5735  0.9849
   40MOL   H67627274   3.433   1.624   5.437 -0.4418 -0.6770 -0.7276
   40MOL   H67727275   3.389   1.548   5.290 -0.5374 -1.4945 -0.5269
   40MOL   H67827276   3.266   1.764   5.350  0.4447  1.3747  1.8203
   40MOL   H67927277   3.194   1.699   5.482  0.5043  2.2517 -0.8694
   40MOL   H68027278   3.037   1.703   5.335 -1.4036 -0.6895 -1.0003
   40MOL   H68127279   3.079   1.536   5.375  2.1075 -1.4733 -0.8252
   40MOL   H68227280   3.060   1.521   5.128 -2.7227  0.6503  0.9733
   41MOL     N127281   2.734   4.961   7.614  0.0241  0.1335 -0.2767
   41MOL     C227282   2.781   5.006   7.485 -0.9740 -0.4678 -0.3870
   41MOL     C327283   2.693   5.094   7.407  0.0904 -0.5385  0.0327
   41MOL     C427284   2.693   5.240   7.477 -0.2090 -0.0177 -0.4864
   41MOL     C527285   2.622   5.345   7.388  0.2328  0.0165  0.0064
   41MOL     C627286   2.578   5.460   7.475  0.6894 -0.5586  0.5286
   41MOL     C727287   2.484   5.565   7.412 -0.6489  0.6241 -0.2612
   41MOL     C827288   2.456   5.686   7.507  0.6913  0.1185  0.5478
   41MOL     C927289   2.388   5.657   7.641  1.5088 -0.1853  0.2608
   41MOL    C1027290   2.380   5.767   0.025 -0.3864  0.1948 -0.4026
   41MOL    C1127291   2.302   5.738   0.151  0.4517  0.0045  0.1259
   41MOL    C1227292   2.374   5.631   0.243 -0.3061 -0.5840 -0.5162
   41MOL    O1327293   2.355   5.510   0.230 -0.3676  0.2317 -0.3288
   41MOL    H1427294   2.660   4.893   7.611  0.3545 -0.2089 -0.8194
   41MOL    H1527295   2.795   4.917   7.423 -1.2799 -1.9010  1.5448
   41MOL    H1627296   2.870   5.067   7.502 -1.2382 -0.4335  0.9719
   41MOL    H1727297   2.589   5.060   7.411 -0.1351  0.0824 -0.4116
   41MOL    H1827298   2.730   5.114   7.307  1.1482 -2.3059  0.0533
   41MOL    H1927299   2.643   5.236   7.573 -1.0264 -0.0639 -0.9038
   41MOL    H2027300   2.791   5.273   7.510  0.8439 -2.7540 -0.7410
   41MOL    H2127301   2.538   5.296   7.340 -0.6618 -0.2069  1.7660
   41MOL    H2227302   2.683   5.372   7.301 -1.7882  1.3006 -1.0432
   41MOL    H2327303   2.662   5.526   7.495 -1.3091  2.2883 -0.1202
   41MOL    H2427304   2.558   5.426   7.577 -1.5661  2.3814  1.1580
   41MOL    H2527305   2.540   5.600   7.325  0.7130 -0.0801  0.3177
   41MOL    H2627306   2.388   5.520   7.390 -0.0291  0.1827 -2.1245
   41MOL    H2727307   2.384   5.756   7.464  3.8171  1.7717 -2.2389
   41MOL    H2827308   2.541   5.753   7.520  1.1895 -0.6646  1.3606
   41MOL    H2927309   2.285   5.629   7.618  0.9049  0.6998  1.7798
   41MOL    H3027310   2.434   5.570   7.688  0.4141 -2.5903 -2.9313
   41MOL    H3127311   2.329   5.848   7.689  0.5246  0.8967 -0.2176
   41MOL    H3227312   2.481   5.800   0.049 -0.0741  0.8451 -2.4707
   41MOL    H3327313   2.201   5.705   0.127  0.4670 -1.3745  1.8445
   41MOL    H3427314   2.276   5.828   0.208  0.2217 -0.5021  0.8334
   41MOL    H3527315   2.805   4.927   7.677 -0.5854  2.1566  1.5656
   41MOL    N3627316   2.469   5.678   0.328  0.3468  0.2584  0.2607
   41MOL    C3727317   2.557   5.589   0.401  0.8474 -0.6113  0.3573
   41MOL    C3827318   2.502   5.545   0.539 -0.0465  0.2043  0.4962
   41MOL    C3927319   2.590   5.457   0.628 -0.4324 -0.2257  0.0710
   41MOL    C4027320   2.690   5.543   0.714  0.3666  0.4198  0.3527
   41MOL    C4127321   2.783   5.457   0.798  0.4237  0.5324  0.4606
   41MOL    C4227322   2.871   5.552   0.885 -0.3276  0.1914  0.5599
   41MOL    C4327323   3.003   5.590   0.811 -0.2549 -0.5366  0.7006
   41MOL    C4427324   3.099   5.680   0.890  0.2055  0.2021 -0.3507
   41MOL    C4527325   3.213   5.729   0.801  0.5328  0.3239  0.9028
   41MOL    C4627326   3.314   5.812   0.876 -0.8377 -0.4916 -0.1555
   41MOL    C4727327   3.383   5.739   0.985 -0.2957 -0.2859 -0.2312
   41MOL    O4827328   3.356   5.624   1.018 -0.1203  0.0524 -0.0935
   41MOL    H4927329   2.486   5.778   0.324 -0.7053  0.4173 -0.6132
   41MOL    H5027330   2.572   5.497   0.344 -4.1271 -1.2162 -0.2050
   41MOL    H5127331   2.658   5.631   0.405  1.2178 -1.6755  3.9453
   41MOL    H5227332   2.401   5.504   0.539 -0.3902  1.0214  1.5335
   41MOL    H5327333   2.492   5.638   0.595 -1.5935  1.0651 -1.1586
   41MOL    H5427334   2.521   5.397   0.688 -0.2765 -2.1752 -1.6582
   41MOL    H5527335   2.642   5.388   0.562 -0.2918  0.1308 -0.1907
   41MOL    H5627336   2.631   5.605   0.782 -0.1847 -1.3109  1.4872
   41MOL    H5727337   2.754   5.603   0.649 -0.0816 -0.1957 -0.6704
   41MOL    H5827338   2.851   5.402   0.732  0.3085  3.1072 -1.8833
   41MOL    H5927339   2.739   5.388   0.870  0.3626  1.9199  1.7660
   41MOL    H6027340   2.815   5.641   0.913  0.5487  0.1951  2.3657
   41MOL    H6127341   2.874   5.494   0.977  0.9207 -0.1175  0.3404
   41MOL    H6227342   2.989   5.640   0.715 -0.2809 -1.4292  0.2313
   41MOL    H6327343   3.059   5.506   0.770 -0.8673 -0.3689 -0.5285
   41MOL    H6427344   3.051   5.766   0.936  1.7757  0.3908  0.9536
   41MOL    H6527345   3.126   5.637   0.986 -0.6104  3.4084  1.4064
   41MOL    H6627346   3.187   5.794   0.717 -0.2460 -0.8102  0.2613
   41MOL    H6727347   3.255   5.636   0.762  0.2766  0.3792  0.4873
   41MOL    H6827348   3.258   5.894   0.921  0.5336 -0.5702  1.7244
   41MOL    H6927349   3.387   5.854   0.807 -1.8687  2.5073  0.4809
   41MOL    N7027350   3.472   5.804   1.052 -0.1576 -0.0539 -0.4507
   41MOL    C7127351   3.552   5.757   1.166 -0.5487 -0.3343  0.3129
   41MOL    C7227352   3.692   5.824   1.165 -0.6856  0.1508  0.1091
   41MOL    C7327353   3.703   5.973   1.201 -0.3183 -0.5085  0.2761
   41MOL    C7427354   3.845   6.039   1.175  0.3210  0.3065  0.5973
   41MOL    C7527355   3.942   5.989   1.282 -0.3241  0.2505  0.2827
   41MOL    C7627356   4.075   6.053   1.271 -0.3242 -0.3392 -0.5020
   41MOL    C7727357   4.171   6.001   1.380  0.4413  0.4861 -0.4902
   41MOL    C7827358   4.212   5.852   1.358 -0.6481  0.0806 -0.2581
   41MOL    C7927359   4.276   5.797   1.485  0.0660  0.0943  0.0791
   41MOL    C8027360   4.382   5.882   1.548 -0.0335 -0.4729 -0.2796
   41MOL    C8127361   4.498   5.942   1.457  0.3209 -0.2864 -0.2545
   41MOL    O8227362   4.566   5.865   1.394 -0.0710  0.2804 -0.0037
   41MOL    H8327363   3.508   5.887   1.007  0.9008 -0.6062 -0.6359
   41MOL    H8427364   3.503   5.775   1.262  1.9696 -0.0926  1.5924
   41MOL    H8527365   3.563   5.649   1.158 -0.0378 -0.2703  0.0990
   41MOL    H8627366   3.733   5.808   1.065  0.3995  0.5737  0.4899
   41MOL    H8727367   3.762   5.768   1.227  2.3113  1.5657 -1.8741
   41MOL    H8827368   3.624   6.029   1.153 -1.0429 -2.2301 -0.5769
   41MOL    H8927369   3.672   5.989   1.305  1.1443 -0.4179  0.7142
   41MOL    H9027370   3.848   6.148   1.179  0.5107  0.2740  1.6290
   41MOL    H9127371   3.868   6.000   1.076  0.9353 -2.9035  1.9402
   41MOL    H9227372   3.947   5.880   1.275  0.5984  0.1630  1.9630
   41MOL    H9327373   3.899   6.019   1.377  2.1039  1.5599  1.0250
   41MOL    H9427374   4.129   6.026   1.181 -0.6757  0.0775 -0.8387
   41MOL    H9527375   4.063   6.161   1.282  1.2462 -0.1651 -0.3562
   41MOL    H9627376   4.127   6.031   1.475  0.0882 -2.1734  0.1986
   41MOL    H9727377   4.251   6.071   1.353 -1.8676  2.6626 -1.9220
   41MOL    H9827378   4.125   5.788   1.341 -0.1990 -1.2909  2.3517
   41MOL    H9927379   4.269   5.845   1.265 -4.0042  2.4722 -2.5899
   41MOL   H10027380   4.329   5.702   1.471 -1.3887 -0.5017 -1.5581
   41MOL   H10127381   4.207   5.765   1.562 -0.2896 -1.9230 -1.0267
   41MOL   H10227382   4.430   5.820   1.624 -0.6743 -0.3251  0.2527
   41MOL   H10327383   4.332   5.964   1.599 -0.9217 -0.1764 -1.6072
   41MOL   N10427384   4.504   6.074   1.441  0.2799  0.4281  0.2942
   41MOL   C10527385   4.568   6.134   1.327  0.3949  0.2437  0.0836
   41MOL   C10627386   4.537   6.281   1.329 -0.4210  0.4071 -0.2688
   41MOL   C10727387   4.606   6.365   1.439 -0.1000 -0.3516  0.6496
   41MOL   C10827388   4.544   6.505   1.451  0.2294  0.2333 -0.6543
   41MOL   C10927389   4.620   6.587   1.550 -0.8479  0.6513 -0.5364
   41MOL   C11027390   4.600   6.554   1.703  1.1424 -0.3931 -0.3848
   41MOL   C11127391   4.663   6.642   1.808  0.3036  0.1875 -0.0783
   41MOL   C11227392   4.603   6.781   1.832  0.2374  0.5394  0.7083
   41MOL   C11327393   4.682   6.861   1.943 -1.1343  0.7495  0.4268
   41MOL   C11427394   4.642   7.013   1.965  0.0635 -0.1918 -0.4562
   41MOL   C11527395   4.677   7.100   1.847 -0.7017 -0.0497  0.5519
   41MOL   O11627396   4.788   7.086   1.793  0.0096 -0.0375 -0.3389
   41MOL   H11727397   4.439   6.126   1.498 -0.5255 -1.7746  1.4293
   41MOL   H11827398   4.672   6.104   1.336 -0.0746 -1.6042 -0.4299
   41MOL   H11927399   4.542   6.092   1.230  0.4312 -0.9884  0.5957
   41MOL   H12027400   4.429   6.286   1.342 -0.5938  1.6602 -1.9757
   41MOL   H12127401   4.564   6.334   1.237 -0.3991 -2.0834 -1.7644
   41MOL   H12227402   4.589   6.310   1.532 -2.7983 -0.8624 -0.1315
   41MOL   H12327403   4.714   6.372   1.425 -0.3572  3.0150 -0.0608
   41MOL   H12427404   4.436   6.504   1.468  0.3187 -0.1483 -0.1084
   41MOL   H12527405   4.550   6.555   1.354  0.0244  0.1153 -0.7287
   41MOL   H12627406   4.589   6.691   1.539  0.6429  1.4614  2.1697
   41MOL   H12727407   4.727   6.593   1.530 -0.9487 -1.3720 -1.7630
   41MOL   H12827408   4.495   6.559   1.731  1.4396  0.1029  0.6426
   41MOL   H12927409   4.634   6.454   1.730  1.3739 -0.0989  0.4171
   41MOL   H13027410   4.771   6.645   1.794  0.4891 -2.1384  0.5872
   41MOL   H13127411   4.639   6.593   1.903 -1.0392  0.7221 -0.1260
   41MOL   H13227412   4.602   6.833   1.736 -1.2799 -0.7304  0.0096
   41MOL   H13327413   4.500   6.787   1.867  0.3598  1.0064  0.9899
   41MOL   H13427414   4.787   6.860   1.915 -0.8296 -0.2644  1.5433
   41MOL   H13527415   4.664   6.811   2.038 -0.1181  2.1413  1.3728
   41MOL   H13627416   4.686   7.050   2.057  2.2552 -0.1861 -1.4570
   41MOL   H13727417   4.534   7.013   1.979 -0.6703  1.2797 -5.2228
   41MOL   N13827418   4.577   7.169   1.798 -0.0154  0.1408  0.4720
   41MOL   C13927419   4.589   7.257   1.686 -0.2228  0.5734  0.1502
   41MOL   C14027420   4.456   7.338   1.652  0.0298 -0.2203 -0.4635
   41MOL   C14127421   4.471   7.446   1.550 -0.4969  0.4082 -0.9282
   41MOL   C14227422   4.482   7.403   1.406  0.1239  0.3163  0.4487
   41MOL   C14327423   4.495   7.521   1.309 -0.3261 -0.4710 -0.1979
   41MOL   C14427424   4.492   7.480   1.164  0.3180  0.2272 -0.3752
   41MOL   C14527425   4.455   7.592   1.064  0.2111  0.6578 -0.7860
   41MOL   C14627426   4.548   7.595   0.947 -0.6870  0.1338 -0.6621
   41MOL   C14727427   4.491   7.680   0.839 -0.2795 -0.0913 -0.0981
   41MOL   C14827428   4.574   7.693   0.708 -0.4783 -0.2979 -0.6254
   41MOL   C14927429   4.597   7.570   0.630  0.3891 -0.6670 -0.6320
   41MOL   O15027430   4.507   7.489   0.633  0.1611  0.1176  0.3074
   41MOL   H15127431   4.491   7.183   1.850 -0.1480  2.3539 -0.2679
   41MOL   H15227432   4.671   7.318   1.721  0.1510  0.4422 -0.4926
   41MOL   H15327433   4.622   7.206   1.596 -0.7264 -0.5208  0.5709
   41MOL   H15427434   4.423   7.385   1.744 -1.8380 -1.7624 -0.3203
   41MOL   H15527435   4.369   7.278   1.627 -0.3649  0.2161 -0.1366
   41MOL   H15627436   4.389   7.516   1.569  1.1989  1.8996  1.0971
   41MOL   H15727437   4.559   7.508   1.567  1.1866 -2.0188 -0.6036
   41MOL   H15827438   4.389   7.356   1.373  0.4665  0.9385 -1.4562
   41MOL   H15927439   4.563   7.334   1.387  0.6368  1.8499 -3.3568
   41MOL   H16027440   4.580   7.586   1.329 -2.2030  1.6100  1.2086
   41MOL   H16127441   4.409   7.584   1.329 -2.2496 -3.5538  1.6330
   41MOL   H16227442   4.581   7.425   1.132  1.9252  2.2440  0.5224
   41MOL   H16327443   4.418   7.403   1.141  0.4828  0.3630 -1.3751
   41MOL   H16427444   4.473   7.694   1.100 -0.4688 -0.0284  1.5754
   41MOL   H16527445   4.351   7.591   1.031  0.3620  2.0539 -1.3526
   41MOL   H16627446   4.647   7.631   0.976 -0.4825 -0.8400 -0.1196
   41MOL   H16727447   4.565   7.494   0.909 -1.5489  0.6620 -2.4844
   41MOL   H16827448   4.479   0.066   0.878  0.7895  0.1206 -0.3164
   41MOL   H16927449   4.386   7.656   0.819 -0.8233  1.1629  1.1700
   41MOL   H17027450   4.671   0.022   0.730 -0.9695  0.5463 -0.1683
   41MOL   H17127451   4.527   0.043   0.634 -0.1455 -1.3753 -1.8277
   41MOL   N17227452   4.711   7.550   0.558  0.2218  0.2961 -0.1742
   41MOL   C17327453   4.732   7.434   0.469  0.7982  0.0034 -0.0729
   41MOL   C17427454   4.848   7.339   0.513  0.0318 -0.5326 -0.1630
   41MOL   C17527455   4.817   7.202   0.465 -0.1803 -1.0370 -0.7671
   41MOL   C17627456   4.714   7.130   0.539  0.7501 -0.2025 -0.4150
   41MOL   C17727457   4.645   7.004   0.473  0.7301 -0.2448  0.2003
   41MOL   C17827458   4.552   6.931   0.569 -0.6063  0.6007 -0.6999
   41MOL   C17927459   4.446   6.843   0.498 -0.2297 -0.5464  0.7668
   41MOL   C18027460   4.357   6.776   0.595  0.6958 -0.7095 -0.2935
   41MOL   C18127461   4.254   6.684   0.520 -0.0275 -0.2666  0.2409
   41MOL   C18227462   4.313   6.562   0.439  0.0125 -0.3892 -0.2600
   41MOL   C18327463   4.357   6.459   0.544 -0.3914  0.2061 -0.1416
   41MOL   O18427464   4.303   6.447   0.655 -0.5778 -0.1076 -0.2681
   41MOL   H18527465   4.786   7.617   0.558 -0.9670  1.6852 -2.7429
   41MOL   H18627466   4.634   7.387   0.462  0.5691  0.6236 -1.1110
   41MOL   H18727467   4.756   7.467   0.368  2.1068  1.0480  0.5596
   41MOL   H18827468   4.857   7.333   0.621 -1.9970  0.6316  0.0855
   41MOL   H18927469   4.945   7.366   0.471  0.5267  0.1869  1.4324
   41MOL   H19027470   4.796   7.219   0.359 -1.9307  0.3420 -0.2127
   41MOL   H19127471   4.900   7.132   0.474 -0.3704 -1.0436  1.0200
   41MOL   H19227472   4.624   7.191   0.551  0.2641 -0.6866 -1.5016
   41MOL   H19327473   4.749   7.107   0.640 -1.0657  0.1053  0.3066
   41MOL   H19427474   4.720   6.939   0.430  0.4323 -0.6773  0.3257
   41MOL   H19527475   4.578   7.040   0.396 -0.3161 -0.5971  0.9311
   41MOL   H19627476   4.602   6.875   0.648 -1.7556 -0.2280 -0.5455
   41MOL   H19727477   4.498   7.005   0.627  1.8583  2.5567 -0.8063
   41MOL   H19827478   4.503   6.772   0.439  1.1498 -0.7872  2.3424
   41MOL   H19927479   4.387   6.910   0.435  1.5244  1.1259  0.8674
   41MOL   H20027480   4.407   6.706   0.663 -1.4544 -0.1873  1.9259
   41MOL   H20127481   4.318   6.860   0.653 -1.9494 -1.8676 -0.2866
   41MOL   H20227482   4.209   6.747   0.444 -0.8440  0.5514  1.3938
   41MOL   H20327483   4.168   6.658   0.582 -0.6267  1.5107  0.1881
   41MOL   H20427484   4.403   6.578   0.379  1.2441  0.0396  1.6493
   41MOL   H20527485   4.250   6.507   0.368 -0.0511  0.0555 -0.5463
   41MOL   N20627486   4.459   6.378   0.511 -0.0312 -0.1053 -0.3979
   41MOL   C20727487   4.492   6.247   0.570 -0.1444  0.4146 -0.8516
   41MOL   C20827488   4.630   6.205   0.541 -0.2745  0.2140 -0.4190
   41MOL   C20927489   4.656   6.199   0.390 -0.1975 -0.2537 -0.2433
   41MOL   C21027490   4.793   6.150   0.353 -0.2481 -0.0159  0.6785
   41MOL   C21127491   4.792   6.095   0.209 -0.5804 -0.1637  0.9172
   41MOL   C21227492   4.734   6.185   0.090  0.9257  0.3138 -0.5333
   41MOL   C21327493   4.707   6.097   7.679  0.1360 -0.4954  0.0339
   41MOL   C21427494   4.650   6.175   7.556  0.1771  0.0070 -0.2936
   41MOL   C21527495   4.598   6.094   7.438  0.0183 -0.2301 -0.4861
   41MOL   C21627496   4.705   6.028   7.353 -0.2721 -0.5077 -0.4043
   41MOL   C21727497   4.644   5.948   7.242 -0.6272 -0.2508 -0.0192
   41MOL   O21827498   4.530   5.909   7.247 -0.4119  0.1186 -0.1649
   41MOL   H21927499   4.517   6.416   0.438  1.0016 -1.0342 -0.0735
   41MOL   H22027500   4.420   6.169   0.547  0.8400  0.1980 -3.2697
   41MOL   H22127501   4.471   6.259   0.677  1.8311 -0.8992 -0.2895
   41MOL   H22227502   4.650   6.112   0.594 -1.8239 -0.8365 -1.6147
   41MOL   H22327503   4.695   6.275   0.593  1.9065  0.0475 -2.7943
   41MOL   H22427504   4.586   6.138   0.332 -2.2942  1.5679  0.3349
   41MOL   H22527505   4.632   6.294   0.343  0.8842  0.8117  1.3041
   41MOL   H22627506   4.833   6.078   0.424 -1.0761  0.7489  1.9488
   41MOL   H22727507   4.860   6.234   0.369  0.2255  0.5279 -3.5804
   41MOL   H22827508   4.723   6.010   0.208  0.6177 -1.1413 -0.5600
   41MOL   H22927509   4.891   6.057   0.184 -0.2590  0.3365  1.4223
   41MOL   H23027510   4.635   6.219   0.118  0.3111 -1.4121 -0.5341
   41MOL   H23127511   4.800   6.271   0.082  1.5704 -0.1365 -0.0859
   41MOL   H23227512   4.642   6.014   7.705 -0.9294 -0.9967 -3.8385
   41MOL   H23327513   4.796   6.044   7.644  1.4858  0.3922  2.0809
   41MOL   H23427514   4.556   6.223   7.583 -0.1905 -1.2165  0.6643
   41MOL   H23527515   4.708   6.259   7.519  2.1698 -0.4404  1.7030
   41MOL   H23627516   4.538   6.168   7.384  0.0716  1.6523  1.9858
   41MOL   H23727517   4.534   6.012   7.471 -0.1680 -0.4433 -1.3705
   41MOL   H23827518   4.770   5.967   7.416 -2.4998 -0.1745  2.2883
   41MOL   H23927519   4.753   6.117   7.312 -0.8523  0.9072  1.8930
   41MOL   N24027520   4.725   5.914   7.139  0.1814 -0.2641 -0.2009
   41MOL   C24127521   4.682   5.846   7.013  0.1741 -0.0432 -0.3585
   41MOL   C24227522   4.786   5.875   6.901  0.2395 -0.0646 -0.4618
   41MOL   C24327523   4.925   5.800   6.905  0.0809 -0.5953  0.0546
   41MOL   C24427524   5.017   5.841   6.787 -0.1263 -0.3174  0.2931
   41MOL   C24527525   4.976   5.810   6.646 -0.0834 -0.2745  0.1643
   41MOL   C24627526   5.055   5.872   6.532  0.3235  0.2372  0.9798
   41MOL   C24727527   4.996   5.858   6.390 -0.2539 -0.2851  0.1673
   41MOL   C24827528   5.093   5.875   6.274 -0.3213 -0.2663 -0.2110
   41MOL   C24927529   5.029   5.839   6.139  0.6109 -0.2167 -0.9069
   41MOL   C25027530   5.124   5.857   6.017  0.6160 -0.1630 -0.1460
   41MOL   C25127531   5.244   5.768   6.020  0.7030  0.5302  0.3097
   41MOL   O25227532   5.225   5.643   6.027  0.1760  0.5070 -0.5772
   41MOL   H25327533   4.825   5.925   7.150  0.4156  0.6343 -2.9420
   41MOL   H25427534   4.579   5.863   6.981 -0.2961 -3.4599 -0.8733
   41MOL   H25527535   4.686   5.738   7.027  0.7023 -0.1873 -1.5069
   41MOL   H25627536   4.795   5.983   6.896  1.0761 -0.2010 -2.2027
   41MOL   H25727537   4.742   5.852   6.804  0.6792 -0.2506 -0.6179
   41MOL   H25827538   4.972   5.819   7.001  3.0933 -0.5432 -1.3637
   41MOL   H25927539   4.904   5.693   6.893 -2.7597 -0.3503  2.3031
   41MOL   H26027540   5.117   5.799   6.796 -0.3477 -0.8029  0.5460
   41MOL   H26127541   5.032   5.948   6.797  0.2500 -0.3646  0.2291
   41MOL   H26227542   4.878   5.853   6.626  0.2655  0.5309  0.1882
   41MOL   H26327543   4.972   5.701   6.643 -1.9754 -0.1817 -1.6861
   41MOL   H26427544   5.078   5.978   6.543  0.2727  0.2195  1.2627
   41MOL   H26527545   5.155   5.828   6.539 -0.1892 -0.9814  0.8063
   41MOL   H26627546   4.914   5.928   6.381  0.9405  1.4697  2.4243
   41MOL   H26727547   4.967   5.754   6.374 -1.1266  0.2089 -1.6594
   41MOL   H26827548   5.132   5.977   6.267 -1.0228 -0.1591 -3.3670
   41MOL   H26927549   5.179   5.807   6.282  1.5477  1.4475 -4.1836
   41MOL   H27027550   4.942   5.905   6.128 -0.5178 -1.3535  0.9358
   41MOL   H27127551   4.983   5.741   6.131 -0.5178  0.2803 -0.6549
   41MOL   H27227552   5.151   5.963   6.017  0.3275 -0.0870 -0.7551
   41MOL   H27327553   5.078   5.848   5.918  0.3561 -2.0939  0.1409
   41MOL   N27427554   5.365   5.821   5.994 -0.6954  0.2729 -0.1090
   41MOL   C27527555   5.473   5.736   5.950 -0.7710 -0.1193  0.0915
   41MOL   C27627556   5.616   5.795   5.991  0.4919 -0.2702  0.3268
   41MOL   C27727557   5.673   5.922   5.937  0.2546  0.4002 -0.1283
   41MOL   C27827558   5.605   6.048   5.991  0.3679  0.5782 -0.5185
   41MOL   C27927559   5.600   6.053   6.142 -0.2673  0.5365 -0.5105
   41MOL   C28027560   5.526   6.174   6.200  0.5597  0.0725 -0.2365
   41MOL   C28127561   5.475   6.151   6.344  0.5113  0.3302  0.3223
   41MOL   C28227562   5.364   6.248   6.377  0.4428 -0.1152  0.5455
   41MOL   C28327563   5.317   6.226   6.518 -0.5537  0.4582  0.5419
   41MOL   C28427564   5.202   6.321   6.568 -0.0599 -0.0667 -0.1057
   41MOL   C28527565   5.189   6.315   6.718 -0.0513  0.2662 -0.1720
   41MOL   O28627566   5.160   6.206   6.764 -0.0207  0.0665  0.2134
   41MOL   H28727567   5.382   5.921   5.996 -0.6788  0.2429  1.8138
   41MOL   H28827568   5.458   5.723   5.843  0.2277 -0.6958  0.0081
   41MOL   H28927569   5.462   5.636   5.993  3.6146 -0.5082  0.5985
   41MOL   H29027570   5.688   5.720   5.958  1.0225  0.5127 -0.2948
   41MOL   H29127571   5.625   5.791   6.100 -2.8451 -0.6866  0.6452
   41MOL   H29227572   5.779   5.929   5.963  0.1204  0.2449  0.4745
   41MOL   H29327573   5.675   5.928   5.829  0.1544 -1.6305 -0.2522
   41MOL   H29427574   5.510   6.064   5.940  1.3939  1.1353 -2.2988
   41MOL   H29527575   5.664   6.135   5.961  0.7011  0.0638 -1.3669
   41MOL   H29627576   5.698   6.034   6.184 -1.1226  1.9451  2.2588
   41MOL   H29727577   5.556   5.961   6.181  0.7026  1.0841  2.0294
   41MOL   H29827578   5.578   6.269   6.189 -1.0237  1.3224  2.7078
   41MOL   H29927579   5.438   6.173   6.136  1.4036  1.4244 -1.4486
   41MOL   H30027580   5.551   6.165   6.421 -0.0342  0.5268  0.8312
   41MOL   H30127581   5.431   6.051   6.345  1.7220 -0.2120  0.8561
   41MOL   H30227582   5.411   6.346   6.367  0.0797 -0.0963 -1.1976
   41MOL   H30327583   5.287   6.237   6.300 -0.8856 -0.0460  1.8453
   41MOL   H30427584   5.397   6.236   6.591 -0.8609  0.8989  0.8203
   41MOL   H30527585   5.274   6.127   6.533 -1.0977  0.4734 -0.8467
   41MOL   H30627586   5.115   6.280   6.516 -0.6630 -1.0401  1.6623
   41MOL   H30727587   5.214   6.425   6.537 -0.5841  0.0513  0.0799
   41MOL   N30827588   5.217   6.422   6.792  0.3320 -0.0042  0.1958
   41MOL   C30927589   5.182   6.450   6.929 -0.9257  0.3150 -0.0244
   41MOL   C31027590   5.274   6.562   6.981 -0.7825 -0.6098  0.5139
   41MOL   C31127591   5.240   6.614   7.124  0.7029 -0.5091 -0.3006
   41MOL   C31227592   5.358   6.710   7.152 -0.4802  0.3159 -0.4148
   41MOL   C31327593   5.373   6.744   7.301 -0.7373 -0.1345 -0.5152
   41MOL   C31427594   5.492   6.828   7.341  0.7520 -1.1343  0.0006
   41MOL   C31527595   5.496   6.860   7.496 -0.3578  0.0997 -0.0900
   41MOL   C31627596   5.398   6.976   7.537  0.0259  0.1021  0.2981
   41MOL   C31727597   5.457   7.108   7.507  0.3949  0.2089  0.1982
   41MOL   C31827598   5.368   7.231   7.551 -0.3765 -0.2615  0.2928
   41MOL   C31927599   5.261   7.268   7.460  0.4497 -0.9658 -0.2042
   41MOL   O32027600   5.287   7.291   7.340  0.3605  0.0258 -0.6144
   41MOL   H32127601   5.257   6.495   6.736  0.6586 -0.8258 -0.6580
   41MOL   H32227602   5.193   6.374   7.007 -0.8500  2.4187  2.0741
   41MOL   H32327603   5.076   6.472   6.943 -0.5893  0.4389  2.6124
   41MOL   H32427604   5.269   6.646   6.912 -0.6246  0.3096  1.6001
   41MOL   H32527605   5.376   6.523   6.975 -0.9534 -0.9071 -0.5632
   41MOL   H32627606   5.142   6.661   7.133  0.5021 -0.9479 -0.1298
   41MOL   H32727607   5.241   6.535   7.200  0.5288 -0.6226 -0.4148
   41MOL   H32827608   5.358   6.802   7.093 -0.6684  1.6180  1.5930
   41MOL   H32927609   5.456   6.679   7.116 -0.4023  0.4868 -0.3535
   41MOL   H33027610   5.382   6.651   7.357  2.9611  1.0904  1.0844
   41MOL   H33127611   5.277   6.789   7.328 -0.8825 -0.8118  0.1361
   41MOL   H33227612   5.586   6.776   7.323  0.7382 -2.0829  2.4060
   41MOL   H33327613   5.500   6.922   7.288  2.1791 -0.4871  1.3244
   41MOL   H33427614   5.601   6.879   7.517 -0.4451  0.3202  0.1424
   41MOL   H33527615   5.471   6.768   7.550  1.6289 -0.5718 -0.2996
   41MOL   H33627616   5.304   6.956   7.486  0.8030  1.8245 -1.8766
   41MOL   H33727617   5.372   6.973   7.643  0.5257 -1.0465  0.3957
   41MOL   H33827618   5.485   7.124   7.402 -0.2735  0.6943  0.0890
   41MOL   H33927619   5.549   7.128   7.562 -1.1263  2.5695  2.0252
   41MOL   H34027620   5.436   7.316   7.558 -1.2464  0.4302  0.4584
   41MOL   H34127621   5.324   7.207   7.648  0.5715 -2.4540  0.2102
   41MOL   N34227622   5.142   7.280   7.512 -0.6810  0.0032 -0.6096
   41MOL   C34327623   5.022   7.317   7.431  0.6521  0.2828 -0.0128
   41MOL   C34427624   4.956   7.195   7.369 -0.3799  0.2945  0.0940
   41MOL   C34527625   4.804   7.216   7.356  0.0662 -0.6158 -0.3357
   41MOL   C34627626   4.745   7.096   7.279 -0.9384  0.3347  0.3509
   41MOL   C34727627   4.593   7.072   7.306  0.2149  0.1565  0.1951
   41MOL   C34827628   4.517   6.976   7.205 -0.3974  0.8724  0.0036
   41MOL   C34927629   4.383   6.925   7.254 -0.4828 -0.2506 -0.9277
   41MOL   C35027630   4.317   6.837   7.150  0.3261 -0.3619  0.0365
   41MOL   C35127631   4.217   6.746   7.225  0.0690 -0.3945  0.0184
   41MOL   C35227632   4.095   6.817   7.300  0.0795 -0.4329 -0.5231
   41MOL   C35327633   3.989   6.886   7.216  0.2536 -0.2923 -0.1036
   41MOL   O35427634   3.990   6.888   7.093  0.1806  0.3970 -0.6097
   41MOL   H35527635   5.126   7.274   7.611 -0.3174 -0.1873 -0.5607
   41MOL   H35627636   4.952   7.371   7.495  2.8645  2.2958  0.8177
   41MOL   H35727637   5.029   7.398   7.359  0.4171 -0.2740 -0.6589
   41MOL   H35827638   4.978   7.101   7.419 -0.5016 -0.7745 -1.7775
   41MOL   H35927639   5.001   7.174   7.271  0.0018  0.1598  0.2975
   41MOL   H36027640   4.749   7.225   7.451 -1.5776  1.2875 -1.4270
   41MOL   H36127641   4.780   7.299   7.291  0.4010 -0.4692 -0.2698
   41MOL   H36227642   4.799   7.006   7.306 -0.4982  0.6922  0.6571
   41MOL   H36327643   4.760   7.102   7.171 -1.0577 -1.3915  0.2321
   41MOL   H36427644   4.540   7.167   7.312 -0.7832 -0.3088 -0.9808
   41MOL   H36527645   4.580   7.023   7.402  1.0097 -2.9689 -1.2211
   41MOL   H36627646   4.506   7.040   7.118  0.6081 -0.8873 -1.4440
   41MOL   H36727647   4.584   6.894   7.178  0.5226  2.2624 -2.0040
   41MOL   H36827648   4.328   7.016   7.279  1.0272  0.7198 -1.0632
   41MOL   H36927649   4.394   6.876   7.351 -1.0960 -0.5225 -0.9941
   41MOL   H37027650   4.273   6.896   7.070  0.4726  1.2876  1.1426
   41MOL   H37127651   4.395   6.771   7.112 -0.1209 -1.9304  1.7453
   41MOL   H37227652   4.280   6.694   7.297  1.0906  0.3250 -0.3293
   41MOL   H37327653   4.183   6.667   7.159  1.8438 -1.9782  0.9555
   41MOL   H37427654   4.151   6.894   7.353 -1.5410  0.6464 -0.3601
   41MOL   H37527655   4.049   6.760   7.381 -0.1864  0.7194  0.1418
   41MOL   N37627656   3.885   6.952   7.282 -0.0147  0.0052  0.0681
   41MOL   C37727657   3.778   7.018   7.215 -0.2612 -1.0503 -0.3010
   41MOL   C37827658   3.786   7.170   7.243  0.5319 -0.1523 -0.0172
   41MOL   C37927659   3.672   7.262   7.180  0.0407 -0.2422 -0.1851
   41MOL   C38027660   3.635   7.387   7.265 -0.5820 -0.4450  0.4603
   41MOL   C38127661   3.537   7.483   7.192  1.0889  0.3764 -0.2580
   41MOL   C38227662   3.603   7.589   7.098  0.7972 -0.0176  0.0889
   41MOL   C38327663   3.701   7.536   6.995  0.3651 -0.3674 -0.0119
   41MOL   C38427664   3.745   7.638   6.901 -0.5357  0.4185 -0.1265
   41MOL   C38527665   3.857   7.597   6.799  0.2101 -1.3363 -0.1762
   41MOL   C38627666   3.853   7.689   6.680 -0.4025  0.2086 -0.2304
   41MOL   C38727667   3.936   7.642   6.559 -0.0057  0.2270 -0.1236
   41MOL   O38827668   4.048   7.603   6.580 -0.0183  0.4971  0.4354
   41MOL   H38927669   3.880   6.925   7.379  0.8925 -1.6918 -0.3370
   41MOL   H39027670   3.775   6.994   7.108 -0.0698 -0.7646 -0.3715
   41MOL   H39127671   3.686   6.979   7.259 -0.5542 -3.1160 -2.5930
   41MOL   H39227672   3.883   7.216   7.225  1.1393 -0.5644  2.0907
   41MOL   H39327673   3.782   7.175   7.351  0.5251  2.2139 -0.1066
   41MOL   H39427674   3.703   7.288   7.079  0.8530  1.2254  0.4306
   41MOL   H39527675   3.584   7.199   7.167 -0.3049  0.3178 -0.5751
   41MOL   H39627676   3.729   7.437   7.288 -0.1915 -0.6292 -0.6814
   41MOL   H39727677   3.589   7.369   7.362 -2.3010 -2.0024 -0.6080
   41MOL   H39827678   3.482   7.548   7.259 -0.5980  0.4144 -1.6522
   41MOL   H39927679   3.473   7.417   7.133  0.7125  0.2282  0.3139
   41MOL   H40027680   3.516   7.637   7.053  0.5686 -2.3839 -2.0467
   41MOL   H40127681   3.657   7.663   7.157  0.1404  0.1570  0.4874
   41MOL   H40227682   3.666   7.449   6.939 -1.4529 -0.8515  1.8245
   41MOL   H40327683   3.789   7.511   7.054  1.5203 -0.9255 -1.9313
   41MOL   H40427684   3.655   7.661   6.844 -0.5202  4.0815  1.1812
   41MOL   H40527685   3.771   0.015   6.953 -0.9358  1.3159 -1.4980
   41MOL   H40627686   3.846   7.491   6.775 -0.2800 -0.6288 -3.2232
   41MOL   H40727687   3.958   7.598   6.841  0.4071 -2.9459 -0.5810
   41MOL   H40827688   3.873   0.079   6.697  0.7350  0.3237 -2.1580
   41MOL   H40927689   3.756   7.677   6.631 -0.5684  0.6515 -0.0136
   41MOL   N41027690   3.889   7.644   6.436  0.2010  0.0835  0.4623
   41MOL   C41127691   3.948   7.573   6.322 -0.2835  0.0773  0.4979
   41MOL   C41227692   3.922   7.419   6.334 -0.0156 -0.1420  0.0703
   41MOL   C41327693   3.939   7.342   6.198  0.3302  0.3108  0.3627
   41MOL   C41427694   3.896   7.192   6.210 -1.0813 -0.3899 -0.0987
   41MOL   C41527695   3.926   7.099   6.093 -0.5169  0.0823 -0.4116
   41MOL   C41627696   3.832   7.125   5.966 -0.1770 -0.4490  0.4720
   41MOL   C41727697   3.856   7.031   5.846  0.5847 -0.6388 -0.3695
   41MOL   C41827698   3.964   7.079   5.752  0.9892 -0.3522 -0.1880
   41MOL   C41927699   3.981   6.986   5.641 -0.2908  0.7229  0.3713
   41MOL   C42027700   4.049   6.855   5.679  0.7348  0.4660  0.4232
   41MOL   C42127701   4.189   6.872   5.742 -0.1675 -0.6572  0.0485
   41MOL   O42227702   4.256   6.976   5.735 -0.1198 -0.3975  0.0474
   41MOL   H42327703   3.796   7.679   6.416 -0.5263 -0.8469  2.0296
   41MOL   H42427704   3.913   7.616   6.228 -0.4121 -0.4376  0.3107
   41MOL   H42527705   4.050   7.611   6.321 -0.2791  0.0814  0.9330
   41MOL   H42627706   3.820   7.404   6.370  0.5531 -1.0047  1.3489
   41MOL   H42727707   3.988   7.368   6.405  1.9008  0.3745 -1.3164
   41MOL   H42827708   3.889   7.381   6.109  2.5620 -3.1531 -2.5781
   41MOL   H42927709   4.044   7.348   6.170  0.4449 -0.0759  0.7136
   41MOL   H43027710   3.790   7.191   6.237 -1.0334 -2.8693  0.1019
   41MOL   H43127711   3.946   7.149   6.297  0.1016 -2.4588 -1.7323
   41MOL   H43227712   3.924   6.995   6.125  0.0125  0.1394 -0.1831
   41MOL   H43327713   4.029   7.114   6.061  0.2528 -2.4794  0.6942
   41MOL   H43427714   3.728   7.122   5.998 -0.5353  0.6223 -0.5333
   41MOL   H43527715   3.845   7.227   5.929  1.5982 -1.0984 -0.7744
   41MOL   H43627716   3.761   7.027   5.793 -1.2082  0.7638  2.6217
   41MOL   H43727717   3.870   6.928   5.879  2.2433  0.5998  3.0173
   41MOL   H43827718   3.934   7.169   5.699  1.8808  0.9261  1.4373
   41MOL   H43927719   4.059   7.098   5.802  0.3487 -3.4758  2.4211
   41MOL   H44027720   4.041   7.044   5.572  0.6712  0.5993  1.0979
   41MOL   H44127721   3.882   6.961   5.602  0.3249  0.7919 -1.2221
   41MOL   H44227722   4.067   6.791   5.593 -1.1891  0.0622  0.3016
   41MOL   H44327723   3.993   6.801   5.755  1.1345 -0.2642  0.1951
   41MOL   N44427724   4.229   6.769   5.811 -0.3559 -0.1150  0.6859
   41MOL   C44527725   4.342   6.770   5.899 -0.5108 -0.1884  0.1861
   41MOL   C44627726   4.350   6.635   5.971  0.6993 -0.6139  0.2350
   41MOL   C44727727   4.450   6.639   6.082  0.1527 -0.5431 -0.2724
   41MOL   C44827728   4.383   6.588   6.214  0.1124  0.0944 -0.6872
   41MOL   C44927729   4.480   6.556   6.325  0.2738 -0.0834 -0.0128
   41MOL   C45027730   4.415   6.476   6.438  0.1451  0.1583  0.6303
   41MOL   C45127731   4.420   6.325   6.411 -1.1635 -0.0820  0.1666
   41MOL   C45227732   4.343   6.250   6.524 -0.2494 -0.2189  0.0094
   41MOL   C45327733   4.354   6.098   6.527  0.2643 -0.2074  0.5667
   41MOL   C45427734   4.465   6.042   6.623  0.1244 -0.2855  0.2324
   41MOL   C45527735   4.603   6.077   6.586 -0.0550  0.7513  0.7982
   41MOL   O45627736   4.667   6.022   6.491  0.4610  0.0064 -1.0356
   41MOL   H45727737   4.183   6.679   5.804 -0.5132 -0.0008  0.2122
   41MOL   H45827738   4.429   6.776   5.833 -0.2055  0.5140  0.6405
   41MOL   H45927739   4.339   6.856   5.966 -1.2708  1.6001 -2.0622
   41MOL   H46027740   4.364   6.547   5.908 -1.6876  0.0584 -1.2618
   41MOL   H46127741   4.253   6.627   6.020  2.0463  0.7576  3.2983
   41MOL   H46227742   4.532   6.571   6.058  1.9447  1.3448  0.2771
   41MOL   H46327743   4.498   6.735   6.100  0.7133 -0.9975  0.7205
   41MOL   H46427744   4.326   6.497   6.198 -2.0846  1.1792  0.6948
   41MOL   H46527745   4.317   6.667   6.250 -1.4328 -2.4881  2.3059
   41MOL   H46627746   4.522   6.646   6.368  0.3609 -0.3671  0.4916
   41MOL   H46727747   4.568   6.507   6.283  1.1936  0.6689  1.0296
   41MOL   H46827748   4.461   6.503   6.533 -1.6110  2.8077  0.7575
   41MOL   H46927749   4.312   6.510   6.444  0.3361  1.0397 -0.9689
   41MOL   H47027750   4.525   6.295   6.409 -0.1592  3.2068  1.2132
   41MOL   H47127751   4.386   6.286   6.315  1.6719  0.0366 -0.9327
   41MOL   H47227752   4.363   6.287   6.624 -1.0019  0.7236 -0.1772
   41MOL   H47327753   4.240   6.278   6.500 -0.3840  0.1460  0.9912
   41MOL   H47427754   4.366   6.068   6.423  1.4250  2.0441  0.0163
   41MOL   H47527755   4.261   6.056   6.565  0.2517  1.3678  2.3712
   41MOL   H47627756   4.462   5.933   6.614 -0.2196 -0.1357 -1.6848
   41MOL   H47727757   4.461   6.060   6.730  3.0074  0.3637  0.2764
   41MOL   N47827758   4.666   6.172   6.662 -0.2405 -0.0346  0.2590
   41MOL   C47927759   4.792   6.239   6.636 -0.5007  0.2505 -0.9962
   41MOL   C48027760   4.765   6.382   6.589 -0.4708 -0.6955  0.3393
   41MOL   C48127761   4.756   6.471   6.708 -0.4568  0.5106 -0.3555
   41MOL   C48227762   4.725   6.615   6.673 -0.0629  0.4471 -0.6651
   41MOL   C48327763   4.756   6.713   6.786 -0.5227  0.4887 -0.5368
   41MOL   C48427764   4.904   6.746   6.807  0.5743  0.3601  0.3698
   41MOL   C48527765   4.913   6.833   6.926 -0.0638 -0.1602  1.0666
   41MOL   C48627766   5.053   6.899   6.938  0.2921 -0.6420 -0.4315
   41MOL   C48727767   5.084   6.978   7.068 -0.0735  0.2478  0.3925
   41MOL   C48827768   5.217   7.053   7.078  0.5139 -0.5755  0.1209
   41MOL   C48927769   5.222   7.190   7.018  0.3494 -0.0073  0.2965
   41MOL   O49027770   5.175   7.200   6.906  0.1399  0.7015  0.3514
   41MOL   H49127771   4.607   6.216   6.731 -1.7132 -0.1785 -0.8838
   41MOL   H49227772   4.858   6.239   6.723 -1.3156  1.0245 -0.3670
   41MOL   H49327773   4.844   6.195   6.551 -3.0221 -0.9825 -1.9494
   41MOL   H49427774   4.675   6.385   6.528  1.8953 -1.7907 -3.3778
   41MOL   H49527775   4.856   6.422   6.544  1.1846 -2.0307  2.3674
   41MOL   H49627776   4.682   6.435   6.780  0.3486  0.7242  0.5954
   41MOL   H49727777   4.852   6.464   6.759  0.6214 -0.7980 -2.5263
   41MOL   H49827778   4.620   6.627   6.644 -0.1239  0.3926 -0.4705
   41MOL   H49927779   4.773   6.651   6.583 -0.4113 -3.5891 -2.5716
   41MOL   H50027780   4.715   6.664   6.875 -2.0001 -0.4063 -1.6699
   41MOL   H50127781   4.686   6.796   6.772  0.4849  1.3195 -0.6581
   41MOL   H50227782   4.974   6.663   6.823  0.0832 -0.1669 -0.1748
   41MOL   H50327783   4.937   6.792   6.714 -1.2939  0.3843 -0.2874
   41MOL   H50427784   4.888   6.780   7.018 -0.2698 -0.7971  0.6482
   41MOL   H50527785   4.841   6.915   6.923 -1.2483 -1.2017  0.2329
   41MOL   H50627786   5.128   6.823   6.917  0.8577 -1.5327  4.1244
   41MOL   H50727787   5.055   6.967   6.853  0.3391  1.0704  0.8995
   41MOL   H50827788   5.082   6.908   7.152 -0.3674 -1.3233 -0.8846
   41MOL   H50927789   5.004   7.049   7.088 -0.5327  0.0644 -0.7383
   41MOL   H51027790   5.299   7.004   7.025 -0.5358  0.3038 -2.4293
   41MOL   H51127791   5.241   7.056   7.184 -0.9803 -0.8528  0.4689
   41MOL   N51227792   5.292   7.283   7.080 -0.1994 -0.1127  0.0313
   41MOL   C51327793   5.326   7.415   7.022 -0.7746 -0.2445 -0.8273
   41MOL   C51427794   5.467   7.463   7.066  0.5174  0.7061 -0.4453
   41MOL   C51527795   5.505   7.594   6.997  0.0260  0.0423 -0.2377
   41MOL   C51627796   5.640   7.651   7.051 -0.0398 -0.5560  0.7318
   41MOL   C51727797   5.663   0.088   7.024 -0.4652  0.6226  0.7370
   41MOL   C51827798   5.801   0.139   7.049  0.0274  0.3751  0.2045
   41MOL   C51927799   5.805   0.287   7.037 -0.1328 -0.2191 -0.3600
   41MOL   C52027800   5.955   0.334   7.035 -0.7479  0.0956  0.1671
   41MOL   C52127801   5.977   0.486   7.023  0.4964 -0.4215  0.7450
   41MOL   C52227802   5.906   0.554   6.906  0.3568 -0.0515  0.0192
   41MOL   C52327803   5.942   0.707   6.917 -0.5537 -0.3645  0.2479
   41MOL   O52427804   6.056   0.744   6.942  0.3903 -0.2700  0.7769
   41MOL   H52527805   5.303   7.276   7.180 -1.0404  3.0171  0.3885
   41MOL   H52627806   5.316   7.404   6.914  0.5854 -2.6883 -0.7446
   41MOL   H52727807   5.260   7.486   7.071  0.6363 -0.1346  0.9461
   41MOL   H52827808   5.544   7.386   7.063 -1.6262 -1.5515  1.4257
   41MOL   H52927809   5.448   7.485   7.171  0.7340  1.1778 -0.5042
   41MOL   H53027810   5.515   7.589   6.889 -0.8293  1.1600 -0.3783
   41MOL   H53127811   5.412   7.651   7.006  0.4206  0.7440 -0.6206
   41MOL   H53227812   5.721   7.598   7.002  0.2132  1.5150 -1.1400
   41MOL   H53327813   5.642   7.636   7.159 -0.3427  0.8428  0.9429
   41MOL   H53427814   5.587   0.131   7.089 -2.5401  0.3237 -1.4306
   41MOL   H53527815   5.637   0.111   6.921  0.4988  0.5968  0.4822
   41MOL   H53627816   5.829   0.115   7.152  1.2500  1.2527  0.0913
   41MOL   H53727817   5.878   0.097   6.984 -1.4004 -1.6179 -0.2249
   41MOL   H53827818   5.750   0.326   7.123 -2.0348 -1.4847 -0.9619
   41MOL   H53927819   5.752   0.337   6.956 -1.2999  1.1117  1.1930
   41MOL   H54027820   6.006   0.308   7.128  1.9386  0.4166 -1.1552
   41MOL   H54127821   6.006   0.285   6.952  1.8453  1.2490  1.0411
   41MOL   H54227822   6.086   0.494   7.025  0.6369 -1.7374 -0.6326
   41MOL   H54327823   5.933   0.522   7.116 -2.0762 -2.2281  0.3031
   41MOL   H54427824   5.799   0.537   6.912  0.4856 -0.6337  0.8710
   41MOL   H54527825   5.946   0.515   6.812 -1.4715  0.9654 -1.2060
   41MOL   N54627826   5.841   0.797   6.904  0.1932 -0.6567 -0.9566
   41MOL   C54727827   5.863   0.948   6.899 -0.0213  0.6533  0.3551
   41MOL   C54827828   5.749   1.034   6.944  0.3833 -0.4836  0.2087
   41MOL   C54927829   5.798   1.175   7.001  0.2175 -0.0023  0.0041
   41MOL   C55027830   5.826   1.275   6.881  0.4010  0.4409  0.6391
   41MOL   C55127831   5.968   1.284   6.827  0.4220 -0.3480  0.2928
   41MOL   C55227832   5.992   1.413   6.745  0.2410  0.6748  0.1849
   41MOL   C55327833   6.131   1.419   6.686 -0.4378 -0.0569 -0.5754
   41MOL   C55427834   6.175   1.564   6.654  0.1468 -0.2152 -0.5241
   41MOL   C55527835   6.309   1.561   6.570 -0.5353  0.6697 -0.2353
   41MOL   C55627836   6.360   1.700   6.528  0.3890  1.0759 -0.7454
   41MOL   C55727837   6.471   1.696   6.424  1.1600 -0.7632 -0.1800
   41MOL   O55827838   6.454   1.660   6.310 -0.2036 -0.0392  0.0993
   41MOL   H55927839   5.748   0.763   6.886 -0.2946 -0.4180  1.0035
   41MOL   H56027840   5.948   0.972   6.963 -1.0178 -0.5403  2.1566
   41MOL   H56127841   5.898   0.975   6.800 -0.6709  0.8131  0.1621
   41MOL   H56227842   5.698   0.979   7.023  0.7155 -0.5484  0.3829
   41MOL   H56327843   5.679   1.044   6.862 -0.2555 -0.8518  0.7060
   41MOL   H56427844   5.729   1.220   7.073 -0.8644 -2.9503  0.8531
   41MOL   H56527845   5.889   1.165   7.059  0.4031 -0.0382 -0.2923
   41MOL   H56627846   5.798   1.370   6.926 -3.3878  0.1761 -0.9966
   41MOL   H56727847   5.755   1.258   6.800  1.4946 -0.2818 -0.1746
   41MOL   H56827848   5.994   1.196   6.769  3.6107  1.2358 -0.7948
   41MOL   H56927849   6.037   1.294   6.911  1.9181  1.0797 -1.0647
   41MOL   H57027850   5.919   1.411   6.664  0.0635 -0.9822  0.3762
   41MOL   H57127851   5.964   1.499   6.807 -1.4730  1.4600 -1.6401
   41MOL   H57227852   6.124   1.362   6.594 -0.9546 -0.7761 -0.0933
   41MOL   H57327853   6.207   1.374   6.750 -1.8114 -0.4375  0.8106
   41MOL   H57427854   6.095   1.614   6.599 -0.2686 -0.4982 -0.1814
   41MOL   H57527855   6.182   1.624   6.745  0.9378 -1.5339  0.3138
   41MOL   H57627856   6.284   1.512   6.476 -2.1889  2.1464 -0.5988
   41MOL   H57727857   6.383   1.496   6.616 -0.8633  0.7422  0.4136
   41MOL   H57827858   6.400   1.743   6.620 -2.5477  3.3855 -0.4898
   41MOL   H57927859   6.279   1.757   6.483 -2.2363  0.5916  3.1526
   41MOL   N58027860   6.588   1.759   6.456  0.3203  0.3331 -0.5436
   41MOL   C58127861   6.706   1.759   6.376 -0.4083 -0.1892  0.1136
   41MOL   C58227862   6.786   1.621   6.384 -0.4665  0.3124 -0.0873
   41MOL   C58327863   6.928   1.636   6.332 -0.5573 -0.6864  0.0435
   41MOL   C58427864   6.991   1.498   6.293  0.2159  0.6590  0.1050
   41MOL   C58527865   6.983   1.394   6.405 -0.4493  0.3238  0.2462
   41MOL   C58627866   7.084   1.282   6.367  0.7792  0.7020 -0.3723
   41MOL   C58727867   7.029   1.162   6.281  0.0250  0.0614 -0.0732
   41MOL   C58827868   7.131   1.042   6.272 -0.0919 -0.5010 -0.3432
   41MOL   C58927869   7.105   0.944   6.162  0.6411  0.4754 -0.3345
   41MOL   C59027870   7.155   0.984   6.021  0.1728 -0.0558  0.1950
   41MOL   C59127871   7.295   0.956   6.001 -0.9038 -0.3768  0.7233
   41MOL   O59227872   7.329   0.838   5.997 -0.6166 -0.2960  0.3100
   41MOL   H59327873   6.591   1.780   6.554  0.7002  1.0927 -0.7204
   41MOL   H59427874   6.680   1.790   6.275  0.9405 -1.8051 -0.7711
   41MOL   H59527875   6.770   1.839   6.412  0.9426 -0.3592 -1.8057
   41MOL   H59627876   6.733   1.546   6.325 -1.7032  3.0636 -2.6339
   41MOL   H59727877   6.789   1.585   6.487  2.8963 -1.1585 -0.6266
   41MOL   H59827878   6.915   1.704   6.248  1.8840  0.2158  0.3579
   41MOL   H59927879   6.995   1.689   6.400  0.5587 -1.1621 -0.6612
   41MOL   H60027880   7.091   1.510   6.252 -0.9272  1.6849 -2.4966
   41MOL   H60127881   6.922   1.470   6.214  3.4502 -0.2383 -2.4953
   41MOL   H60227882   6.884   1.349   6.415 -0.1660 -0.5673 -0.8176
   41MOL   H60327883   7.030   1.430   6.496 -1.4073 -1.6912  1.5806
   41MOL   H60427884   7.176   1.324   6.325  1.9802 -1.4376  0.0072
   41MOL   H60527885   7.103   1.227   6.459 -2.6678 -1.1787 -0.7314
   41MOL   H60627886   7.024   1.187   6.175 -0.0564  0.9403  0.1362
   41MOL   H60727887   6.928   1.126   6.299 -0.1251 -0.4632 -1.8232
   41MOL   H60827888   7.235   1.074   6.264 -0.1359 -0.5025 -0.9606
   41MOL   H60927889   7.119   0.986   6.365  0.4233 -1.2128 -0.7041
   41MOL   H61027890   6.998   0.928   6.152  0.7849 -2.3485  1.9065
   41MOL   H61127891   7.132   0.841   6.186 -3.5712 -1.2757 -2.6014
   41MOL   H61227892   7.128   1.087   5.998 -1.2770 -1.1788 -3.5275
   41MOL   H61327893   7.093   0.917   5.961 -0.7911  0.5114  0.5492
   41MOL   N61427894   7.380   1.058   5.992 -0.4406 -0.3146 -0.5996
   41MOL   C61527895   7.526   1.063   5.977  0.1843 -0.2828  0.0141
   41MOL   C61627896   7.594   1.026   6.111  0.3896  0.6466  0.3860
   41MOL   C61727897   7.573   1.125   6.227  0.0479 -0.2623  0.7083
   41MOL   C61827898   7.620   1.070   6.368 -0.0897  0.4171  0.9932
   41MOL   C61927899   7.585   1.165   6.486  0.7058 -0.1408  0.1181
   41MOL   C62027900   7.591   1.086   6.620  0.1740 -0.3674 -0.1910
   41MOL   C62127901   7.538   1.172   6.740  0.2068  0.0193  0.4557
   41MOL   C62227902   7.386   1.158   6.755  0.2663  0.5529 -0.0633
   41MOL   C62327903   7.340   1.228   6.882  0.2957 -0.6171 -0.0514
   41MOL   C62427904   7.184   1.233   6.895  1.1566 -0.3509  0.2378
   41MOL   C62527905   7.137   1.345   6.984  1.2075 -0.0958  1.0114
   41MOL   O62627906   7.215   1.431   7.022  0.0486  0.4070  0.0027
   41MOL   H62727907   7.319   1.137   5.976  0.3204  0.0671 -1.6842
   41MOL   H62827908   7.547   1.162   5.938  0.0850 -0.3722 -0.2665
   41MOL   H62927909   7.552   0.995   5.896 -0.4668  1.4057 -1.6258
   41MOL   H63027910   7.701   1.017   6.090  0.4140  1.5915  0.0560
   41MOL   H63127911   7.565   0.924   6.133 -0.4707  0.5063 -1.2792
   41MOL   H63227912   7.623   1.218   6.200  0.4983 -1.7783 -4.1762
   41MOL   H63327913   7.471   1.161   6.238 -0.1429  0.3608 -2.4758
   41MOL   H63427914   0.010   1.046   6.380  0.0559  0.1750 -0.7008
   41MOL   H63527915   7.563   0.980   6.391  1.3800  0.1375  3.8326
   41MOL   H63627916   7.491   1.219   6.480  0.2929 -1.0088 -1.5618
   41MOL   H63727917   7.663   1.242   6.484  0.3723  0.1744 -1.0313
   41MOL   H63827918   7.535   0.992   6.615  1.8348 -1.4195  0.4904
   41MOL   H63927919   7.695   1.077   6.653  1.4038  1.3114 -3.3761
   41MOL   H64027920   7.582   1.270   6.717  0.7361  0.1025  1.7726
   41MOL   H64127921   7.579   1.131   6.832  2.0659  2.6037  0.8686
   41MOL   H64227922   7.340   1.201   6.665  1.7199  1.5225 -0.3680
   41MOL   H64327923   7.357   1.053   6.757 -0.5444  0.7944  1.2997
   41MOL   H64427924   7.400   1.319   6.887  0.3857 -0.4735 -2.7423
   41MOL   H64527925   7.382   1.164   6.959  0.2703 -2.5541 -1.5936
   41MOL   H64627926   7.148   1.134   6.923  1.8658 -0.5049  0.6359
   41MOL   H64727927   7.136   1.263   6.802  4.6124  1.3662 -1.0850
   41MOL   N64827928   7.007   1.368   7.001  0.3678  0.1245  0.2145
   41MOL   C64927929   6.890   1.295   6.952  0.3862 -0.7179 -0.5372
   41MOL   C65027930   6.851   1.335   6.804 -0.8132  0.0619  0.1816
   41MOL   C65127931   6.715   1.291   6.755  0.0935 -0.0157 -0.0021
   41MOL   C65227932   6.687   1.281   6.603  0.4553 -0.4255 -0.2007
   41MOL   C65327933   6.554   1.224   6.568  0.0443  1.0889  1.2136
   41MOL   C65427934   6.519   1.236   6.415 -0.3709  0.1049  0.3308
   41MOL   C65527935   6.367   1.208   6.370  0.2619  0.2742 -0.8233
   41MOL   C65627936   6.323   1.066   6.400  0.4499 -0.2292  0.4404
   41MOL   C65727937   6.253   1.062   6.538 -0.5018 -0.2737 -0.3287
   41MOL   C65827938   6.251   0.932   6.604  0.1692 -0.0872 -0.7550
   41MOL   C65927939   6.157   0.819   6.554  0.6810 -0.8148 -0.4735
   41MOL   O66027940   6.116   0.804   6.442 -0.0452 -0.0332  0.0750
   41MOL   H66127941   6.985   1.448   7.059  1.5670  0.7881 -0.2244
   41MOL   H66227942   6.802   1.330   7.007  0.6702  0.6840 -0.9472
   41MOL   H66327943   6.901   1.187   6.957  0.1917 -0.8076 -1.9716
   41MOL   H66427944   6.912   1.279   6.734 -3.1554 -1.4431 -0.7362
   41MOL   H66527945   6.860   1.439   6.774 -2.8686 -0.2797 -1.7455
   41MOL   H66627946   6.687   1.196   6.800  3.7327 -1.4717 -0.5955
   41MOL   H66727947   6.651   1.373   6.786  2.9672  1.9458  1.0094
   41MOL   H66827948   6.769   1.227   6.555  2.6132  1.7063  0.9357
   41MOL   H66927949   6.687   1.380   6.557 -1.9814  1.4974  3.6623
   41MOL   H67027950   6.477   1.284   6.617 -0.6069  0.3052  1.1547
   41MOL   H67127951   6.534   1.123   6.603 -1.6588  1.2740  0.8306
   41MOL   H67227952   6.553   1.333   6.379  1.6362 -1.0176 -0.8962
   41MOL   H67327953   6.583   1.160   6.369  1.1185  2.3496 -1.4005
   41MOL   H67427954   6.373   1.224   6.262 -1.5795  0.3855 -0.9291
   41MOL   H67527955   6.305   1.290   6.406  1.1717  0.0762  1.2027
   41MOL   H67627956   6.257   1.034   6.320 -1.4155  0.3743  1.7110
   41MOL   H67727957   6.413   1.005   6.396 -0.9453 -2.3659  0.8072
   41MOL   H67827958   6.151   1.094   6.514 -0.4802  0.7391  0.8731
   41MOL   H67927959   6.288   1.144   6.601 -3.9364 -0.7452  2.3867
   41MOL   H68027960   6.223   0.951   6.708 -0.5889 -0.1404 -0.9483
   41MOL   H68127961   6.349   0.884   6.613  0.3244  0.6864  2.5625
   41MOL   H68227962   6.136   0.732   6.616  0.0147  0.1035  0.6182
   42MOL     N127963   6.482   0.758   2.144  0.4964  0.5677  0.3164
   42MOL     C227964   6.403   0.680   2.055 -0.2783 -0.2605  0.0317
   42MOL     C327965   6.292   0.771   1.997  0.3203 -0.3347 -0.3978
   42MOL     C427966   6.151   0.721   2.028 -0.0955  0.1977  0.0165
   42MOL     C527967   6.041   0.821   1.974 -0.3707  0.1687 -0.1198
   42MOL     C627968   5.898   0.771   2.003 -0.0363 -0.2066 -0.1336
   42MOL     C727969   5.862   0.628   1.966 -0.4473 -0.5314 -0.6794
   42MOL     C827970   5.712   0.598   1.951  0.5819 -0.2212  0.2075
   42MOL     C927971   5.682   0.464   1.879 -0.9571  0.3199 -0.2202
   42MOL    C1027972   5.533   0.437   1.835 -0.3465  0.1113  0.5557
   42MOL    C1127973   5.517   0.303   1.756  0.1339 -0.2823  0.1298
   42MOL    C1227974   5.520   0.323   1.604 -0.1661 -0.4063 -0.0493
   42MOL    O1327975   5.534   0.433   1.553  0.6112  0.3551 -0.0779
   42MOL    H1427976   6.557   0.714   2.195  0.0679  0.3989  0.8112
   42MOL    H1527977   6.374   0.585   2.101  1.9701 -0.9006  0.2153
   42MOL    H1627978   6.476   0.653   1.979  0.5171  0.0965  0.6621
   42MOL    H1727979   6.292   0.769   1.888 -1.1179 -0.0335 -0.4116
   42MOL    H1827980   6.305   0.873   2.034 -0.1094  0.1130 -1.4728
   42MOL    H1927981   6.155   0.621   1.985 -1.2461  1.5495 -3.4384
   42MOL    H2027982   6.134   0.715   2.135 -0.5503  1.9945  0.0538
   42MOL    H2127983   6.052   0.812   1.866  0.4048  0.3258 -0.0571
   42MOL    H2227984   6.061   0.923   2.007 -0.6215  0.2922 -0.3482
   42MOL    H2327985   5.846   0.834   1.931 -0.2595 -2.0305 -1.6110
   42MOL    H2427986   5.876   0.793   2.107  0.7232  0.0136 -0.0144
   42MOL    H2527987   5.920   0.577   1.890 -0.0785 -1.4114  0.1736
   42MOL    H2627988   5.891   0.573   2.056 -1.4862  0.5822  0.3551
   42MOL    H2727989   5.666   0.683   1.901 -1.6582 -1.9149 -0.6994
   42MOL    H2827990   5.674   0.590   2.053 -0.4472  0.6015 -0.0988
   42MOL    H2927991   5.745   0.474   1.790 -3.9249  0.1083 -2.4173
   42MOL    H3027992   5.720   0.388   1.947  0.4232 -0.5752 -1.9628
   42MOL    H3127993   5.482   0.524   1.792  1.0912  1.5731  1.7384
   42MOL    H3227994   5.478   0.416   1.927 -0.5991  2.0400  0.8733
   42MOL    H3327995   5.422   0.254   1.778  0.7647 -1.2592  0.7552
   42MOL    H3427996   5.594   0.228   1.774  1.2079  0.8496  0.3485
   42MOL    H3527997   6.523   0.832   2.090 -1.6801  1.3043 -0.3851
   42MOL    N3627998   5.510   0.209   1.535  0.7812 -0.8590  0.0759
   42MOL    C3727999   5.504   0.198   1.386  0.1689  0.4813  0.3251
   42MOL    C3828000   5.621   0.122   1.325 -0.2238 -0.5523  0.5598
   42MOL    C3928001   5.615   0.140   1.170 -0.2901 -0.4271  0.0423
   42MOL    C4028002   5.716   0.057   1.094 -0.5391  0.1611  0.1712
   42MOL    C4128003   5.846   0.029   1.176 -0.0949 -0.0360  0.4838
   42MOL    C4228004   5.941   7.648   1.087  0.6754  0.4067 -0.9483
   42MOL    C4328005   6.086   7.635   1.149  0.1086 -0.1291  0.2309
   42MOL    C4428006   6.202   7.612   1.045  0.0191 -0.0303  0.4522
   42MOL    C4528007   6.353   7.623   1.103 -0.2537  0.4744 -0.3065
   42MOL    C4628008   6.467   7.578   1.001  0.0988  0.2077 -0.4414
   42MOL    C4728009   6.504   7.680   0.901 -0.0662 -0.9144  0.4088
   42MOL    O4828010   6.447   0.077   0.910 -0.2995  0.5152  0.4694
   42MOL    H4928011   5.494   0.127   1.591 -0.7125 -1.1221 -0.6947
   42MOL    H5028012   5.410   0.147   1.364  0.7775  0.1021 -1.5334
   42MOL    H5128013   5.497   0.296   1.337  2.5141  0.9605  0.9052
   42MOL    H5228014   5.599   0.019   1.354 -1.9437 -1.0612 -2.3725
   42MOL    H5328015   5.720   0.144   1.365  1.6403 -0.0501 -4.0671
   42MOL    H5428016   5.518   0.116   1.128 -1.1898 -2.9799  3.3614
   42MOL    H5528017   5.643   0.245   1.157  0.5196 -0.7754 -1.0311
   42MOL    H5628018   5.737   0.096   0.994 -2.3500  0.4625 -0.1090
   42MOL    H5728019   5.674   7.673   1.090 -1.4289  0.5677 -1.3701
   42MOL    H5828020   5.825   7.705   1.275  1.9879 -2.2855  0.0748
   42MOL    H5928021   5.893   0.125   1.199  2.0216 -1.0804  0.6888
   42MOL    H6028022   5.889   7.553   1.072 -0.6003  0.6460  1.7855
   42MOL    H6128023   5.944   7.684   0.984  0.0368  2.2233 -0.3397
   42MOL    H6228024   6.092   7.545   1.210 -1.6009  0.9352  2.0118
   42MOL    H6328025   6.111   0.006   1.211 -0.9894 -0.4704  1.1705
   42MOL    H6428026   6.188   7.516   0.995 -2.0532  0.4954 -0.0218
   42MOL    H6528027   6.172   7.677   0.963  0.2650 -3.1241 -2.1987
   42MOL    H6628028   6.349   7.553   1.186  1.0982  1.3582  0.5229
   42MOL    H6728029   6.372   0.010   1.136 -1.2088  1.1436 -1.7478
   42MOL    H6828030   6.457   7.480   0.953  0.3430 -1.2088  2.3373
   42MOL    H6928031   6.551   7.550   1.064 -0.1764 -2.3635 -1.1278
   42MOL    N7028032   6.595   7.645   0.812  0.0040  0.5735 -0.4099
   42MOL    C7128033   6.649   0.007   0.697  0.2132  0.3798  0.3764
   42MOL    C7228034   6.772   7.651   0.645 -0.0558 -0.6229 -0.9737
   42MOL    C7328035   6.856   0.023   0.546  0.0201 -0.0790 -0.4941
   42MOL    C7428036   6.988   7.679   0.494 -0.3768  0.4077 -0.5299
   42MOL    C7528037   7.063   0.066   0.410 -0.0422 -0.1713  0.0246
   42MOL    C7628038   7.191   0.009   0.344  0.8140  0.1759 -0.1395
   42MOL    C7728039   7.168   7.641   0.220 -0.1614  0.7071 -1.2070
   42MOL    C7828040   7.284   7.621   0.124  0.2999  0.2392  0.0669
   42MOL    C7928041   7.268   7.502   0.021  0.1623  0.9834  0.5348
   42MOL    C8028042   7.183   7.541   7.605  0.3332 -0.6029  0.2505
   42MOL    C8128043   7.158   7.430   7.508 -0.6292 -0.3453 -0.3949
   42MOL    O8228044   7.247   7.349   7.474 -0.1232  0.1840 -0.2906
   42MOL    H8328045   6.637   7.554   0.825 -0.0213  0.1358 -3.1172
   42MOL    H8428046   6.577   0.005   0.615  0.5510 -0.5360  0.0956
   42MOL    H8528047   6.661   0.108   0.736 -2.3557  0.0503  2.1924
   42MOL    H8628048   6.753   7.551   0.608 -1.0504 -0.6621 -0.3598
   42MOL    H8728049   6.835   7.622   0.729  1.8449  3.6068 -0.8011
   42MOL    H8828050   6.795   0.051   0.460  0.0233 -0.9500 -0.7874
   42MOL    H8928051   6.868   0.123   0.586 -1.0565 -1.2687  2.9370
   42MOL    H9028052   6.960   7.590   0.437 -0.1440  0.0550 -0.1034
   42MOL    H9128053   7.061   7.646   0.569 -0.5506  0.0804 -0.5037
   42MOL    H9228054   7.096   0.149   0.471 -0.2537 -0.0615 -0.0095
   42MOL    H9328055   6.999   0.113   0.335  0.6226  1.2811  0.3501
   42MOL    H9428056   7.239   0.095   0.298 -0.5469  2.0544  1.8435
   42MOL    H9528057   7.255   7.680   0.420 -1.2415 -0.6556  1.1506
   42MOL    H9628058   7.087   7.686   0.162  0.0258  1.0009 -1.2421
   42MOL    H9728059   7.142   7.540   0.252  1.0605  0.1420 -1.9633
   42MOL    H9828060   7.296   7.714   0.068  1.2245 -0.7954 -1.4900
   42MOL    H9928061   7.374   7.593   0.179 -0.8168 -1.4100  1.0850
   42MOL   H10028062   7.217   7.414   0.059  2.3816 -0.7138 -0.3587
   42MOL   H10128063   7.365   7.469   7.701 -1.0003 -0.9631 -0.9497
   42MOL   H10228064   7.233   7.626   7.559 -0.8928 -0.0219 -0.0412
   42MOL   H10328065   7.094   7.597   7.635  0.9016 -0.1512  1.1396
   42MOL   N10428066   7.038   7.427   7.444  0.1548 -0.1870  0.1237
   42MOL   C10528067   6.993   7.310   7.364 -0.4160  0.2717  0.7174
   42MOL   C10628068   6.847   7.308   7.326  0.0406 -0.6002 -0.7723
   42MOL   C10728069   6.807   7.193   7.236  0.4224 -0.3978  0.2416
   42MOL   C10828070   6.664   7.219   7.187  0.2476 -0.0293  0.4656
   42MOL   C10928071   6.568   7.260   7.297 -0.2135 -0.8857  0.0910
   42MOL   C11028072   6.418   7.231   7.261  0.2242  0.0712  0.2937
   42MOL   C11128073   6.316   7.287   7.365 -0.1218  0.1791  0.5242
   42MOL   C11228074   6.309   7.440   7.381  0.5149  1.0310  0.0052
   42MOL   C11328075   6.255   7.514   7.266 -0.3275 -1.0173  0.2819
   42MOL   C11428076   6.193   7.653   7.305 -0.2467 -0.8175  0.4155
   42MOL   C11528077   6.044   7.661   7.330  0.1778  0.0365  0.3414
   42MOL   O11628078   5.963   7.617   7.254 -0.3727  0.5582 -0.0343
   42MOL   H11728079   6.971   7.495   7.478  1.4699  1.1128  0.1483
   42MOL   H11828080   7.061   7.304   7.280 -0.6842  1.7264  0.3695
   42MOL   H11928081   7.012   7.224   7.427 -0.6261 -1.4209 -1.4522
   42MOL   H12028082   6.830   7.402   7.273 -0.8931  0.4941  1.3789
   42MOL   H12128083   6.802   7.303   7.425  1.0195  1.4754 -0.2056
   42MOL   H12228084   6.864   7.173   7.145 -0.9331 -1.5864 -0.3844
   42MOL   H12328085   6.805   7.103   7.297  0.4886 -0.5897 -0.0355
   42MOL   H12428086   6.619   7.137   7.131 -0.1465 -0.2381  1.0718
   42MOL   H12528087   6.652   7.290   7.106 -1.5185 -0.0167  0.6995
   42MOL   H12628088   6.587   7.363   7.329 -0.2744 -0.7782 -0.2130
   42MOL   H12728089   6.588   7.201   7.386 -0.8595  0.0667  0.8874
   42MOL   H12828090   6.403   7.279   7.164  2.7016 -1.4466 -0.8916
   42MOL   H12928091   6.396   7.125   7.242 -0.7539  0.3236 -0.0239
   42MOL   H13028092   6.337   7.244   7.462 -1.1873  0.5564  0.9263
   42MOL   H13128093   6.216   7.252   7.336  0.3919 -0.1449 -0.8891
   42MOL   H13228094   6.237   7.457   7.461 -0.8171 -0.8724 -0.7585
   42MOL   H13328095   6.406   7.472   7.419  0.8831  2.1337 -1.7888
   42MOL   H13428096   6.171   7.457   7.225 -2.4142  2.3399 -0.2306
   42MOL   H13528097   6.324   7.518   7.182  1.5418 -2.2431  1.7245
   42MOL   H13628098   6.218   0.013   7.230  1.4951 -2.4106 -0.6502
   42MOL   H13728099   6.241   7.687   7.396  2.0572 -1.7773 -0.4072
   42MOL   N13828100   6.010   0.002   7.447  0.1055 -0.0774  0.1246
   42MOL   C13928101   5.885   0.041   7.484 -0.2238  0.4544  0.3269
   42MOL   C14028102   5.881   0.192   7.448 -0.7289  0.0730  0.0677
   42MOL   C14128103   5.783   0.275   7.519 -0.2082  0.1655 -0.4102
   42MOL   C14228104   5.834   0.420   7.538 -0.1131 -0.1359 -0.5026
   42MOL   C14328105   5.743   0.507   7.628  0.5358 -0.7508 -1.2986
   42MOL   C14428106   5.735   0.475   0.063 -0.1669  0.6904 -0.1869
   42MOL   C14528107   5.867   0.508   0.142 -0.4649  0.2568 -0.2902
   42MOL   C14628108   5.848   0.521   0.301  0.9754 -0.4082  0.3252
   42MOL   C14728109   5.976   0.574   0.369  0.0266  0.0263  0.4134
   42MOL   C14828110   5.951   0.640   0.507  0.5055  0.3740  0.5694
   42MOL   C14928111   6.076   0.684   0.580 -0.2426 -0.7707 -0.2798
   42MOL   O15028112   6.185   0.681   0.524  0.2390 -0.1097 -0.0753
   42MOL   H15128113   6.076   0.047   7.509  0.0400 -0.8606  0.7811
   42MOL   H15228114   5.810   7.696   7.433  2.4259 -0.8764 -2.1721
   42MOL   H15328115   5.870   0.018   7.589  2.0310 -1.7629  0.2058
   42MOL   H15428116   5.870   0.213   7.341  1.3575  1.5019  0.1110
   42MOL   H15528117   5.982   0.234   7.453 -1.1479  1.0065  0.6700
   42MOL   H15628118   5.693   0.274   7.458 -1.0991  0.9235  0.8676
   42MOL   H15728119   5.741   0.235   7.612 -2.8519  0.9747 -1.2041
   42MOL   H15828120   5.837   0.477   7.445 -1.5370  0.9894  0.1058
   42MOL   H15928121   5.933   0.413   7.581 -2.1387 -1.1811  4.3544
   42MOL   H16028122   5.641   0.516   7.589  0.2169 -1.2340 -0.5967
   42MOL   H16128123   5.784   0.608   7.620  3.7026 -2.0282 -1.9378
   42MOL   H16228124   5.655   0.534   0.108 -0.7421  0.0871 -0.4243
   42MOL   H16328125   5.704   0.372   0.080 -1.8690  1.0368 -1.1028
   42MOL   H16428126   5.909   0.602   0.108 -1.6084  1.4701  1.5187
   42MOL   H16528127   5.950   0.439   0.129 -0.7590 -0.4291  1.2205
   42MOL   H16628128   5.771   0.595   0.323  0.2382 -1.4598  1.3667
   42MOL   H16728129   5.813   0.428   0.346 -2.3250 -0.2496 -1.7655
   42MOL   H16828130   6.001   0.656   0.301  1.9269 -0.0521  0.9990
   42MOL   H16928131   6.056   0.501   0.359 -0.7220 -0.9543  1.4701
   42MOL   H17028132   5.891   0.574   0.570 -0.0112 -0.4258 -0.7363
   42MOL   H17128133   5.889   0.728   0.492  0.9488  0.6419  0.3245
   42MOL   N17228134   6.062   0.706   0.713 -0.4485  0.2011 -0.3124
   42MOL   C17328135   6.175   0.717   0.810  0.1478  0.5769  0.2407
   42MOL   C17428136   6.229   0.862   0.810 -0.1690 -1.0244 -0.0913
   42MOL   C17528137   6.355   0.869   0.904 -0.3237 -0.1185  0.2968
   42MOL   C17628138   6.490   0.883   0.836 -0.1829 -0.9445  0.3141
   42MOL   C17728139   6.526   1.030   0.838 -0.1003 -0.1586  0.5728
   42MOL   C17828140   6.666   1.060   0.778 -0.2280  0.0816 -0.9766
   42MOL   C17928141   6.723   1.196   0.815 -0.1216 -0.1344 -0.3604
   42MOL   C18028142   6.688   1.324   0.735  1.1801  0.6268  0.4888
   42MOL   C18128143   6.718   1.450   0.808 -0.3503 -0.5428 -0.4753
   42MOL   C18228144   6.686   1.583   0.743 -0.3913  0.7164 -0.2406
   42MOL   C18328145   6.815   1.636   0.670  0.5645 -0.5137 -0.0257
   42MOL   O18428146   6.841   1.603   0.558 -0.0474  0.1537 -0.7336
   42MOL   H18528147   5.969   0.707   0.751 -1.2877  1.5295 -2.3003
   42MOL   H18628148   6.140   0.676   0.905  1.4254 -0.3588  0.3022
   42MOL   H18728149   6.259   0.651   0.792  1.6751  2.4201  0.4697
   42MOL   H18828150   6.150   0.928   0.847  0.4122  0.4886 -1.5005
   42MOL   H18928151   6.244   0.886   0.705  1.5883 -1.4405  0.0446
   42MOL   H19028152   6.339   0.950   0.975 -1.8744  0.5063 -0.7470
   42MOL   H19128153   6.356   0.783   0.971  0.1933 -0.2740  0.0956
   42MOL   H19228154   6.495   0.844   0.734  0.5187  0.0425 -0.0365
   42MOL   H19328155   6.571   0.830   0.886  0.6262 -0.7574 -0.7812
   42MOL   H19428156   6.535   1.065   0.941 -3.0254 -1.3501  1.2899
   42MOL   H19528157   6.443   1.089   0.799 -1.9403 -1.7498  1.9807
   42MOL   H19628158   6.739   0.985   0.807 -1.2661 -0.3418  0.5694
   42MOL   H19728159   6.661   1.056   0.669  1.6896 -1.9164 -1.0110
   42MOL   H19828160   6.832   1.184   0.809 -0.2246 -0.1909 -2.3563
   42MOL   H19928161   6.705   1.218   0.921  1.1969 -1.4483  0.1447
   42MOL   H20028162   6.742   1.308   0.641 -1.6837 -0.6507 -0.9961
   42MOL   H20128163   6.581   1.329   0.716  1.1050  0.0644  0.7456
   42MOL   H20228164   6.822   1.439   0.840 -1.4746 -2.3314  2.6932
   42MOL   H20328165   6.669   1.451   0.905  1.8832 -4.2284  0.7872
   42MOL   H20428166   6.650   1.662   0.808 -0.2076  0.8774 -0.3328
   42MOL   H20528167   6.602   1.573   0.675 -2.5798 -0.5023  2.5484
   42MOL   N20628168   6.892   1.719   0.739  0.0030 -0.2597 -0.4744
   42MOL   C20728169   6.998   1.795   0.671 -0.1865 -0.2719 -0.5335
   42MOL   C20828170   7.084   1.881   0.767  0.6259  0.1179  0.3418
   42MOL   C20928171   7.185   1.951   0.677  0.2009  0.1783 -0.3368
   42MOL   C21028172   7.278   2.049   0.752  0.4916 -0.1941 -0.8366
   42MOL   C21128173   7.206   2.183   0.780 -0.1826  0.2402 -0.4125
   42MOL   C21228174   7.304   2.297   0.812  0.3140 -0.1203  0.6607
   42MOL   C21328175   7.252   2.436   0.855  0.4989  0.7219  0.4600
   42MOL   C21428176   7.378   2.527   0.897 -0.3142  0.2864 -0.1778
   42MOL   C21528177   7.341   2.671   0.937 -0.5192 -0.6109 -0.0351
   42MOL   C21628178   7.294   2.664   1.083 -0.3597 -0.2077 -0.2228
   42MOL   C21728179   7.226   2.791   1.126 -0.1969 -0.5978  0.9124
   42MOL   O21828180   7.229   2.890   1.055  0.1377 -0.1248 -0.0897
   42MOL   H21928181   6.867   1.733   0.836  1.0086  0.8200 -0.3607
   42MOL   H22028182   6.951   1.862   0.599 -0.0427  0.0305 -0.3450
   42MOL   H22128183   7.058   1.726   0.612  4.2414  2.6794  0.2733
   42MOL   H22228184   7.138   1.827   0.845  1.5172  0.5734  0.0455
   42MOL   H22328185   7.010   1.948   0.810 -1.7621 -1.6891 -0.8030
   42MOL   H22428186   7.247   1.869   0.641  0.5269  0.7224 -1.0361
   42MOL   H22528187   7.142   2.003   0.591  0.1507  2.1124  0.8544
   42MOL   H22628188   7.368   2.062   0.693 -0.0845 -2.4811 -2.2684
   42MOL   H22728189   7.314   1.999   0.842 -0.2709 -1.3041 -1.1397
   42MOL   H22828190   7.139   2.167   0.864  0.0710  2.1203  0.1620
   42MOL   H22928191   7.145   2.216   0.696  2.2242 -0.5600 -2.5801
   42MOL   H23028192   7.371   2.263   0.891  1.7342 -0.2470 -0.5769
   42MOL   H23128193   7.371   2.312   0.727  1.1493  0.4831  1.4149
   42MOL   H23228194   7.185   2.414   0.938 -0.0936 -0.1919 -0.2610
   42MOL   H23328195   7.199   2.480   0.771 -0.0655  1.5297  1.2227
   42MOL   H23428196   7.435   2.476   0.974 -0.9918  1.7937  1.3596
   42MOL   H23528197   7.436   2.545   0.807  1.3620  2.2932  1.2553
   42MOL   H23628198   7.266   2.722   0.878  2.8783  2.2909 -2.0892
   42MOL   H23728199   7.436   2.724   0.937 -1.3566  0.9017  0.0691
   42MOL   H23828200   7.378   2.651   1.151  1.1081  0.0458 -1.9641
   42MOL   H23928201   7.227   2.577   1.079 -0.5201 -0.2010  1.7307
   42MOL   N24028202   7.155   2.779   1.239  0.1626 -0.1632  0.0792
   42MOL   C24128203   7.074   2.876   1.310  0.3992 -0.1537 -0.0930
   42MOL   C24228204   6.921   2.868   1.278 -0.4504  0.4051 -0.2424
   42MOL   C24328205   6.849   2.975   1.361  0.0073  0.7031 -0.7662
   42MOL   C24428206   6.700   2.976   1.336 -0.0077 -0.4787 -0.5882
   42MOL   C24528207   6.625   3.082   1.424  0.1525 -0.2755  0.0376
   42MOL   C24628208   6.478   3.108   1.383 -0.7989  0.5035  0.3178
   42MOL   C24728209   6.415   3.229   1.458  0.1074 -0.5535 -0.2003
   42MOL   C24828210   6.417   3.213   1.617  0.0325  0.5177  0.8567
   42MOL   C24928211   6.319   3.313   1.690 -0.4835  0.0039 -0.3728
   42MOL   C25028212   6.318   3.318   1.845 -0.1662 -0.2157  0.0139
   42MOL   C25128213   6.265   3.192   1.917 -0.5055 -0.0538 -0.2706
   42MOL   O25228214   6.308   3.079   1.891  0.1804 -0.0762  0.3352
   42MOL   H25328215   7.167   2.692   1.290 -0.9229 -0.3283  0.0536
   42MOL   H25428216   7.114   2.977   1.300 -0.3433  0.1335 -0.1990
   42MOL   H25528217   7.094   2.860   1.416  3.0945 -0.3316 -0.5866
   42MOL   H25628218   6.891   2.767   1.303  0.1159  0.5692  1.1883
   42MOL   H25728219   6.902   2.894   1.174 -0.1348 -0.4969 -0.5270
   42MOL   H25828220   6.868   2.956   1.466  0.5223  0.8337 -0.8363
   42MOL   H25928221   6.885   3.075   1.337  2.8046  0.0935  0.6652
   42MOL   H26028222   6.663   2.879   1.366  2.1339 -0.5628  1.9612
   42MOL   H26128223   6.679   2.996   1.230 -1.2863  0.6658 -0.1276
   42MOL   H26228224   6.677   3.177   1.431  1.2501 -0.7353 -1.4776
   42MOL   H26328225   6.626   3.046   1.527  0.2989  3.0365  1.2532
   42MOL   H26428226   6.496   3.155   1.287  0.2614  0.6927  0.6024
   42MOL   H26528227   6.410   3.024   1.371 -0.2476  0.6157 -4.3414
   42MOL   H26628228   6.308   3.236   1.438  0.3159  0.9744 -0.8129
   42MOL   H26728229   6.460   3.324   1.429  0.4522 -0.2240  1.3867
   42MOL   H26828230   6.399   3.109   1.642  0.9245  0.2787  0.5192
   42MOL   H26928231   6.521   3.225   1.646  0.5759 -1.9674  0.1033
   42MOL   H27028232   6.217   3.287   1.663  0.2207 -2.5126 -0.7582
   42MOL   H27128233   6.342   3.415   1.659  1.1400  0.2786  1.6175
   42MOL   H27228234   6.248   3.395   1.877  1.0110  0.5113  0.9076
   42MOL   H27328235   6.418   3.355   1.870 -0.4490 -0.1994  1.1550
   42MOL   N27428236   6.163   3.207   2.007  0.1983 -0.5472  0.1441
   42MOL   C27528237   6.110   3.093   2.085  0.2140  0.6599  0.6861
   42MOL   C27628238   5.956   3.094   2.093  0.4325 -0.8692  0.7413
   42MOL   C27728239   5.896   3.095   1.954  0.8474 -0.0025 -0.1110
   42MOL   C27828240   5.751   3.082   1.931  0.0054  0.1210  0.0707
   42MOL   C27928241   5.706   3.077   1.781  0.3964 -0.2151  0.4203
   42MOL   C28028242   5.562   3.121   1.757 -0.2650  0.3479 -0.6930
   42MOL   C28128243   5.524   3.142   1.615 -0.2301  0.3345  0.4154
   42MOL   C28228244   5.513   3.016   1.531 -0.3706  0.0022 -0.8392
   42MOL   C28328245   5.455   3.047   1.388 -0.2498  0.8148  0.5313
   42MOL   C28428246   5.494   2.942   1.281 -0.2873  0.8463  0.3065
   42MOL   C28528247   5.421   2.945   1.147 -0.2891  0.2124  1.0194
   42MOL   O28628248   5.365   3.051   1.112  0.2154  0.1675  0.2378
   42MOL   H28728249   6.122   3.298   2.017 -0.4311 -0.8808  0.6285
   42MOL   H28828250   6.156   3.111   2.183 -1.0224 -1.4521  1.6761
   42MOL   H28928251   6.149   2.999   2.046  0.7415  1.5623 -1.0125
   42MOL   H29028252   5.921   3.182   2.147  1.4445  1.2254 -1.9350
   42MOL   H29128253   5.918   3.007   2.147 -1.7207  0.8186  2.0390
   42MOL   H29228254   5.929   3.188   1.909 -0.7484  0.4042 -0.4515
   42MOL   H29328255   5.944   3.012   1.901  0.7413 -0.8675  1.1067
   42MOL   H29428256   5.693   3.162   1.978 -1.9858 -0.7911 -0.7539
   42MOL   H29528257   5.705   3.001   1.988 -1.8444  0.2778 -1.1474
   42MOL   H29628258   5.727   2.977   1.743  0.6663 -0.0771  0.1939
   42MOL   H29728259   5.781   3.132   1.723  0.0027 -0.4145 -0.2804
   42MOL   H29828260   5.484   3.059   1.800 -1.2888  2.4701  0.5523
   42MOL   H29928261   5.538   3.220   1.794 -0.5936  0.2788 -0.7234
   42MOL   H30028262   5.591   3.214   1.567  1.0308 -0.5236  0.8528
   42MOL   H30128263   5.423   3.181   1.623 -0.5406  0.0200 -1.7632
   42MOL   H30228264   5.605   2.959   1.515 -0.8059 -0.1542 -2.9636
   42MOL   H30328265   5.458   2.937   1.583 -1.4091  1.8429  0.9336
   42MOL   H30428266   5.507   3.138   1.360 -0.1209 -0.2109 -2.8674
   42MOL   H30528267   5.349   3.072   1.396 -0.3989  0.7194 -0.9342
   42MOL   H30628268   5.498   2.843   1.328 -2.3751  1.5847  2.1712
   42MOL   H30728269   5.596   2.970   1.255 -0.1050  1.2783  1.4512
   42MOL   N30828270   5.408   2.831   1.079  0.0427 -0.4707 -0.4274
   42MOL   C30928271   5.331   2.809   0.953 -0.9599  0.6551  0.1371
   42MOL   C31028272   5.195   2.739   0.979 -0.0634  0.0780 -0.7635
   42MOL   C31128273   5.094   2.826   1.058 -0.0490 -0.5223 -0.4671
   42MOL   C31228274   4.996   2.741   1.137 -0.6138  0.4353 -0.0293
   42MOL   C31328275   4.893   2.828   1.212 -0.9448  0.2425  0.3792
   42MOL   C31428276   4.769   2.873   1.121  0.0983  0.4265 -0.0253
   42MOL   C31528277   4.699   2.998   1.183  0.1646  0.4910 -0.2199
   42MOL   C31628278   4.639   2.976   1.322 -0.4629  0.3516 -1.2188
   42MOL   C31728279   4.541   3.082   1.369 -0.3869 -0.2606  0.3978
   42MOL   C31828280   4.515   3.074   1.522 -0.1513 -0.0732  0.2227
   42MOL   C31928281   4.411   3.179   1.573 -0.7720  0.7661 -0.1128
   42MOL   O32028282   4.367   3.270   1.505 -0.8827 -0.0753  0.4403
   42MOL   H32128283   5.471   2.758   1.108 -1.5768 -1.3544  1.0287
   42MOL   H32228284   5.396   2.746   0.892 -1.2594 -0.0906  0.5785
   42MOL   H32328285   5.311   2.903   0.902 -0.1294  0.3308 -0.7994
   42MOL   H32428286   5.222   2.649   1.034  1.0705 -0.5023 -2.2253
   42MOL   H32528287   5.153   2.703   0.885 -2.1473  0.7698 -0.1222
   42MOL   H32628288   5.146   2.886   1.133 -1.9940  0.1892  0.3529
   42MOL   H32728289   5.041   2.890   0.988 -0.7884 -0.3913  0.1982
   42MOL   H32828290   5.051   2.694   1.218  0.0843 -0.4846 -1.0325
   42MOL   H32928291   4.949   2.663   1.077 -0.5524  0.0819  0.3796
   42MOL   H33028292   4.942   2.914   1.258  0.9226 -0.4343 -0.2833
   42MOL   H33128293   4.860   2.764   1.293 -1.1905 -0.6189 -0.3972
   42MOL   H33228294   4.808   2.901   1.023 -2.3360 -2.2319 -1.8460
   42MOL   H33328295   4.692   2.796   1.115  0.4153  0.2150 -1.6365
   42MOL   H33428296   4.617   3.030   1.117  0.7876  0.1535 -1.1643
   42MOL   H33528297   4.777   3.074   1.185  1.5619 -0.9558 -0.0459
   42MOL   H33628298   4.601   2.876   1.339 -0.6900  0.5771 -0.3786
   42MOL   H33728299   4.728   2.977   1.385 -1.6956  2.0542  0.5736
   42MOL   H33828300   4.444   3.079   1.320 -1.4433  1.2829  2.3299
   42MOL   H33928301   4.578   3.180   1.341 -2.4001  0.4268  0.0562
   42MOL   H34028302   4.607   3.083   1.581 -0.9928 -0.7210  1.6650
   42MOL   H34128303   4.470   2.977   1.543 -0.2934 -0.3465 -1.3203
   42MOL   N34228304   4.377   3.167   1.699 -0.1290  0.2742  0.2582
   42MOL   C34328305   4.280   3.244   1.778  1.0456 -0.2898 -0.3396
   42MOL   C34428306   4.136   3.186   1.798 -0.1193  0.2045 -0.2792
   42MOL   C34528307   4.035   3.283   1.850 -0.3967 -0.1309  0.3273
   42MOL   C34628308   3.896   3.236   1.857 -0.3953 -0.4350  0.5269
   42MOL   C34728309   3.838   3.193   1.724  0.1569 -0.0169 -0.0548
   42MOL   C34828310   3.697   3.132   1.731 -0.4967 -0.3835  0.0349
   42MOL   C34928311   3.652   3.073   1.600 -0.2094  0.2577  0.3233
   42MOL   C35028312   3.500   3.063   1.599 -0.2910 -0.2713  0.1576
   42MOL   C35128313   3.441   3.010   1.472 -0.2557 -0.5500 -1.0710
   42MOL   C35228314   3.304   2.935   1.501  0.4380 -0.5513 -0.3696
   42MOL   C35328315   3.215   2.915   1.384 -0.3686 -0.3148 -0.1635
   42MOL   O35428316   3.263   2.911   1.270 -0.0700 -0.4700 -0.4392
   42MOL   H35528317   4.417   3.088   1.747  2.2363  1.6289  0.6129
   42MOL   H35628318   4.335   3.254   1.871 -0.0374 -1.7447  0.4727
   42MOL   H35728319   4.287   3.338   1.724 -1.5287 -0.0933 -0.3873
   42MOL   H35828320   4.145   3.097   1.862  0.3154  0.8436  0.5624
   42MOL   H35928321   4.109   3.139   1.704 -0.7451 -1.6169  0.7802
   42MOL   H36028322   4.065   3.322   1.947  0.4392  1.3363 -0.5141
   42MOL   H36128323   4.030   3.375   1.793 -1.3316 -0.5559 -0.2913
   42MOL   H36228324   3.844   3.319   1.905 -1.1438 -0.6405  0.0851
   42MOL   H36328325   3.899   3.152   1.927 -2.3393 -0.4306  0.6373
   42MOL   H36428326   3.900   3.115   1.680 -0.9729 -0.5702 -0.6911
   42MOL   H36528327   3.829   3.273   1.650 -0.6712  1.7310  1.9059
   42MOL   H36628328   3.698   3.054   1.807  2.2721 -0.4216 -0.0011
   42MOL   H36728329   3.625   3.206   1.765 -0.0367 -0.9857  2.4276
   42MOL   H36828330   3.703   2.980   1.571 -1.1305 -0.0012 -0.4915
   42MOL   H36928331   3.686   3.129   1.512  1.7619  0.1583  0.9807
   42MOL   H37028332   3.478   2.986   1.673  0.2352 -1.9531 -1.3883
   42MOL   H37128333   3.447   3.156   1.618 -0.9926 -0.4336 -0.9752
   42MOL   H37228334   3.503   2.961   1.397  0.0010 -2.7905  0.5754
   42MOL   H37328335   3.414   3.101   1.418  0.9309  1.3363  1.4070
   42MOL   H37428336   3.249   2.990   1.577  2.5936 -0.5718  1.2742
   42MOL   H37528337   3.328   2.841   1.551  1.0416  0.5650  1.4679
   42MOL   N37628338   3.086   2.899   1.413 -0.1162  0.0817 -0.8015
   42MOL   C37728339   2.975   2.884   1.311 -0.4295  0.3683  0.8064
   42MOL   C37828340   2.975   2.751   1.245  0.1677 -0.4517  0.5131
   42MOL   C37928341   2.858   2.737   1.144  0.2104  0.5267 -0.3000
   42MOL   C38028342   2.845   2.600   1.073 -0.0642  0.4994  0.5863
   42MOL   C38128343   2.976   2.560   1.002  0.2130 -0.7783  0.2579
   42MOL   C38228344   3.034   2.662   0.897  0.5068  0.4869 -0.4880
   42MOL   C38328345   3.161   2.614   0.821 -0.2120 -0.1455  0.4464
   42MOL   C38428346   3.237   2.727   0.736 -0.4339  0.9888 -0.5459
   42MOL   C38528347   3.360   2.661   0.676 -0.2363 -0.3394 -0.1287
   42MOL   C38628348   3.455   2.764   0.611 -0.7949  0.0002 -0.2122
   42MOL   C38728349   3.411   2.803   0.470 -0.7933 -0.1185 -0.1522
   42MOL   O38828350   3.435   2.731   0.374  0.0024  0.7044 -0.0902
   42MOL   H38928351   3.063   2.896   1.512  1.9664 -2.6113 -0.3386
   42MOL   H39028352   2.879   2.887   1.363 -1.1253  0.2584 -0.4459
   42MOL   H39128353   2.981   2.966   1.239 -0.5011 -1.2912 -1.1588
   42MOL   H39228354   2.971   2.670   1.319 -2.9446 -2.8242 -2.0837
   42MOL   H39328355   3.065   2.738   1.185 -1.1534 -1.1319 -1.3789
   42MOL   H39428356   2.759   2.742   1.190 -0.1745 -1.9248 -0.7604
   42MOL   H39528357   2.864   2.814   1.067  0.2079  1.6596  0.8146
   42MOL   H39628358   2.777   2.623   0.992 -0.2923 -2.4713 -0.1333
   42MOL   H39728359   2.800   2.526   1.139  2.6511  1.0121  3.1021
   42MOL   H39828360   2.948   2.464   0.960  0.0740 -0.3788 -0.5721
   42MOL   H39928361   3.060   2.533   1.066  0.4822  0.1251  0.3019
   42MOL   H40028362   2.960   2.695   0.825 -0.2380 -0.6149 -0.2343
   42MOL   H40128363   3.058   2.747   0.961  2.6840 -0.8204  0.4794
   42MOL   H40228364   3.148   2.525   0.760 -0.6793 -0.7700  1.4542
   42MOL   H40328365   3.235   2.580   0.894 -0.1249 -2.2510 -0.6088
   42MOL   H40428366   3.176   2.752   0.650  0.4426  0.0396 -1.4535
   42MOL   H40528367   3.273   2.809   0.798  0.0496 -0.5794  1.3264
   42MOL   H40628368   3.331   2.587   0.601 -0.2352 -0.1957 -0.2688
   42MOL   H40728369   3.409   2.614   0.761  1.0936  3.4200  1.2943
   42MOL   H40828370   3.554   2.718   0.611 -1.0544 -0.7160 -3.9898
   42MOL   H40928371   3.472   2.848   0.677 -1.8443 -1.0863  1.4799
   42MOL   N41028372   3.351   2.922   0.464  0.2332 -0.6574  0.1941
   42MOL   C41128373   3.318   2.981   0.340 -0.1484 -0.1799 -0.3257
   42MOL   C41228374   3.432   3.063   0.279 -0.5068  0.2062  0.2285
   42MOL   C41328375   3.488   3.168   0.378  0.7143  0.2128 -0.0132
   42MOL   C41428376   3.378   3.279   0.399 -0.6507  0.2493  0.1651
   42MOL   C41528377   3.431   3.394   0.492  0.1867  0.6421  0.2071
   42MOL   C41628378   3.324   3.501   0.516 -0.5541  0.0055 -0.4191
   42MOL   C41728379   3.369   3.629   0.583  0.5393  0.5821  0.0398
   42MOL   C41828380   3.421   3.609   0.719 -0.1065 -0.4468  0.0205
   42MOL   C41928381   3.476   3.741   0.772  0.1175  0.2628 -0.1071
   42MOL   C42028382   3.555   3.738   0.898 -0.4994  0.4364  0.2966
   42MOL   C42128383   3.607   3.868   0.965  0.1426  0.1527 -0.3116
   42MOL   O42228384   3.540   3.971   0.952 -0.5761  0.2785 -0.0282
   42MOL   H42328385   3.346   2.976   0.549 -0.3684 -2.8341  1.5853
   42MOL   H42428386   3.292   2.901   0.270  1.9564 -1.7375  0.5923
   42MOL   H42528387   3.229   3.037   0.367 -0.5628 -0.5857 -0.8534
   42MOL   H42628388   3.377   3.109   0.197 -2.0581 -0.8937  0.6154
   42MOL   H42728389   3.512   3.001   0.238 -0.9295 -1.2222  1.4765
   42MOL   H42828390   3.522   3.127   0.473  1.5177  2.4610  0.7114
   42MOL   H42928391   3.581   3.213   0.343  0.6784  1.7631  1.7738
   42MOL   H43028392   3.292   3.237   0.451 -0.6121 -1.2135 -0.9472
   42MOL   H43128393   3.340   3.326   0.308  0.0443  1.3797  0.4444
   42MOL   H43228394   3.509   3.444   0.434 -2.1726  0.6579 -3.0887
   42MOL   H43328395   3.460   3.348   0.587 -2.5387 -0.4101  0.5884
   42MOL   H43428396   3.272   3.533   0.425 -2.7120 -1.3752  0.3015
   42MOL   H43528397   3.249   3.460   0.584 -1.2841  0.3494 -1.0071
   42MOL   H43628398   3.281   3.694   0.582 -0.3262 -0.5792 -0.4163
   42MOL   H43728399   3.440   3.672   0.512 -0.6221  1.2714 -0.7336
   42MOL   H43828400   3.344   3.555   0.774 -0.3585 -1.4466 -1.2874
   42MOL   H43928401   3.504   3.539   0.725 -0.5105 -1.0617 -1.3554
   42MOL   H44028402   3.382   3.795   0.785  0.0016 -0.2823  1.3804
   42MOL   H44128403   3.538   3.789   0.696  1.1576  1.1531  1.2850
   42MOL   H44228404   3.645   3.678   0.882  0.8290  2.9809 -2.1467
   42MOL   H44328405   3.494   3.676   0.964  0.9571  2.4252  3.6231
   42MOL   N44428406   3.724   3.853   1.036  0.1607 -0.6015 -0.5811
   42MOL   C44528407   3.802   3.955   1.093  0.3536  0.4489  1.0700
   42MOL   C44628408   3.880   3.909   1.215  0.7507  0.7600  0.7713
   42MOL   C44728409   4.004   4.002   1.236  0.1701  0.4607 -0.0161
   42MOL   C44828410   4.094   3.956   1.353  0.0394 -0.7768 -0.6585
   42MOL   C44928411   4.244   3.988   1.334 -0.0418  0.7646 -0.1585
   42MOL   C45028412   4.325   3.886   1.246  0.1853  0.3155 -1.2585
   42MOL   C45128413   4.467   3.935   1.213 -0.8792 -0.1624  0.7625
   42MOL   C45228414   4.562   3.840   1.141  0.4023 -0.9178 -0.0864
   42MOL   C45328415   4.703   3.895   1.113  0.4808  0.0111  0.3087
   42MOL   C45428416   4.798   3.781   1.074 -0.3684 -0.4299  0.1941
   42MOL   C45528417   4.764   3.709   0.945  0.4476 -0.2863  0.1438
   42MOL   O45628418   4.704   3.766   0.852 -0.3371 -0.7983 -0.0916
   42MOL   H45728419   3.764   3.760   1.038  0.9639 -0.2449  0.3766
   42MOL   H45828420   3.877   3.983   1.019  1.3638 -1.3119  1.4010
   42MOL   H45928421   3.759   4.053   1.116  0.8977  0.7658  0.7403
   42MOL   H46028422   3.910   3.805   1.209 -0.6182  0.1816  3.2409
   42MOL   H46128423   3.824   3.917   1.308 -1.2963 -0.9435 -0.2859
   42MOL   H46228424   4.070   4.006   1.149 -1.0525  0.0690 -0.9749
   42MOL   H46328425   3.979   4.103   1.267 -0.9267  1.1479 -2.9562
   42MOL   H46428426   4.080   3.850   1.374  0.6021 -0.5700  0.8058
   42MOL   H46528427   4.061   3.991   1.450 -0.6883 -0.9403 -0.8499
   42MOL   H46628428   4.293   3.978   1.431  2.2752 -0.6571 -1.4286
   42MOL   H46728429   4.269   4.090   1.304  1.1050  0.1208 -1.4321
   42MOL   H46828430   4.330   3.791   1.300 -1.1193  0.2948 -1.1585
   42MOL   H46928431   4.276   3.861   1.152 -0.7934 -0.6352 -0.5126
   42MOL   H47028432   4.515   3.975   1.302 -0.8252  0.3419  0.5088
   42MOL   H47128433   4.456   4.016   1.141  1.8597 -0.0742  0.4005
   42MOL   H47228434   4.554   3.751   1.204  0.6398 -0.0090  1.2331
   42MOL   H47328435   4.518   3.824   1.043 -0.6210 -1.8200  0.4992
   42MOL   H47428436   4.739   3.944   1.203  0.5126  1.1633 -0.3233
   42MOL   H47528437   4.701   3.971   1.034 -0.9613  0.3196  0.6266
   42MOL   H47628438   4.812   3.709   1.155  0.4804 -0.7509 -0.2264
   42MOL   H47728439   4.898   3.825   1.065 -1.2599  1.8178  1.1909
   42MOL   N47828440   4.801   3.578   0.936  0.2637  0.1732  0.2127
   42MOL   C47928441   4.792   3.503   0.813  0.6894 -0.3245  0.0174
   42MOL   C48028442   4.660   3.424   0.796  0.5519  0.4841 -0.0775
   42MOL   C48128443   4.624   3.384   0.652 -0.8664 -0.3104  0.5477
   42MOL   C48228444   4.507   3.291   0.626 -0.1170 -0.4461 -0.1465
   42MOL   C48328445   4.504   3.236   0.484  0.6511 -0.1700 -0.0170
   42MOL   C48428446   4.371   3.178   0.451  0.6823 -0.5587 -0.0416
   42MOL   C48528447   4.354   3.102   0.326 -0.8122 -0.1513 -0.2582
   42MOL   C48628448   4.203   3.078   0.303  0.6470  0.4740  0.2047
   42MOL   C48728449   4.177   2.998   0.175 -0.5630  0.1914 -0.1595
   42MOL   C48828450   4.037   2.950   0.148 -0.0363  0.1102 -0.6256
   42MOL   C48928451   4.010   2.827   0.234  0.5814 -0.1732  0.1000
   42MOL   O49028452   4.079   2.727   0.238  0.0591  0.4331 -0.7664
   42MOL   H49128453   4.848   3.531   1.012 -2.2581  0.5933  2.0941
   42MOL   H49228454   4.798   3.570   0.727 -2.5283  0.2823  0.2066
   42MOL   H49328455   4.881   3.440   0.803  0.3536 -1.4456  3.5572
   42MOL   H49428456   4.571   3.476   0.832  1.8316  2.2712  0.5525
   42MOL   H49528457   4.673   3.335   0.857  0.9550  1.5077  1.3394
   42MOL   H49628458   4.620   3.469   0.584 -1.6790 -0.7829 -0.0118
   42MOL   H49728459   4.706   3.321   0.620 -0.8276 -1.3094  2.5515
   42MOL   H49828460   4.410   3.338   0.642  0.0346 -0.5581  1.1781
   42MOL   H49928461   4.520   3.207   0.695  0.7705  0.5892  0.9584
   42MOL   H50028462   4.569   3.149   0.479  1.3600  0.1993  2.0513
   42MOL   H50128463   4.533   3.314   0.413  0.0984  0.0228 -0.0340
   42MOL   H50228464   4.348   3.112   0.535  1.2076  1.2256  1.5433
   42MOL   H50328465   4.295   3.256   0.456 -0.3539 -1.5370 -0.3023
   42MOL   H50428466   4.417   3.014   0.335 -0.8079  0.0585  1.9308
   42MOL   H50528467   4.393   3.159   0.241 -0.3955 -0.2567 -0.1381
   42MOL   H50628468   4.154   3.023   0.384 -1.9998 -0.3370 -1.8635
   42MOL   H50728469   4.147   3.172   0.300  0.2285  0.1888 -1.7479
   42MOL   H50828470   4.248   2.916   0.173  0.0559  0.6671  1.7233
   42MOL   H50928471   4.207   3.051   0.085  0.0390 -2.3351 -1.4899
   42MOL   H51028472   4.028   2.937   0.041 -1.3275  0.2045 -0.5296
   42MOL   H51128473   3.958   3.021   0.174  1.1909  0.8927  1.1310
   42MOL   N51228474   3.899   2.826   0.296 -0.1520 -0.8860  0.2516
   42MOL   C51328475   3.859   2.731   0.403 -0.7272  0.3654 -0.4224
   42MOL   C51428476   3.888   2.797   0.536  0.6474 -0.2278  0.2753
   42MOL   C51528477   3.804   2.923   0.558  0.3880  0.3965  0.1355
   42MOL   C51628478   3.838   2.981   0.696  0.0326  0.0636 -0.4232
   42MOL   C51728479   3.750   3.095   0.741 -0.0775  1.3496 -0.8051
   42MOL   C51828480   3.754   3.216   0.649 -0.4838  0.1564  0.2695
   42MOL   C51928481   3.891   3.283   0.633 -0.1854 -0.0892 -0.5709
   42MOL   C52028482   3.955   3.288   0.494  0.0532 -0.3262  0.4251
   42MOL   C52128483   3.919   3.419   0.422  0.2853  0.0897  0.7716
   42MOL   C52228484   3.957   3.422   0.267  0.0972  0.3586 -1.6142
   42MOL   C52328485   3.843   3.373   0.187 -0.0697  0.8067 -0.2200
   42MOL   O52428486   3.838   3.258   0.146 -0.2535  0.2375  0.4913
   42MOL   H52528487   3.842   2.909   0.292 -0.1278 -0.8124  1.5156
   42MOL   H52628488   3.752   2.713   0.395 -0.8330  0.6829  0.2398
   42MOL   H52728489   3.906   2.634   0.386 -0.3759  0.6481 -1.0972
   42MOL   H52828490   3.994   2.822   0.542  0.2761  0.9511  2.4918
   42MOL   H52928491   3.867   2.723   0.613 -2.6990 -0.5846 -0.9110
   42MOL   H53028492   3.812   3.001   0.482  0.1592 -0.5606 -0.9019
   42MOL   H53128493   3.700   2.889   0.559  0.1151  1.0199 -2.2960
   42MOL   H53228494   3.944   3.005   0.704  0.2901 -0.8404 -1.1198
   42MOL   H53328495   3.827   2.897   0.765  3.0829  1.0966  1.4092
   42MOL   H53428496   3.768   3.125   0.844 -0.7078  0.4402 -0.4272
   42MOL   H53528497   3.652   3.049   0.740  1.3468 -1.8008 -0.6681
   42MOL   H53628498   3.719   3.192   0.548 -0.1515 -1.2781  0.4869
   42MOL   H53728499   3.687   3.291   0.692  1.0205  1.5716  0.1876
   42MOL   H53828500   3.963   3.236   0.700 -3.3310 -1.5546  1.8890
   42MOL   H53928501   3.885   3.383   0.678 -0.7636 -0.7562  0.8665
   42MOL   H54028502   4.063   3.277   0.503 -0.0277 -0.9874  0.5910
   42MOL   H54128503   3.925   3.200   0.437  1.4976 -1.7774  1.8649
   42MOL   H54228504   3.991   3.487   0.468 -0.4736  0.3219  1.6354
   42MOL   H54328505   3.820   3.465   0.431  0.1896  0.1090 -0.3166
   42MOL   H54428506   4.045   3.365   0.237 -1.0035 -1.5043 -1.4171
   42MOL   H54528507   3.980   3.518   0.222  2.0430  1.3687  1.3739
   42MOL   N54628508   3.752   3.461   0.167 -0.0155 -0.3854 -0.0500
   42MOL   C54728509   3.636   3.439   0.086  0.0055  0.1608 -0.0023
   42MOL   C54828510   3.560   3.571   0.075 -0.1897  0.2601  0.1621
   42MOL   C54928511   3.437   3.572   7.694 -0.6403  0.8369  0.2419
   42MOL   C55028512   3.364   3.705   0.012  0.5803  0.2274 -0.1576
   42MOL   C55128513   3.273   3.700   0.135 -0.0362 -0.0178  0.0199
   42MOL   C55228514   3.181   3.823   0.143 -0.1771  0.0307  0.2386
   42MOL   C55328515   3.066   3.813   0.241 -0.6268  0.1828  0.1217
   42MOL   C55428516   2.993   3.943   0.244  0.0519 -0.1704  0.2579
   42MOL   C55528517   2.865   3.936   0.331 -0.8058  0.5978 -0.1963
   42MOL   C55628518   2.746   3.850   0.283 -0.1621 -0.3629 -0.0430
   42MOL   C55728519   2.713   3.827   0.137 -1.1846  0.2918 -0.1528
   42MOL   O55828520   2.748   3.716   0.097 -0.2194 -0.0679  0.7016
   42MOL   H55928521   3.763   3.556   0.199  1.7885 -0.8484  0.7772
   42MOL   H56028522   3.680   3.416   7.705  0.8118 -0.1174  0.4267
   42MOL   H56128523   3.585   3.350   0.124  0.5541 -0.4977 -0.7807
   42MOL   H56228524   3.631   3.649   0.046 -0.6239 -0.0181 -1.7064
   42MOL   H56328525   3.527   3.592   0.177 -3.6348  1.1922 -1.1031
   42MOL   H56428526   3.477   3.593   7.595  0.8024 -1.0291  0.3977
   42MOL   H56528527   3.372   3.484   7.697 -0.3245  0.5425 -1.2199
   42MOL   H56628528   3.305   3.730   7.640 -0.0193 -2.5302 -0.5641
   42MOL   H56728529   3.434   3.787   0.028  1.1426 -0.5745  1.7123
   42MOL   H56828530   3.348   3.702   0.213 -0.4618  0.5385  0.4225
   42MOL   H56928531   3.215   3.607   0.135  0.9755 -0.6601 -1.1086
   42MOL   H57028532   3.240   3.913   0.158 -0.5717  0.6426 -1.7936
   42MOL   H57128533   3.132   3.841   0.048 -0.0115  0.8306  0.3001
   42MOL   H57228534   3.102   3.797   0.343 -1.9102  0.5204  0.6453
   42MOL   H57328535   2.999   3.732   0.211  1.6668 -1.6287 -0.2775
   42MOL   H57428536   3.050   4.026   0.285 -1.1701  1.4364 -1.2584
   42MOL   H57528537   2.967   3.975   0.144  0.8661  1.5858  0.5933
   42MOL   H57628538   2.825   4.037   0.334 -0.2945  0.8460 -1.5366
   42MOL   H57728539   2.887   3.910   0.435 -0.1485 -0.5776 -0.6250
   42MOL   H57828540   2.654   3.883   0.332 -0.8417 -0.2243 -1.4123
   42MOL   H57928541   2.764   3.750   0.325  0.0284 -0.1584  0.3678
   42MOL   N58028542   2.647   3.917   0.061  0.0884  0.0934  0.0304
   42MOL   C58128543   2.632   3.906   7.637  0.3652 -0.4437 -0.6365
   42MOL   C58228544   2.694   4.027   7.566  0.2979 -0.0954  0.5940
   42MOL   C58328545   2.634   4.051   7.424  0.1087 -0.2587  0.6244
   42MOL   C58428546   2.741   4.100   7.317  0.8334  0.4579 -0.4246
   42MOL   C58528547   2.689   4.129   7.178 -0.9722  0.1397 -0.5216
   42MOL   C58628548   2.587   4.234   7.153  0.5405 -0.5090  0.4681
   42MOL   C58728549   2.599   4.286   7.015 -0.1672  0.9504 -0.2602
   42MOL   C58828550   2.504   4.402   6.985  0.2979 -0.9589  0.0634
   42MOL   C58928551   2.494   4.439   6.836  0.1616 -0.2905  0.4532
   42MOL   C59028552   2.410   4.341   6.756 -0.1045 -0.6676  0.0646
   42MOL   C59128553   2.386   4.396   6.613 -0.6959  0.4443 -1.0952
   42MOL   O59228554   2.343   4.512   6.603 -0.7072  0.1813  0.5188
   42MOL   H59328555   2.595   3.989   0.108 -0.3583 -0.2466  0.0594
   42MOL   H59428556   2.668   3.814   7.592 -0.6687 -1.5671  0.7854
   42MOL   H59528557   2.526   3.906   7.613 -0.0914 -0.9807  1.2853
   42MOL   H59628558   2.799   3.999   7.555  0.0472 -0.2799 -1.5599
   42MOL   H59728559   2.682   4.124   7.615  1.1586 -0.9306  2.4905
   42MOL   H59828560   2.579   3.965   7.384 -1.4475  0.8051  0.4187
   42MOL   H59928561   2.555   4.127   7.428 -0.8649 -0.9497 -3.5212
   42MOL   H60028562   2.814   4.019   7.311  1.9326  1.2958  1.1591
   42MOL   H60128563   2.801   4.185   7.348  0.0962  0.6583  0.4715
   42MOL   H60228564   2.657   4.041   7.123 -0.7373 -0.0976 -0.2776
   42MOL   H60328565   2.778   4.161   7.123  0.2900  0.4952  1.6537
   42MOL   H60428566   2.486   4.195   7.162  0.8758 -1.6479 -0.6393
   42MOL   H60528567   2.603   4.318   7.222  0.3226 -0.5554  0.5734
   42MOL   H60628568   2.574   4.201   6.952 -0.0447  0.8908 -0.2267
   42MOL   H60728569   2.701   4.321   7.004 -0.2599  1.5189  0.6751
   42MOL   H60828570   2.404   4.381   7.024  0.9867  0.4549  2.7157
   42MOL   H60928571   2.529   4.493   7.039 -1.1582 -0.2935 -0.3586
   42MOL   H61028572   2.590   4.428   6.786 -1.0995 -0.6962 -1.9258
   42MOL   H61128573   2.457   4.540   6.820 -0.8741 -0.3767  2.1797
   42MOL   H61228574   2.320   4.313   6.810  0.1433 -0.4129  0.6149
   42MOL   H61328575   2.473   4.252   6.747  1.5995  0.4766  0.4990
   42MOL   N61428576   2.413   4.308   6.516 -0.4646  0.3721  0.2537
   42MOL   C61528577   2.429   4.341   6.374 -0.2561  0.5277  0.0187
   42MOL   C61628578   2.424   4.213   6.295 -0.6677  0.5385 -0.1104
   42MOL   C61728579   2.440   4.232   6.144  0.2587  0.6317 -0.4160
   42MOL   C61828580   2.403   4.107   6.063 -0.6801 -0.3701  0.0048
   42MOL   C61928581   2.260   4.059   6.071  0.2316 -0.3269 -0.1615
   42MOL   C62028582   2.228   3.954   5.955  0.6812 -0.3353  0.6720
   42MOL   C62128583   2.091   3.884   5.955 -0.0733  0.0388  0.4182
   42MOL   C62228584   1.980   3.984   5.910 -0.0172 -0.5136 -0.0268
   42MOL   C62328585   1.862   3.919   5.838 -0.4695  0.2663  0.1045
   42MOL   C62428586   1.752   4.020   5.803  0.2370  0.3844 -0.4765
   42MOL   C62528587   1.631   3.956   5.734  0.7061  0.2420  0.4726
   42MOL   O62628588   1.642   3.921   5.615 -0.5830 -0.1220  0.3653
   42MOL   H62728589   2.461   4.223   6.543  1.4295  1.0575 -0.8555
   42MOL   H62828590   2.521   4.396   6.359 -0.9558  1.2319 -1.7461
   42MOL   H62928591   2.349   4.409   6.344 -1.8603 -0.9889  0.7398
   42MOL   H63028592   2.343   4.146   6.325 -0.4039 -0.2423 -1.0935
   42MOL   H63128593   2.506   4.158   6.342 -0.4213  1.4994  0.6003
   42MOL   H63228594   2.375   4.312   6.111 -0.4994  0.2054  0.0172
   42MOL   H63328595   2.542   4.270   6.134  0.6084 -0.7016 -2.2897
   42MOL   H63428596   2.455   4.023   6.109  0.3632  0.6718  0.7817
   42MOL   H63528597   2.432   4.115   5.958 -2.2892  1.2873 -0.3325
   42MOL   H63628598   2.189   4.140   6.062  0.2000 -0.2574  0.6734
   42MOL   H63728599   2.239   4.020   6.171 -1.0411 -0.2178 -0.3789
   42MOL   H63828600   2.242   4.013   5.865 -1.2143 -0.4276  0.3048
   42MOL   H63928601   2.312   3.884   5.952 -0.3822 -1.5984 -0.6657
   42MOL   H64028602   2.074   3.824   6.044 -4.1629 -2.1209 -1.6599
   42MOL   H64128603   2.105   3.826   5.864 -0.7753 -0.9617  0.9377
   42MOL   H64228604   1.952   4.040   5.999  0.6392  1.8805 -1.2897
   42MOL   H64328605   2.029   4.049   5.839  0.9994 -1.9809 -0.6935
   42MOL   H64428606   1.816   3.841   5.899 -0.9518 -1.3419 -2.2396
   42MOL   H64528607   1.880   3.853   5.753 -3.6783 -0.7081  0.1004
   42MOL   H64628608   1.784   4.093   5.729 -3.2663  3.2926  0.7785
   42MOL   H64728609   1.713   4.077   5.887 -0.1061 -0.3678 -0.1184
   42MOL   N64828610   1.521   3.939   5.804  0.3647  0.2617  0.5271
   42MOL   C64928611   1.399   3.871   5.775  0.1381 -0.1038 -0.7455
   42MOL   C65028612   1.278   3.955   5.810 -0.0736  0.0424 -0.0905
   42MOL   C65128613   1.158   3.876   5.869  0.0432  0.3412 -0.5357
   42MOL   C65228614   1.028   3.959   5.856  1.0072  0.4296  0.2122
   42MOL   C65328615   1.036   4.092   5.934  0.2340  0.3019  0.0225
   42MOL   C65428616   0.900   4.157   5.960  0.1900 -0.5742  0.3655
   42MOL   C65528617   0.811   4.214   5.846 -0.5496 -0.0278  0.5980
   42MOL   C65628618   0.671   4.259   5.892 -0.7243 -0.6271 -0.6003
   42MOL   C65728619   0.656   4.382   5.983  0.0903  0.2490  0.1238
   42MOL   C65828620   0.512   4.435   6.003  0.9279  0.5743  0.1203
   42MOL   C65928621   0.430   4.347   6.096  1.2203 -0.2421 -0.0857
   42MOL   O66028622   0.478   4.258   6.166 -0.5692 -0.6461 -0.3312
   42MOL   H66128623   1.531   3.958   5.903 -2.8074 -2.5228  1.4983
   42MOL   H66228624   1.401   3.778   5.833 -1.1598  0.3946  0.1075
   42MOL   H66328625   1.398   3.838   5.670  0.4102  2.4587 -1.5776
   42MOL   H66428626   1.245   4.007   5.721  0.9316 -0.5636 -0.8229
   42MOL   H66528627   1.313   4.025   5.887  0.3517 -0.9356  0.6220
   42MOL   H66628628   1.158   3.782   5.815  1.1305  1.0781 -1.8378
   42MOL   H66728629   1.182   3.851   5.973 -0.1119 -0.5844 -0.7189
   42MOL   H66828630   0.943   3.909   5.903  1.2893  0.0988  0.3678
   42MOL   H66928631   0.995   3.985   5.755 -0.7845 -3.0620 -0.1936
   42MOL   H67028632   1.108   4.163   5.892  1.5884 -2.0328 -1.7483
   42MOL   H67128633   1.076   4.086   6.035 -0.2616 -0.2607  0.1860
   42MOL   H67228634   0.840   4.085   6.017  0.5529 -0.5588  0.7730
   42MOL   H67328635   0.904   4.241   6.029  0.1251  0.5965 -1.0503
   42MOL   H67428636   0.808   4.130   5.776 -0.3215 -0.2181  0.8191
   42MOL   H67528637   0.873   4.291   5.799  1.0000 -1.4938  0.2138
   42MOL   H67628638   0.597   4.266   5.813 -0.4405  0.9240 -0.7391
   42MOL   H67728639   0.635   4.172   5.947 -0.1052  0.7593  2.1092
   42MOL   H67828640   0.696   4.470   5.931 -3.6725  1.4491 -0.9194
   42MOL   H67928641   0.705   4.375   6.080 -1.8647 -0.3990  1.0762
   42MOL   H68028642   0.467   4.438   5.904  1.2153 -2.9926 -0.2039
   42MOL   H68128643   0.513   4.536   6.043 -3.2067 -0.4945  3.2747
   42MOL   H68228644   0.326   4.378   6.103  1.5129  0.9728 -0.8887
   43MOL     N128645   7.564   4.405   5.606  1.0555  0.1490  1.1075
   43MOL     C228646   7.696   4.371   5.658  0.7978 -0.0208  1.2215
   43MOL     C328647   7.705   4.383   5.810 -0.2353 -0.7900  0.1346
   43MOL     C428648   0.008   4.523   5.858  0.1296  0.5319  0.4397
   43MOL     C528649   0.091   4.536   5.991  0.5216 -0.6285 -0.4556
   43MOL     C628650   0.078   4.677   6.052 -0.1278  0.5888 -1.0042
   43MOL     C728651   0.170   4.693   6.171 -0.7737 -0.1627 -0.5367
   43MOL     C828652   0.134   4.814   6.256  0.3625  0.0135  0.3069
   43MOL     C928653   0.144   4.951   6.181  0.2326 -1.0355  0.1327
   43MOL    C1028654   0.105   5.079   6.254 -0.7052 -0.6724 -0.0830
   43MOL    C1128655   0.167   5.204   6.177 -0.7234  0.3526  0.0508
   43MOL    C1228656   0.313   5.226   6.223 -0.0531  0.5933 -0.0166
   43MOL    O1328657   0.337   5.249   6.340  0.0377  0.2091 -0.1473
   43MOL    H1428658   7.491   4.358   5.657  0.4528  1.7356  1.7129
   43MOL    H1528659   0.059   4.428   5.609 -0.2626 -1.1640 -1.9394
   43MOL    H1628660   0.006   4.267   5.635  1.4816  0.5884 -0.8183
   43MOL    H1728661   0.078   4.323   5.827 -0.3675 -0.4829  1.9820
   43MOL    H1828662   7.623   4.333   5.861 -1.1587  0.4494 -0.1036
   43MOL    H1928663   0.056   4.589   5.787 -0.1815 -0.2482 -0.5009
   43MOL    H2028664   7.624   4.562   5.880  0.3321  1.0823  0.3817
   43MOL    H2128665   0.194   4.531   5.958 -0.0094 -1.0122 -2.0933
   43MOL    H2228666   0.063   4.455   6.058  0.1190 -1.2284 -1.3408
   43MOL    H2328667   7.686   4.679   6.069  0.2101 -1.6237  1.8557
   43MOL    H2428668   0.099   4.762   5.987  0.3959 -0.0409 -1.6765
   43MOL    H2528669   0.155   4.608   6.236  0.6386 -2.2311 -2.8373
   43MOL    H2628670   0.275   4.694   6.140 -0.2654  2.0147  1.0866
   43MOL    H2728671   0.204   4.820   6.339  1.4190 -2.1293 -0.3916
   43MOL    H2828672   0.031   4.815   6.290  0.9838 -0.0628  2.2334
   43MOL    H2928673   0.244   4.956   6.138  0.2995 -0.4305  0.3545
   43MOL    H3028674   0.081   4.943   6.093 -2.5965 -0.9974  2.1007
   43MOL    H3128675   0.142   5.080   6.357  0.7763 -2.2049 -0.5776
   43MOL    H3228676   7.712   5.074   6.258 -0.7960  1.2125  0.3239
   43MOL    H3328677   0.111   5.292   6.209 -0.7780  0.3348  0.0054
   43MOL    H3428678   0.148   5.211   6.070  0.0442 -0.3081 -0.1311
   43MOL    H3528679   7.548   4.502   5.628  1.4759  0.8568 -1.5452
   43MOL    N3628680   0.407   5.233   6.128 -0.3432  0.5453 -0.6060
   43MOL    C3728681   0.545   5.268   6.151  0.0690  0.9033 -0.2950
   43MOL    C3828682   0.632   5.135   6.166 -0.2290 -0.0556 -0.0965
   43MOL    C3928683   0.771   5.146   6.114 -0.1717  0.3516  0.1936
   43MOL    C4028684   0.845   5.015   6.130 -0.6094 -0.3736  0.3422
   43MOL    C4128685   0.980   5.015   6.054 -0.1456  0.0909  0.1105
   43MOL    C4228686   1.086   4.925   6.122 -0.8059 -0.3444  0.4564
   43MOL    C4328687   1.215   4.927   6.041  0.1574  0.7540 -0.0622
   43MOL    C4428688   1.302   4.810   6.074  0.0108  0.5136  0.3995
   43MOL    C4528689   1.457   4.837   6.063 -0.0694 -0.2900 -0.5196
   43MOL    C4628690   1.498   4.934   6.177 -0.4912 -1.0603 -0.5729
   43MOL    C4728691   1.648   4.936   6.179  0.2721 -1.3582  0.2391
   43MOL    O4828692   1.698   4.881   6.275 -0.4556  0.5729  0.1024
   43MOL    H4928693   0.374   5.215   6.034  1.9288  3.1682 -1.9817
   43MOL    H5028694   0.579   5.332   6.069 -1.9411  2.6899  0.2092
   43MOL    H5128695   0.553   5.321   6.246 -0.9261  0.7441 -0.1261
   43MOL    H5228696   0.596   5.058   6.098 -0.7744 -1.7322  2.0264
   43MOL    H5328697   0.625   5.105   6.271  3.2560 -3.8592 -0.8182
   43MOL    H5428698   0.761   5.176   6.009 -0.1102  0.4785  0.2238
   43MOL    H5528699   0.832   5.215   6.171  1.5835  0.0277 -1.2473
   43MOL    H5628700   0.782   4.935   6.090  0.5600 -1.5976  0.9175
   43MOL    H5728701   0.871   4.989   6.232  0.2790 -0.1231  0.1769
   43MOL    H5828702   1.014   5.116   6.032 -0.0755  0.4057  1.6015
   43MOL    H5928703   0.966   4.967   5.957  2.9923 -1.4887  0.3931
   43MOL    H6028704   1.111   4.970   6.218 -0.6789 -0.9512  0.7068
   43MOL    H6128705   1.037   4.828   6.120 -0.2056 -0.6143 -2.5226
   43MOL    H6228706   1.258   5.023   6.072 -1.8007  1.3120  1.0734
   43MOL    H6328707   1.214   4.939   5.933  3.9575  2.2547 -0.0110
   43MOL    H6428708   1.286   4.778   6.178  2.0464 -0.9585  0.3107
   43MOL    H6528709   1.268   4.727   6.011  1.5143  0.5343 -0.4563
   43MOL    H6628710   1.491   4.870   5.965 -0.0037 -0.5756 -0.5931
   43MOL    H6728711   1.494   4.742   6.102 -2.3990 -1.2519 -0.5427
   43MOL    H6828712   1.452   4.893   6.267 -0.5904 -0.4050 -0.3153
   43MOL    H6928713   1.451   5.028   6.149 -2.2541 -1.4765  0.9409
   43MOL    N7028714   1.715   5.000   6.081 -0.1099  0.3408 -0.3080
   43MOL    C7128715   1.859   4.993   6.057  0.6143  0.4691 -0.6231
   43MOL    C7228716   1.938   5.074   6.154 -0.2851  0.1063  0.5399
   43MOL    C7328717   2.089   5.076   6.096 -0.6677  0.0008 -0.6173
   43MOL    C7428718   2.186   5.141   6.202 -0.0928  0.3757 -0.0823
   43MOL    C7528719   2.334   5.132   6.147  0.0394 -0.5065  0.2854
   43MOL    C7628720   2.442   5.192   6.240  0.3333  0.5066  0.4271
   43MOL    C7728721   2.438   5.347   6.245 -0.5129 -0.7635 -0.1120
   43MOL    C7828722   2.554   5.402   6.331 -0.0473 -0.5513  0.4651
   43MOL    C7928723   2.549   5.554   6.346 -0.4602 -0.3485 -0.9263
   43MOL    C8028724   2.676   5.616   6.416  1.0321  0.4086 -0.3027
   43MOL    C8128725   2.790   5.638   6.326 -0.2234 -0.4728  0.7301
   43MOL    O8228726   2.775   5.702   6.218  0.1711 -0.0199  0.4509
   43MOL    H8328727   1.664   5.036   6.001 -0.7386  1.5538  0.6225
   43MOL    H8428728   1.891   4.889   6.061  2.1566  0.9654  0.1515
   43MOL    H8528729   1.884   5.013   5.952 -3.0573 -0.3875 -1.7528
   43MOL    H8628730   1.939   5.039   6.257  0.0052  1.7673  1.1221
   43MOL    H8728731   1.906   5.178   6.151  1.6900  0.6938 -0.9436
   43MOL    H8828732   2.115   4.972   6.080  0.0380  0.2577 -1.1832
   43MOL    H8928733   2.088   5.122   5.997  1.0791 -1.3358 -1.2752
   43MOL    H9028734   2.182   5.102   6.304 -1.0403  0.4105 -0.1040
   43MOL    H9128735   2.157   5.245   6.219 -0.3211  0.0634  1.4888
   43MOL    H9228736   2.331   5.175   6.046 -0.8591 -1.9893 -0.3273
   43MOL    H9328737   2.371   5.031   6.135 -0.5979 -0.6237 -0.7799
   43MOL    H9428738   2.426   5.152   6.340  0.6876 -0.0304  0.2726
   43MOL    H9528739   2.542   5.161   6.212 -0.2387 -0.4350 -0.6539
   43MOL    H9628740   2.346   5.387   6.287  1.0266  1.9981  0.7828
   43MOL    H9728741   2.443   5.386   6.143 -2.0672  0.1987  0.1593
   43MOL    H9828742   2.544   5.359   6.430  0.0973 -1.0614  0.2614
   43MOL    H9928743   2.647   5.371   6.284 -1.1308 -3.0577 -0.1479
   43MOL   H10028744   2.460   5.580   6.403  1.0930  2.7951  0.1972
   43MOL   H10128745   2.531   5.602   6.249  2.1146 -1.3861 -1.9616
   43MOL   H10228746   2.702   5.565   6.509 -1.6504  0.0001  0.2800
   43MOL   H10328747   2.647   5.714   6.455 -1.8829 -1.0015  1.2496
   43MOL   N10428748   2.916   5.595   6.361  0.6203 -0.1367 -0.4786
   43MOL   C10528749   3.031   5.617   6.276  0.3657 -0.1420 -0.1966
   43MOL   C10628750   3.126   5.723   6.329 -0.3285 -0.2271  0.4239
   43MOL   C10728751   3.245   5.752   6.240 -0.1788 -0.0572  0.0259
   43MOL   C10828752   3.340   5.861   6.303  0.5555  0.3816 -0.0516
   43MOL   C10928753   3.406   5.940   6.185 -0.3350  0.4772  0.3954
   43MOL   C11028754   3.501   6.053   6.233 -0.5898 -0.7283 -0.0853
   43MOL   C11128755   3.627   5.996   6.303 -0.0373 -0.2241 -0.0156
   43MOL   C11228756   3.739   6.093   6.329  0.4023  0.2595  0.0676
   43MOL   C11328757   3.866   6.008   6.365  0.0284 -0.0234  0.2301
   43MOL   C11428758   3.998   6.094   6.383 -0.3383 -1.0006 -0.6459
   43MOL   C11528759   4.060   6.159   6.258  0.3560  0.1446  0.4320
   43MOL   O11628760   4.106   6.086   6.169  0.3446  0.0927 -0.8984
   43MOL   H11728761   2.919   5.545   6.449 -0.8115  1.0135  0.2450
   43MOL   H11828762   3.083   5.522   6.274 -0.2591 -0.4972  0.1853
   43MOL   H11928763   3.013   5.639   6.171  1.5629  1.3531 -0.1082
   43MOL   H12028764   3.167   5.695   6.426  0.1881 -2.4709 -0.3996
   43MOL   H12128765   3.069   5.814   6.348  0.3497  0.1954  0.4540
   43MOL   H12228766   3.299   5.658   6.225 -1.2144 -0.4988 -1.0346
   43MOL   H12328767   3.214   5.785   6.141  1.4769  2.0404  0.1795
   43MOL   H12428768   3.425   5.820   6.358  0.7118 -1.4658 -1.6079
   43MOL   H12528769   3.288   5.929   6.370  1.3230  0.2955  0.6230
   43MOL   H12628770   3.317   5.978   6.135 -0.3033  0.9946  0.7225
   43MOL   H12728771   3.462   5.876   6.117  0.2470  2.3412 -0.9190
   43MOL   H12828772   3.546   6.113   6.154 -2.4087 -0.6170 -1.0897
   43MOL   H12928773   3.447   6.110   6.309 -0.8320 -1.9950  0.7166
   43MOL   H13028774   3.661   5.917   6.236  0.3528  1.6352 -2.0631
   43MOL   H13128775   3.610   5.943   6.397  2.1227 -2.0398 -0.6309
   43MOL   H13228776   3.751   6.144   6.233 -2.0749  1.0354  0.1428
   43MOL   H13328777   3.721   6.162   6.411  1.2349 -0.1424  0.6039
   43MOL   H13428778   3.885   5.931   6.290 -1.7152 -1.6066  1.3655
   43MOL   H13528779   3.851   5.942   6.451 -0.7778 -1.1684 -0.7718
   43MOL   H13628780   4.066   6.031   6.442  0.7465  0.8591  0.1490
   43MOL   H13728781   3.973   6.171   6.456  2.2114  0.2272 -1.0167
   43MOL   N13828782   4.051   6.292   6.253 -0.3504  0.5618  0.0132
   43MOL   C13928783   4.098   6.368   6.145  0.2706  0.2088  0.2831
   43MOL   C14028784   3.996   6.373   6.027 -0.2476 -0.6177  0.8608
   43MOL   C14128785   3.952   6.516   5.970 -0.2179  0.1913  0.7702
   43MOL   C14228786   3.861   6.593   6.065  0.4980  0.3950  0.1999
   43MOL   C14328787   3.714   6.555   6.068 -0.1856  0.2894  0.0688
   43MOL   C14428788   3.639   6.606   6.192  0.2772  0.5536 -0.4652
   43MOL   C14528789   3.646   6.769   6.203  0.1716  0.4090  0.2173
   43MOL   C14628790   3.572   6.837   6.314 -0.4094  0.7837 -0.3517
   43MOL   C14728791   3.627   6.975   6.334 -0.4482 -0.3135 -0.0527
   43MOL   C14828792   3.556   7.043   6.450 -0.4118  0.2223  0.1557
   43MOL   C14928793   3.412   7.093   6.412  0.0576  0.5594  0.0878
   43MOL   O15028794   3.393   7.180   6.324  0.0977 -0.7232  0.6149
   43MOL   H15128795   4.033   6.342   6.339  2.8677 -0.5293  1.3684
   43MOL   H15228796   4.112   6.469   6.181 -1.1323  0.9543 -1.1885
   43MOL   H15328797   4.189   6.320   6.109  0.4569 -1.1692  2.4984
   43MOL   H15428798   3.909   6.312   6.052 -1.9241  0.2263 -2.5171
   43MOL   H15528799   4.039   6.308   5.951 -0.6132  0.8736 -0.6609
   43MOL   H15628800   4.044   6.570   5.950 -0.3019 -0.0147 -0.1839
   43MOL   H15728801   3.897   6.512   5.877 -2.6457 -1.8481  2.2123
   43MOL   H15828802   3.871   6.700   6.045 -1.2734  0.3482 -0.9885
   43MOL   H15928803   3.912   6.583   6.161  0.5012  2.5377  0.4441
   43MOL   H16028804   3.688   6.449   6.070 -0.8055  0.3948 -1.6994
   43MOL   H16128805   3.669   6.614   5.988  0.3303 -0.3605 -0.7068
   43MOL   H16228806   3.535   6.577   6.207  0.5671 -0.1614  0.1816
   43MOL   H16328807   3.686   6.561   6.279 -1.9744 -1.8345 -0.4273
   43MOL   H16428808   3.606   6.817   6.114  2.7074  3.2597  0.5375
   43MOL   H16528809   3.748   6.806   6.207  0.5542 -0.4901 -1.1508
   43MOL   H16628810   3.463   6.834   6.304 -0.3758 -3.9735 -0.0480
   43MOL   H16728811   3.591   6.771   6.399 -1.6459  1.0614  0.1563
   43MOL   H16828812   3.620   7.039   6.246 -2.2738 -2.1820 -1.3130
   43MOL   H16928813   3.733   6.977   6.359 -0.3820  0.0354 -0.3534
   43MOL   H17028814   3.606   7.132   6.487  1.5326 -1.3166  1.3632
   43MOL   H17128815   3.558   6.992   6.547  1.7704 -0.5742 -0.2869
   43MOL   N17228816   3.314   7.026   6.474 -0.3679  0.7322 -0.6908
   43MOL   C17328817   3.179   7.073   6.476 -0.4462  0.3799 -0.0186
   43MOL   C17428818   3.089   7.027   6.591  0.4509 -0.1633  0.2114
   43MOL   C17528819   2.952   7.092   6.597 -0.6540  0.5691  0.1785
   43MOL   C17628820   2.857   7.039   6.706  0.7701  0.7440 -0.0976
   43MOL   C17728821   2.915   7.038   6.845  0.2670  0.4687  0.1580
   43MOL   C17828822   2.805   6.995   6.947 -0.9413 -0.1331 -0.1609
   43MOL   C17928823   2.849   7.024   7.093  0.4133  0.0232 -0.6924
   43MOL   C18028824   2.766   6.928   7.188  0.1733 -0.0472  0.0557
   43MOL   C18128825   2.800   6.952   7.334 -0.0357  0.0412 -1.0167
   43MOL   C18228826   2.695   6.891   7.437 -0.0929 -0.4473  0.2489
   43MOL   C18328827   2.740   6.916   7.581 -0.1345 -0.1577  0.9099
   43MOL   O18428828   2.849   6.870   7.619  0.2111  0.3877  0.1909
   43MOL   H18528829   3.333   6.934   6.511  0.5279  0.7107 -1.1936
   43MOL   H18628830   3.172   7.182   6.477  0.9695  0.4806  1.3235
   43MOL   H18728831   3.139   7.047   6.378  2.2549 -1.2484 -0.7315
   43MOL   H18828832   3.130   7.049   6.690 -0.7302  0.1937  0.6224
   43MOL   H18928833   3.070   6.920   6.576 -1.9540  0.0251  1.6626
   43MOL   H19028834   2.970   7.198   6.614  1.1042  0.3625 -0.3229
   43MOL   H19128835   2.913   7.078   6.496 -1.1871  1.2753  0.2821
   43MOL   H19228836   2.835   6.936   6.678  0.8381  0.3690  1.2219
   43MOL   H19328837   2.761   7.090   6.697  1.2138  1.8208  1.0633
   43MOL   H19428838   2.949   7.132   6.889  1.9028  0.1082 -0.2883
   43MOL   H19528839   2.997   6.966   6.849  0.2693  0.4061 -0.9097
   43MOL   H19628840   2.709   7.040   6.924 -1.5571 -0.7218  1.1979
   43MOL   H19728841   2.783   6.888   6.943  0.0962 -0.3883  0.5406
   43MOL   H19828842   2.833   7.129   7.120  3.7488  0.8516 -1.6730
   43MOL   H19928843   2.955   7.001   7.102  0.1194 -0.8126  0.7899
   43MOL   H20028844   2.658   6.946   7.182  0.4450  1.5089 -0.2601
   43MOL   H20128845   2.773   6.821   7.167 -1.7471 -0.4536  1.3313
   43MOL   H20228846   2.811   7.058   7.358 -1.2028 -0.2216  0.7691
   43MOL   H20328847   2.902   6.918   7.352  0.0418  1.0537  0.5987
   43MOL   H20428848   2.685   6.782   7.436 -4.0403 -0.1564  0.9591
   43MOL   H20528849   2.602   6.941   7.412  0.4972 -0.2842 -1.7269
   43MOL   N20628850   2.652   6.980   7.656 -0.3362 -0.0242 -0.4322
   43MOL   C20728851   2.662   7.006   0.084 -0.4320 -0.0494  0.1023
   43MOL   C20828852   2.535   7.070   0.137  0.4431  0.6511  0.1904
   43MOL   C20928853   2.414   6.978   0.158  0.0141 -0.7167  0.1207
   43MOL   C21028854   2.300   7.042   0.242 -0.1641  0.1798  0.2355
   43MOL   C21128855   2.191   6.936   0.265  0.6216  0.0481  0.6038
   43MOL   C21228856   2.093   6.978   0.374  0.2544 -0.0306  0.4417
   43MOL   C21328857   1.993   6.876   0.405 -0.1976 -0.2635 -0.4922
   43MOL   C21428858   1.863   6.922   0.474  0.4489 -0.4642  0.9833
   43MOL   C21528859   1.756   6.998   0.388  0.3930 -0.8252 -0.2995
   43MOL   C21628860   1.618   7.003   0.447 -0.7884 -0.3630 -1.2735
   43MOL   C21728861   1.581   7.126   0.531  0.3082 -0.4404 -0.2757
   43MOL   O21828862   1.563   7.116   0.655  0.7340  0.0857  0.3913
   43MOL   H21928863   2.573   7.027   7.614 -1.8173 -2.1650 -0.1150
   43MOL   H22028864   2.744   7.077   0.098  0.1593 -0.6093 -0.4649
   43MOL   H22128865   2.688   6.911   0.131 -0.9710 -0.5944 -0.7016
   43MOL   H22228866   2.495   7.150   0.074 -0.1248  0.1417 -0.1062
   43MOL   H22328867   2.560   7.118   0.232 -0.1141  0.4128  0.4568
   43MOL   H22428868   2.375   6.943   0.063 -0.7303 -0.2516  0.2548
   43MOL   H22528869   2.454   6.893   0.214  0.9301 -1.7722 -2.0809
   43MOL   H22628870   2.274   7.139   0.199 -1.1481  0.1748  0.8062
   43MOL   H22728871   2.348   7.070   0.336  2.3329 -4.2476  0.4132
   43MOL   H22828872   2.235   6.839   0.289  0.5288 -0.5227 -1.4336
   43MOL   H22928873   2.144   6.931   0.166  0.7454  1.4406  0.4652
   43MOL   H23028874   2.146   7.017   0.461 -0.5895 -0.9385  1.3723
   43MOL   H23128875   2.039   7.067   0.342 -2.2539 -1.5923  0.1892
   43MOL   H23228876   2.044   6.792   0.452  3.2693  0.8885 -2.0332
   43MOL   H23328877   1.960   6.832   0.311  3.2764 -1.3729 -1.2627
   43MOL   H23428878   1.817   6.829   0.507  0.3297 -1.1266 -1.0343
   43MOL   H23528879   1.883   6.981   0.564 -3.6161 -2.0356  2.9933
   43MOL   H23628880   1.749   6.934   0.300 -1.6643 -2.2037  0.8392
   43MOL   H23728881   1.784   7.097   0.354 -1.1015 -0.1562  0.3866
   43MOL   H23828882   1.602   6.913   0.506 -2.1875  2.2709  2.5326
   43MOL   H23928883   1.551   7.014   0.362 -0.8407  1.8834 -0.9675
   43MOL   N24028884   1.574   7.239   0.461 -0.3217 -0.3203  0.3460
   43MOL   C24128885   1.527   7.368   0.513 -0.9137  0.1981 -0.3383
   43MOL   C24228886   1.532   7.467   0.401  0.4318 -0.1781 -0.7212
   43MOL   C24328887   1.663   7.472   0.321 -0.3569  0.4916  0.0900
   43MOL   C24428888   1.652   7.547   0.186 -0.6203 -0.1015 -0.2967
   43MOL   C24528889   1.575   7.681   0.190 -0.3283 -0.0974  0.7722
   43MOL   C24628890   1.560   0.035   0.056 -0.1996 -0.6698 -0.1965
   43MOL   C24728891   1.454   0.149   0.044  0.3263  0.4565  0.3578
   43MOL   C24828892   1.457   0.230   7.624  0.0895 -0.2824  0.8318
   43MOL   C24928893   1.366   0.166   7.516 -0.1352 -0.8867  0.4451
   43MOL   C25028894   1.317   0.269   7.418 -0.3312  0.0168  0.3693
   43MOL   C25128895   1.424   0.338   7.331 -0.4996  0.0837 -0.1043
   43MOL   O25228896   1.521   0.267   7.287 -0.2718  0.3665  0.4264
   43MOL   H25328897   1.599   7.230   0.363 -0.6331 -2.0584  0.4112
   43MOL   H25428898   1.585   7.392   0.602  0.3476 -2.9376 -0.2497
   43MOL   H25528899   1.430   7.361   0.563 -0.8498  0.6309 -0.1535
   43MOL   H25628900   1.510   7.571   0.425 -0.1014 -0.1595 -1.2701
   43MOL   H25728901   1.450   7.438   0.335 -1.0508  1.2785  0.4337
   43MOL   H25828902   1.729   7.529   0.385 -0.6090  0.5546  0.2961
   43MOL   H25928903   1.714   7.377   0.305 -1.0897  0.0141  0.5756
   43MOL   H26028904   1.606   7.483   0.110 -0.2738 -0.2491 -0.3865
   43MOL   H26128905   1.753   7.563   0.148 -1.0512  3.2357 -0.2282
   43MOL   H26228906   1.636   0.025   0.258  2.8585 -2.6335  0.2718
   43MOL   H26328907   1.476   7.659   0.228  0.0143  1.1770  2.4708
   43MOL   H26428908   1.659   0.078   0.037 -0.9269  1.0557 -0.1712
   43MOL   H26528909   1.527   7.684   7.692  1.2736 -4.5720  2.3501
   43MOL   H26628910   1.459   0.213   0.132 -2.0871 -0.1568  0.9634
   43MOL   H26728911   1.359   0.097   0.050 -0.5297  2.0112  0.4561
   43MOL   H26828912   1.429   0.333   7.644  1.5277  0.2988 -0.1168
   43MOL   H26928913   1.559   0.242   7.588  0.2327 -2.7643  0.3260
   43MOL   H27028914   1.277   0.120   7.557 -0.2816  0.5325  1.7533
   43MOL   H27128915   1.417   0.085   7.463 -2.9419 -1.2983 -1.7256
   43MOL   H27228916   1.246   0.341   7.458  0.0964  0.3238  0.5797
   43MOL   H27328917   1.260   0.216   7.341  0.6070 -1.4212  0.6440
   43MOL   N27428918   1.413   0.470   7.308 -0.0087 -0.0604 -0.4404
   43MOL   C27528919   1.496   0.545   7.217  0.1108  0.0385 -0.8778
   43MOL   C27628920   1.506   0.688   7.254 -0.3146 -0.4699  0.8289
   43MOL   C27728921   1.601   0.780   7.183  0.9789 -0.5881  0.5323
   43MOL   C27828922   1.531   0.836   7.056  0.3356  0.6005 -0.3066
   43MOL   C27928923   1.617   0.925   6.966  0.3163 -0.5198  0.3120
   43MOL   C28028924   1.536   0.994   6.855 -0.2240 -0.1746  0.7088
   43MOL   C28128925   1.621   1.106   6.787 -0.2025  0.4372  0.2323
   43MOL   C28228926   1.555   1.141   6.658  0.5623 -0.0600 -0.0198
   43MOL   C28328927   1.429   1.235   6.666 -0.2422  0.2404  0.2078
   43MOL   C28428928   1.365   1.254   6.531  0.6524 -0.4249 -0.2199
   43MOL   C28528929   1.281   1.138   6.490  0.7017 -0.1159 -0.4069
   43MOL   O28628930   1.188   1.095   6.559  0.5965 -0.6003  0.3235
   43MOL   H28728931   1.327   0.519   7.328  0.9869  2.2914 -1.7430
   43MOL   H28828932   1.452   0.547   7.117 -1.4604  0.0593 -0.1983
   43MOL   H28928933   1.600   0.511   7.218  0.0724 -0.2691 -3.4485
   43MOL   H29028934   1.529   0.693   7.361  0.2286  2.9038  0.6240
   43MOL   H29128935   1.402   0.716   7.240 -0.0696  0.6605  1.2247
   43MOL   H29228936   1.625   0.869   7.240 -0.8221  1.7899 -2.3186
   43MOL   H29328937   1.694   0.724   7.168 -0.1223 -2.0039 -1.1981
   43MOL   H29428938   1.446   0.899   7.082  2.9248  3.5028  1.4712
   43MOL   H29528939   1.492   0.751   6.999  0.8160  0.4732 -0.4474
   43MOL   H29628940   1.714   0.886   6.934 -0.0363 -0.5506 -0.7109
   43MOL   H29728941   1.650   1.003   7.036 -1.0049 -1.0939  1.6008
   43MOL   H29828942   1.501   0.921   6.783  1.0349  2.1063 -2.3174
   43MOL   H29928943   1.445   1.038   6.895  0.6121  2.2607  0.0603
   43MOL   H30028944   1.718   1.061   6.767  0.6777  1.6189  1.6900
   43MOL   H30128945   1.640   1.188   6.856  0.0884 -1.7525  2.8389
   43MOL   H30228946   1.631   1.192   6.599  2.6463 -3.1056 -0.0789
   43MOL   H30328947   1.536   1.051   6.599 -0.4955 -0.7848  1.3831
   43MOL   H30428948   1.465   1.330   6.706 -0.0034 -0.1393  0.9231
   43MOL   H30528949   1.353   1.207   6.739 -0.4417 -0.2225 -0.1743
   43MOL   H30628950   1.430   1.295   6.454  0.5419 -0.4078 -0.3031
   43MOL   H30728951   1.307   1.343   6.554 -1.0493 -1.3175 -0.9548
   43MOL   N30828952   1.317   1.084   6.380  0.1805 -0.2184  0.4573
   43MOL   C30928953   1.249   0.974   6.313 -0.3917 -0.3275  0.0709
   43MOL   C31028954   1.299   0.969   6.170  0.4574 -0.1115  0.1874
   43MOL   C31128955   1.222   0.885   6.074  0.4656  0.6274 -0.4210
   43MOL   C31228956   1.251   0.916   5.924 -0.0230 -0.2865  0.2276
   43MOL   C31328957   1.368   0.841   5.866 -0.2971 -1.1886  0.7032
   43MOL   C31428958   1.363   0.854   5.708 -0.8943 -0.5709 -0.2041
   43MOL   C31528959   1.471   0.767   5.634  0.1196 -0.3612  1.0247
   43MOL   C31628960   1.447   0.615   5.646 -0.7169 -0.0260 -0.3244
   43MOL   C31728961   1.523   0.524   5.553 -0.3715  0.3151 -0.5528
   43MOL   C31828962   1.480   0.375   5.563  0.5127 -0.3533 -0.1606
   43MOL   C31928963   1.347   0.340   5.490 -0.8450 -0.0009 -0.0929
   43MOL   O32028964   1.238   0.340   5.551 -0.3478  0.5940  0.2546
   43MOL   H32128965   1.376   1.143   6.323  2.9176 -1.7344  1.6322
   43MOL   H32228966   1.140   0.973   6.324 -0.8434  3.5504 -2.8410
   43MOL   H32328967   1.287   0.886   6.365  2.5316  0.6606 -0.2870
   43MOL   H32428968   1.397   0.921   6.175  0.2145 -0.7648 -1.3225
   43MOL   H32528969   1.293   1.074   6.139  0.8914 -0.5064 -1.2838
   43MOL   H32628970   1.252   0.780   6.083 -1.1463 -0.0798 -2.7589
   43MOL   H32728971   1.115   0.896   6.093  0.5193  3.2260 -1.3962
   43MOL   H32828972   1.268   1.022   5.907  3.5615 -1.2832 -3.0981
   43MOL   H32928973   1.160   0.883   5.874  1.7963 -4.2187 -0.6632
   43MOL   H33028974   1.348   0.738   5.894  1.9850 -1.4479  1.5193
   43MOL   H33128975   1.465   0.855   5.913  0.1914 -0.1489 -0.5728
   43MOL   H33228976   1.265   0.812   5.686 -1.1374 -0.1300  0.0340
   43MOL   H33328977   1.370   0.960   5.683 -1.5753 -0.6494 -0.7291
   43MOL   H33428978   1.571   0.796   5.667  0.4200  1.4109 -1.3603
   43MOL   H33528979   1.455   0.786   5.528 -0.3418  2.1552  1.5197
   43MOL   H33628980   1.448   0.577   5.749  1.3979  2.9065  0.8124
   43MOL   H33728981   1.342   0.593   5.628 -1.0793  1.4456 -0.0794
   43MOL   H33828982   1.629   0.526   5.580 -0.2579  0.8932 -1.0298
   43MOL   H33928983   1.527   0.549   5.447 -0.1181 -2.3496 -1.1981
   43MOL   H34028984   1.479   0.339   5.666  0.8705  0.4217  0.1127
   43MOL   H34128985   1.560   0.318   5.516  1.1650 -1.1872  1.9373
   43MOL   N34228986   1.352   0.327   5.360  0.2556 -0.3609  0.0043
   43MOL   C34328987   1.241   0.348   5.271 -0.2831  0.2630  0.3169
   43MOL   C34428988   1.227   0.499   5.242 -0.2197  0.7784 -0.6058
   43MOL   C34528989   1.353   0.567   5.182 -0.1013 -0.1518 -1.1330
   43MOL   C34628990   1.330   0.718   5.148  0.5870  1.0100 -0.3444
   43MOL   C34728991   1.323   0.810   5.275  0.0109 -0.3453 -0.0400
   43MOL   C34828992   1.323   0.954   5.229 -0.3718 -0.0259 -0.2713
   43MOL   C34928993   1.282   1.049   5.336  0.0529  0.1772  0.1038
   43MOL   C35028994   1.294   1.192   5.285 -0.3504 -0.1397  0.0204
   43MOL   C35128995   1.423   1.268   5.325 -0.6953 -0.1348 -0.5593
   43MOL   C35228996   1.424   1.415   5.276  0.1039 -0.3674  0.4363
   43MOL   C35328997   1.548   1.491   5.305 -0.3739 -0.2163  0.0913
   43MOL   O35428998   1.644   1.496   5.228 -0.2254  0.5596  0.1275
   43MOL   H35528999   1.445   0.316   5.323  1.0923  1.9548  1.2708
   43MOL   H35629000   1.256   0.297   5.176  1.1844 -1.0184  1.2177
   43MOL   H35729001   1.142   0.324   5.311 -0.2534  1.6325  1.2719
   43MOL   H35829002   1.183   0.557   5.323  0.3462  0.4009 -0.0259
   43MOL   H35929003   1.150   0.503   5.165 -1.8401  1.3139  0.9984
   43MOL   H36029004   1.442   0.560   5.244 -0.9940  1.5409  0.3867
   43MOL   H36129005   1.377   0.510   5.092  0.5213 -0.3581 -0.8418
   43MOL   H36229006   1.253   0.734   5.072 -0.4896  1.2349  0.7788
   43MOL   H36329007   1.424   0.748   5.102  0.7242 -0.3742 -0.9991
   43MOL   H36429008   1.407   0.799   5.343 -1.3096  2.3131  2.1131
   43MOL   H36529009   1.243   0.787   5.345  0.4448  0.5096  0.7456
   43MOL   H36629010   1.424   0.990   5.208 -0.4208 -0.2623 -0.9422
   43MOL   H36729011   1.256   0.959   5.143  0.7350  1.4306 -1.0760
   43MOL   H36829012   1.350   1.032   5.420 -0.7975  0.6097  0.8917
   43MOL   H36929013   1.176   1.035   5.357  0.2044 -1.2551 -0.0995
   43MOL   H37029014   1.295   1.201   5.176  2.9504  1.5323  0.1456
   43MOL   H37129015   1.204   1.242   5.320 -0.2478 -0.0221  0.1145
   43MOL   H37229016   1.501   1.216   5.269  0.3655  0.2893  0.5037
   43MOL   H37329017   1.440   1.248   5.431  2.8730 -0.0139 -1.0298
   43MOL   H37429018   1.347   1.471   5.330 -1.2198 -1.2384 -0.5201
   43MOL   H37529019   1.385   1.427   5.175 -0.6751  1.9284  0.9711
   43MOL   N37629020   1.544   1.551   5.426  0.3591 -0.4387 -0.2508
   43MOL   C37729021   1.660   1.619   5.479 -0.6051 -0.2420 -0.5031
   43MOL   C37829022   1.637   1.626   5.631 -0.2839  0.2821  0.2318
   43MOL   C37929023   1.755   1.703   5.703  0.3142 -0.1241 -0.8229
   43MOL   C38029024   1.766   1.671   5.864  1.3824  0.0204  0.3203
   43MOL   C38129025   1.912   1.706   5.910 -0.1788  0.3329 -0.7361
   43MOL   C38229026   2.009   1.586   5.903 -0.1937 -0.3139 -0.1331
   43MOL   C38329027   2.007   1.488   6.024 -0.1084  0.5096  0.5704
   43MOL   C38429028   2.104   1.377   6.014 -0.2459  0.1922 -0.3913
   43MOL   C38529029   2.050   1.268   5.922 -0.4397  0.5538 -0.0266
   43MOL   C38629030   2.125   1.137   5.914 -0.4985  0.5526 -0.0166
   43MOL   C38729031   2.086   1.039   6.023  1.0047 -0.4614  0.0823
   43MOL   O38829032   1.964   1.002   6.035  0.1291 -0.3004 -0.6916
   43MOL   H38929033   1.465   1.542   5.488  0.9053  0.7239  0.6454
   43MOL   H39029034   1.758   1.576   5.460  0.9979  2.4694  1.3022
   43MOL   H39129035   1.660   1.718   5.431 -0.5621  0.6187  1.2473
   43MOL   H39229036   1.648   1.521   5.658 -1.8058 -0.5558 -2.2364
   43MOL   H39329037   1.537   1.663   5.655 -0.7988  0.8273 -2.6184
   43MOL   H39429038   1.851   1.684   5.655 -0.1054  0.1756 -1.7943
   43MOL   H39529039   1.734   1.808   5.684  0.6008  0.7049  3.0097
   43MOL   H39629040   1.730   1.569   5.878  0.7090  0.3744  1.2561
   43MOL   H39729041   1.699   1.741   5.915  0.7546 -0.5260  0.2478
   43MOL   H39829042   1.914   1.736   6.015  0.4777  1.2995 -1.0153
   43MOL   H39929043   1.945   1.791   5.850  0.0356 -0.0080 -1.1045
   43MOL   H40029044   1.982   1.537   5.809  3.2327 -1.1544 -0.7460
   43MOL   H40129045   2.109   1.629   5.894  0.2683 -0.9596  1.7310
   43MOL   H40229046   1.917   1.429   6.040 -0.3386  0.8029  0.3618
   43MOL   H40329047   2.013   1.542   6.119  3.8322 -0.9216  1.2300
   43MOL   H40429048   2.201   1.410   5.978 -1.2823  2.6468 -1.0724
   43MOL   H40529049   2.116   1.338   6.115  2.6469 -0.4664 -0.9441
   43MOL   H40629050   2.065   1.321   5.828 -0.0430  0.3206 -0.0983
   43MOL   H40729051   1.944   1.259   5.943 -0.6256 -1.4358 -1.7006
   43MOL   H40829052   2.231   1.160   5.925 -0.8785  0.9618  3.2533
   43MOL   H40929053   2.115   1.086   5.818 -0.7144  0.5687 -0.0034
   43MOL   N41029054   2.170   0.992   6.116  0.4922  0.0149  0.2161
   43MOL   C41129055   2.142   0.878   6.208  0.1633 -0.1050  0.6341
   43MOL   C41229056   2.078   0.917   6.341 -0.0262  0.0755 -0.2475
   43MOL   C41329057   2.167   1.002   6.441  1.1773 -0.4159  0.3032
   43MOL   C41429058   2.299   0.938   6.477  0.2359  0.1042 -0.1943
   43MOL   C41529059   2.372   1.028   6.573 -0.0844  0.7151 -0.7128
   43MOL   C41629060   2.515   0.984   6.603 -0.0481 -0.8281 -0.6641
   43MOL   C41729061   2.609   1.009   6.473 -0.5374  0.5743 -0.6446
   43MOL   C41829062   2.759   0.995   6.505  0.0594 -0.2874 -0.7761
   43MOL   C41929063   2.807   0.857   6.546 -0.0140  0.0274 -0.3802
   43MOL   C42029064   2.757   0.741   6.467  0.2804  0.5879  0.5906
   43MOL   C42129065   2.804   0.725   6.325 -0.4979 -0.0064 -0.1351
   43MOL   O42229066   2.896   0.789   6.279 -0.4404  0.1202 -0.6351
   43MOL   H42329067   2.269   1.012   6.119  0.7199 -0.9627 -0.7536
   43MOL   H42429068   2.072   0.805   6.167  2.5271 -1.9379 -0.2058
   43MOL   H42529069   2.234   0.826   6.233  1.3432  0.8288 -1.5988
   43MOL   H42629070   2.040   0.833   6.399 -1.5894  1.2304  0.4430
   43MOL   H42729071   1.994   0.975   6.303 -0.1830  1.9553  2.7676
   43MOL   H42829072   2.179   1.103   6.402 -0.2315 -0.1142  0.6234
   43MOL   H42929073   2.104   1.017   6.528  1.9544 -0.0242  0.7972
   43MOL   H43029074   2.357   0.911   6.388 -0.0126  0.3739 -0.4376
   43MOL   H43129075   2.271   0.841   6.518 -1.4196  0.0842 -1.3217
   43MOL   H43229076   2.329   1.035   6.673  0.8872 -2.0194 -0.0749
   43MOL   H43329077   2.373   1.128   6.530 -0.2877  1.1973  0.3650
   43MOL   H43429078   2.539   1.052   6.685 -4.6289  1.0178 -0.6908
   43MOL   H43529079   2.516   0.880   6.634 -0.3413 -0.0158  2.2261
   43MOL   H43629080   2.598   1.112   6.439 -0.2494  0.7873 -0.1160
   43MOL   H43729081   2.574   0.952   6.387 -0.5148 -0.5717  0.0909
   43MOL   H43829082   2.813   1.037   6.420  0.0657 -1.7986 -1.5450
   43MOL   H43929083   2.795   1.069   6.576  1.6999 -2.2167  0.4457
   43MOL   H44029084   2.763   0.849   6.645  2.0218 -0.0866  0.5275
   43MOL   H44129085   2.916   0.862   6.552  0.0215 -0.9356 -0.1565
   43MOL   H44229086   2.649   0.750   6.450  0.0363 -1.5327  0.8460
   43MOL   H44329087   2.772   0.651   6.526  2.7927  0.6361  0.0615
   43MOL   N44429088   2.737   0.638   6.248 -0.2190  0.4071  0.1549
   43MOL   C44529089   2.782   0.622   6.109 -0.0883  0.8133 -0.2132
   43MOL   C44629090   2.672   0.554   6.030 -0.0993 -0.2498 -0.2259
   43MOL   C44729091   2.686   0.536   5.875 -0.3194  0.5679  0.0699
   43MOL   C44829092   2.561   0.469   5.821  0.5874 -0.2974 -0.0520
   43MOL   C44929093   2.585   0.412   5.672 -0.0556 -0.0769 -0.6971
   43MOL   C45029094   2.449   0.349   5.611  0.4371 -0.3264 -0.2845
   43MOL   C45129095   2.471   0.266   5.482  0.9560 -0.6379  0.8411
   43MOL   C45229096   2.333   0.251   5.408 -0.1386  0.0121  0.0763
   43MOL   C45329097   2.343   0.165   5.285 -0.2290  0.4196  0.7633
   43MOL   C45429098   2.224   0.066   5.262 -0.6090  0.6730 -0.0279
   43MOL   C45529099   2.100   0.145   5.236 -0.4337 -1.0172  0.8403
   43MOL   O45629100   2.079   0.213   5.135  0.1540  0.6005 -0.2531
   43MOL   H45729101   2.672   0.572   6.287  0.2932  0.4931  1.1757
   43MOL   H45829102   2.802   0.721   6.069  1.8940  0.4753 -0.1352
   43MOL   H45929103   2.870   0.557   6.110  1.3155  2.6907  0.1341
   43MOL   H46029104   2.579   0.610   6.043  0.2879  0.7678 -1.6181
   43MOL   H46129105   2.661   0.456   6.075 -0.6021 -0.3828 -0.6300
   43MOL   H46229106   2.692   0.636   5.832  1.0309  0.7488  0.6644
   43MOL   H46329107   2.776   0.476   5.859  0.6002  1.1150  2.8917
   43MOL   H46429108   2.478   0.539   5.823  0.7856 -0.0952  1.7047
   43MOL   H46529109   2.537   0.394   5.897 -0.0724 -0.1867 -0.1506
   43MOL   H46629110   2.669   0.344   5.661  0.7866  0.2658  2.9628
   43MOL   H46729111   2.616   0.493   5.605 -3.0214  0.3028 -1.7135
   43MOL   H46829112   2.389   0.295   5.684  0.0696  0.3740 -0.0606
   43MOL   H46929113   2.391   0.437   5.584  0.1126 -0.1147  1.0240
   43MOL   H47029114   2.498   0.166   5.518 -0.8326 -0.3032  3.2775
   43MOL   H47129115   2.541   0.304   5.407 -0.8293  1.1551  0.0281
   43MOL   H47229116   2.259   0.224   5.483  0.9369  0.5208  1.3327
   43MOL   H47329117   2.313   0.355   5.382  1.2384  0.8256  2.2107
   43MOL   H47429118   2.433   0.103   5.292 -0.1155  0.5771  0.7029
   43MOL   H47529119   2.354   0.230   5.198  0.0827 -2.3142 -1.3274
   43MOL   H47629120   2.227   0.006   5.353  0.5491  0.4205 -0.2325
   43MOL   H47729121   2.254   7.713   5.184  0.1751 -0.1851  1.0131
   43MOL   N47829122   2.007   0.146   5.332  0.5382  0.2501 -0.3372
   43MOL   C47929123   1.890   0.226   5.345 -0.4519 -0.5857 -0.3172
   43MOL   C48029124   1.917   0.371   5.384  0.4522  0.5023  0.7274
   43MOL   C48129125   1.966   0.393   5.525  0.1257 -0.3980 -0.2577
   43MOL   C48229126   2.017   0.542   5.529  0.1139 -0.0919  0.0016
   43MOL   C48329127   2.032   0.599   5.672 -0.3537  0.0287 -0.0329
   43MOL   C48429128   2.143   0.539   5.763  0.3627  0.6128 -0.1521
   43MOL   C48529129   2.129   0.585   5.907 -0.0988 -0.6535 -0.0059
   43MOL   C48629130   2.222   0.494   5.993 -0.4394  0.0820  0.1135
   43MOL   C48729131   2.149   0.435   6.122 -0.5882 -0.4799  0.1163
   43MOL   C48829132   2.254   0.354   6.199 -0.4439  0.3991  0.3696
   43MOL   C48929133   2.294   0.222   6.138 -0.3898 -0.0248  0.5677
   43MOL   O49029134   2.211   0.150   6.076 -0.3180 -0.4481  0.2961
   43MOL   H49129135   2.016   0.069   5.397  1.2313 -0.5133 -1.3170
   43MOL   H49229136   1.824   0.217   5.259 -0.4908  1.1839 -0.4852
   43MOL   H49329137   1.839   0.177   5.428 -0.6393  0.9333  0.4729
   43MOL   H49429138   1.822   0.424   5.373  0.1445 -0.0348  0.7542
   43MOL   H49529139   1.996   0.410   5.321  0.0649  1.5974  0.9050
   43MOL   H49629140   1.874   0.390   5.584  0.5420  1.3301  0.4928
   43MOL   H49729141   2.038   0.321   5.565 -1.0520 -1.2135  0.4295
   43MOL   H49829142   1.943   0.604   5.478  1.6058  1.6694 -0.0624
   43MOL   H49929143   2.113   0.560   5.481 -1.6449  4.6224 -2.0067
   43MOL   H50029144   1.935   0.578   5.716 -0.0033 -2.3494 -0.3410
   43MOL   H50129145   2.032   0.708   5.668 -0.3440 -0.0017 -0.9443
   43MOL   H50229146   2.136   0.431   5.752  0.1989  0.5417  0.5955
   43MOL   H50329147   2.247   0.565   5.742  0.9067  0.4403  2.1483
   43MOL   H50429148   2.022   0.575   5.929 -0.4610  0.2630 -1.3231
   43MOL   H50529149   2.157   0.687   5.933  3.8550 -1.0569 -2.3847
   43MOL   H50629150   2.250   0.405   5.937 -0.3484  0.4091 -0.3627
   43MOL   H50729151   2.310   0.549   6.028  0.7810 -0.0297 -2.5955
   43MOL   H50829152   2.058   0.380   6.097 -0.3466 -0.5084 -0.7049
   43MOL   H50929153   2.123   0.526   6.175 -2.5131 -2.0428  1.9343
   43MOL   H51029154   2.205   0.330   6.294 -1.1331 -0.9755 -0.3298
   43MOL   H51129155   2.338   0.419   6.224 -0.7164  1.5582 -1.5991
   43MOL   N51229156   2.425   0.184   6.155  0.1676 -0.0743 -0.3982
   43MOL   C51329157   2.480   0.064   6.094 -0.7849 -0.7404 -0.2268
   43MOL   C51429158   2.576   0.106   5.979  0.4015  0.2106  0.2442
   43MOL   C51529159   2.678   0.003   5.956 -0.5105  0.0432 -0.2694
   43MOL   C51629160   2.774   0.049   5.844 -0.4500 -0.3238  0.5325
   43MOL   C51729161   2.894   0.138   5.890 -0.2227  0.6824  0.1239
   43MOL   C51829162   2.997   0.068   5.973  0.7263  0.1942 -0.1044
   43MOL   C51929163   3.136   0.109   5.936 -0.1000  0.2119 -0.2612
   43MOL   C52029164   3.196   0.039   5.814  0.1257  0.9946 -0.1637
   43MOL   C52129165   3.334   0.097   5.773  0.4587 -0.0450 -0.2773
   43MOL   C52229166   3.369   0.048   5.628 -0.0141  0.4397  0.0892
   43MOL   C52329167   3.494   0.121   5.574 -0.3092 -0.0077 -0.2655
   43MOL   O52429168   3.499   0.245   5.575 -0.6557  0.0734 -0.0755
   43MOL   H52529169   2.486   0.250   6.200 -1.4945  0.5867  0.9507
   43MOL   H52629170   2.546   0.015   6.166  1.1602  0.6930 -0.9801
   43MOL   H52729171   2.404   7.712   6.056 -0.6163 -0.1070 -1.7261
   43MOL   H52829172   2.629   0.199   6.000  1.8852 -0.1019 -2.0197
   43MOL   H52929173   2.519   0.136   5.890  1.5502 -0.7098 -0.8060
   43MOL   H53029174   2.732   7.687   6.045 -1.7523 -0.7881  0.2025
   43MOL   H53129175   2.629   7.624   5.934  2.1486 -1.9850  2.2047
   43MOL   H53229176   2.717   0.107   5.772  0.1415  0.8170  0.9747
   43MOL   H53329177   2.811   7.679   5.787  2.7397  0.7096  0.9807
   43MOL   H53429178   2.849   0.225   5.938 -3.4867  0.3558 -2.1674
   43MOL   H53529179   2.939   0.182   5.801 -0.7360 -0.5085 -0.7349
   43MOL   H53629180   2.986   0.085   6.081  3.5226  1.8125 -0.0261
   43MOL   H53729181   2.995   7.679   5.943  3.2508 -0.6057  2.2619
   43MOL   H53829182   3.207   0.089   6.016 -0.0490  0.2088 -0.3075
   43MOL   H53929183   3.146   0.217   5.926 -1.3042  0.3649  0.0577
   43MOL   H54029184   3.212   7.649   5.830 -1.3015  0.6214 -1.0705
   43MOL   H54129185   3.136   0.039   5.722  0.8792  2.0971 -0.6646
   43MOL   H54229186   3.411   0.076   5.847  0.6642  1.9724  0.1027
   43MOL   H54329187   3.336   0.206   5.772  0.7643  0.0270  3.1020
   43MOL   H54429188   3.289   0.078   5.560 -0.1518 -1.2433 -0.4947
   43MOL   H54529189   3.372   7.656   5.617 -1.9397 -0.0007  3.2413
   43MOL   N54629190   3.599   0.049   5.530 -0.3502  0.1883 -0.0422
   43MOL   C54729191   3.730   0.098   5.484  0.4438  0.2335 -0.2420
   43MOL   C54829192   3.783   0.028   5.357 -0.3567 -0.1645  0.3062
   43MOL   C54929193   3.933   0.050   5.331 -0.0233  0.1881  0.1592
   43MOL   C55029194   3.973   0.005   5.187 -0.4154  0.6244 -0.1792
   43MOL   C55129195   4.111   0.054   5.138 -0.8600  0.0783  0.1535
   43MOL   C55229196   4.161   0.005   5.004 -0.2689 -0.2714 -0.7196
   43MOL   C55329197   4.142   0.099   4.891 -0.0569  0.1223 -0.0224
   43MOL   C55429198   4.112   0.018   4.762  0.8291  0.2715 -0.3256
   43MOL   C55529199   4.117   0.097   4.633 -0.6756  0.2952 -0.4874
   43MOL   C55629200   4.076   0.020   4.506  0.6399  0.4750  0.4475
   43MOL   C55729201   3.940   7.668   4.527 -0.4221 -0.3564 -0.0260
   43MOL   O55829202   3.840   0.023   4.517  0.1537 -0.0869 -0.0325
   43MOL   H55929203   3.576   7.666   5.529  0.8645 -0.1398  2.2076
   43MOL   H56029204   3.733   0.207   5.479 -0.0151  0.3735  2.0172
   43MOL   H56129205   3.800   0.070   5.563 -1.5814 -2.7092  0.6079
   43MOL   H56229206   3.720   0.055   5.273 -3.2114 -2.7323  1.5440
   43MOL   H56329207   3.772   7.635   5.362 -3.4015  0.0859 -0.3188
   43MOL   H56429208   3.978   0.149   5.344  0.0647  0.4795 -2.0980
   43MOL   H56529209   3.986   7.713   5.410 -0.3043  0.4291  0.5125
   43MOL   H56629210   3.899   0.030   5.110 -1.7480 -0.8708  0.5758
   43MOL   H56729211   3.966   7.612   5.185  0.6047  0.5675 -2.3162
   43MOL   H56829212   4.187   0.016   5.207  0.1038  0.9371 -0.4122
   43MOL   H56929213   4.138   0.159   5.149  1.5706 -0.3527 -1.1855
   43MOL   H57029214   4.269   7.708   5.010 -0.3762 -1.1841 -0.6371
   43MOL   H57129215   4.122   7.621   4.984  0.0108 -0.1762 -1.7280
   43MOL   H57229216   4.232   0.160   4.881 -0.2444 -0.0442 -3.1358
   43MOL   H57329217   4.053   0.162   4.899  0.5412  0.7206  2.6034
   43MOL   H57429218   4.187   7.654   4.754  0.2753 -0.1090 -1.7852
   43MOL   H57529219   4.016   7.684   4.774  0.2505  1.4252 -0.1726
   43MOL   H57629220   4.219   0.130   4.614 -0.5987 -0.9490 -2.2786
   43MOL   H57729221   4.049   0.181   4.648  0.2257  1.0286 -0.4505
   43MOL   H57829222   4.149   7.659   4.478 -0.8348 -0.8865  0.2905
   43MOL   H57929223   4.050   0.093   4.430 -0.7402 -0.1083  0.3472
   43MOL   N58029224   3.927   7.531   4.538  0.3696 -0.0666 -0.2140
   43MOL   C58129225   3.801   7.460   4.573 -0.6160 -0.1305  0.2305
   43MOL   C58229226   3.779   7.486   4.722 -0.0451  0.0354 -0.1977
   43MOL   C58329227   3.858   7.403   4.820 -0.1223 -0.2884 -0.0052
   43MOL   C58429228   3.815   7.429   4.964 -0.6139 -0.3596 -0.1035
   43MOL   C58529229   3.887   7.340   5.069  0.3628 -0.0144  0.2337
   43MOL   C58629230   3.808   7.347   5.204 -0.1464  0.1976  0.5020
   43MOL   C58729231   3.885   7.298   5.325  0.6337  0.5776  0.6612
   43MOL   C58829232   3.802   7.320   5.454  0.3264 -0.2157  0.0636
   43MOL   C58929233   3.683   7.221   5.457 -0.2306  0.3500 -0.7359
   43MOL   C59029234   3.598   7.222   5.591  0.4054 -0.1184  0.0889
   43MOL   C59129235   3.488   7.336   5.578  0.4252  0.7594 -0.5417
   43MOL   O59229236   3.515   7.455   5.554  0.1942  0.6830 -0.1176
   43MOL   H59329237   4.003   7.468   4.517 -1.2604 -1.9627 -0.5804
   43MOL   H59429238   3.714   7.502   4.522  0.1158 -2.3517 -2.9980
   43MOL   H59529239   3.819   7.356   4.548  1.5213  0.1112  0.6167
   43MOL   H59629240   3.676   7.459   4.744 -0.3089 -0.0138 -1.4698
   43MOL   H59729241   3.786   7.593   4.744  0.8110 -0.0310 -0.1329
   43MOL   H59829242   3.845   7.297   4.798 -0.7764  0.1275 -1.7333
   43MOL   H59929243   3.963   7.432   4.811 -0.2449 -0.0166 -0.5913
   43MOL   H60029244   3.708   7.417   4.974 -0.7736  0.8651 -0.3441
   43MOL   H60129245   3.838   7.535   4.977  0.9118 -0.1167 -4.0325
   43MOL   H60229246   3.983   7.386   5.093 -0.0959  0.5821  0.9713
   43MOL   H60329247   3.894   7.236   5.036 -2.6144 -0.2326  0.1668
   43MOL   H60429248   3.780   7.452   5.215  0.3119  0.4270 -0.4587
   43MOL   H60529249   3.717   7.289   5.191 -0.0528  0.0473  0.5185
   43MOL   H60629250   3.980   7.350   5.329  1.1116 -0.2737  0.6682
   43MOL   H60729251   3.913   7.192   5.323  2.0670  0.9682 -0.3583
   43MOL   H60829252   3.875   7.303   5.534 -1.2570  0.7821  1.7473
   43MOL   H60929253   3.780   7.427   5.455 -1.8647 -0.6578  2.1007
   43MOL   H61029254   3.711   7.120   5.425 -0.8570  0.4615 -1.6783
   43MOL   H61129255   3.616   7.246   5.374 -0.5705 -0.0074 -0.5682
   43MOL   H61229256   3.668   7.216   5.675  0.2843 -0.3139  0.1775
   43MOL   H61329257   3.546   7.126   5.593 -1.7226  0.9941 -0.0008
   43MOL   N61429258   3.365   7.292   5.604 -0.6053  0.0279 -0.8886
   43MOL   C61529259   3.245   7.366   5.596  0.0477 -0.0226 -0.4434
   43MOL   C61629260   3.121   7.270   5.589 -0.1669  0.2793 -0.5994
   43MOL   C61729261   2.991   7.353   5.571 -0.6915  0.4455  0.2171
   43MOL   C61829262   2.870   7.261   5.539  0.4603  0.2344  0.1351
   43MOL   C61929263   2.745   7.338   5.495 -1.2028  0.1949  0.4082
   43MOL   C62029264   2.685   7.426   5.600 -0.0040  0.3550 -0.1613
   43MOL   C62129265   2.555   7.489   5.554  0.0546  0.5669  0.1864
   43MOL   C62229266   2.483   7.560   5.670  0.3999  0.5438  0.0543
   43MOL   C62329267   2.339   7.593   5.642  0.3138 -0.6509  0.1835
   43MOL   C62429268   2.278   7.705   5.720  0.6672 -0.2195  0.3199
   43MOL   C62529269   2.128   0.016   5.698 -0.5061  0.3686 -0.0432
   43MOL   O62629270   2.066   7.715   5.589  0.5686 -0.3072  0.1836
   43MOL   H62729271   3.357   7.200   5.646 -2.6757  0.4207 -0.3831
   43MOL   H62829272   3.251   7.430   5.508  0.7430  1.9658  1.0059
   43MOL   H62929273   3.230   7.419   5.690  0.1653  2.0353 -1.5460
   43MOL   H63029274   3.107   7.207   5.676 -0.2551 -1.8633 -2.1408
   43MOL   H63129275   3.136   7.200   5.508  2.5819 -1.0013  0.9654
   43MOL   H63229276   2.981   7.414   5.661 -0.8057  1.1914 -0.3046
   43MOL   H63329277   3.017   7.423   5.492 -0.4370  0.1343  0.0226
   43MOL   H63429278   2.842   7.191   5.617  0.2485 -0.8526 -0.9173
   43MOL   H63529279   2.899   7.190   5.462 -0.3807  0.0290  0.0111
   43MOL   H63629280   2.674   7.267   5.453 -0.3004  0.0304 -0.8594
   43MOL   H63729281   2.771   7.414   5.421  1.9223  1.1017  2.3718
   43MOL   H63829282   2.675   7.370   5.693 -0.3975 -0.3955 -0.6537
   43MOL   H63929283   2.762   7.496   5.633  1.8828 -0.7329 -2.0824
   43MOL   H64029284   2.485   7.410   5.525  0.8155 -0.5670  1.3930
   43MOL   H64129285   2.567   7.546   5.462 -0.1650  2.1514  1.1255
   43MOL   H64229286   2.487   7.499   5.760  0.2384 -0.2882 -0.4981
   43MOL   H64329287   2.539   7.653   5.682  1.2361 -0.0378  0.6675
   43MOL   H64429288   2.276   7.505   5.650  1.4673 -1.4783  0.1792
   43MOL   H64529289   2.329   7.617   5.536  0.2818 -2.3306 -0.2067
   43MOL   H64629290   2.329   0.085   5.707 -1.0828  0.4008 -2.4574
   43MOL   H64729291   2.281   7.681   5.827  2.1444  0.4980  0.4580
   43MOL   N64829292   2.061   0.049   5.807  0.1891 -0.2179  0.0790
   43MOL   C64929293   1.914   0.075   5.805 -0.7956  0.1233 -0.0720
   43MOL   C65029294   1.888   0.211   5.879 -0.3647  0.1378 -0.3176
   43MOL   C65129295   1.739   0.244   5.882 -0.5980 -0.4708  0.5943
   43MOL   C65229296   1.697   0.392   5.875  0.1203 -0.6021 -0.0513
   43MOL   C65329297   1.718   0.471   6.004  0.3354 -0.0445  0.6397
   43MOL   C65429298   1.688   0.622   5.986 -0.2946  0.0778 -0.4101
   43MOL   C65529299   1.704   0.715   6.105 -0.5300 -0.8585 -0.3272
   43MOL   C65629300   1.597   0.687   6.214  0.4010 -0.8205 -0.2900
   43MOL   C65729301   1.591   0.806   6.316  0.5486  0.2389 -0.1286
   43MOL   C65829302   1.719   0.820   6.405 -0.4298 -0.1353  0.4899
   43MOL   C65929303   1.734   0.703   6.502 -0.0125  0.0420 -1.2012
   43MOL   O66029304   1.744   0.583   6.472  0.3773 -0.0138  0.4231
   43MOL   H66129305   2.114   0.047   5.893  2.5776  0.5829 -1.3215
   43MOL   H66229306   1.876   7.696   5.845  1.2220 -0.5700  0.2550
   43MOL   H66329307   1.881   0.073   5.701  0.7716 -2.9820 -0.5816
   43MOL   H66429308   1.939   0.290   5.822 -2.2335 -0.1165 -2.3980
   43MOL   H66529309   1.941   0.203   5.974  0.6506 -1.1117 -0.9643
   43MOL   H66629310   1.702   0.198   5.790  1.3099  0.0580 -0.4624
   43MOL   H66729311   1.677   0.193   5.955  0.1665 -1.2329  0.7181
   43MOL   H66829312   1.593   0.395   5.843  0.1604  1.3134 -0.0263
   43MOL   H66929313   1.749   0.440   5.792 -0.5703  1.4590  0.6930
   43MOL   H67029314   1.821   0.456   6.036  0.5847  1.4159  0.5720
   43MOL   H67129315   1.659   0.434   6.088 -0.7680  0.6049  0.1640
   43MOL   H67229316   1.742   0.656   5.897  0.6826 -0.5824 -0.0797
   43MOL   H67329317   1.585   0.625   5.950 -0.0097 -0.5854 -1.2997
   43MOL   H67429318   1.703   0.819   6.074  1.3697  0.0063  2.3500
   43MOL   H67529319   1.804   0.709   6.147  0.6732 -1.7724 -3.1977
   43MOL   H67629320   1.498   0.664   6.176 -0.3833  3.4971 -1.0860
   43MOL   H67729321   1.636   0.601   6.269  1.1505 -1.0152 -1.1251
   43MOL   H67829322   1.501   0.790   6.377  1.2922  0.1985  0.9812
   43MOL   H67929323   1.564   0.904   6.278 -0.0721  0.0146 -0.2747
   43MOL   H68029324   1.698   0.912   6.460 -1.2372  0.7625 -1.2777
   43MOL   H68129325   1.809   0.843   6.349 -1.4977  0.4408 -1.0095
   43MOL   H68229326   1.741   0.734   6.606  0.2251 -3.6405 -0.0599
   44MOL     N129327   5.053   7.139   4.180  0.0818 -0.4283  0.4624
   44MOL     C229328   5.122   7.205   4.072  0.7323  0.7133 -0.2938
   44MOL     C329329   5.208   7.323   4.118  0.0546 -0.0480 -0.2279
   44MOL     C429330   5.264   7.389   3.988 -0.5382 -0.2767  0.4965
   44MOL     C529331   5.329   7.525   4.016  0.0538 -0.4326 -0.5392
   44MOL     C629332   5.412   7.592   3.904 -0.6433  0.2735 -0.2280
   44MOL     C729333   5.331   7.642   3.781 -0.1291  0.5086  0.7087
   44MOL     C829334   5.419   0.004   3.684  0.3399  0.1697 -0.3176
   44MOL     C929335   5.348   0.005   3.545  0.4879  0.3320 -0.2433
   44MOL    C1029336   5.407   0.103   3.444  1.2660 -0.3384 -0.5224
   44MOL    C1129337   5.349   0.081   3.304  0.0851  0.1860 -0.5799
   44MOL    C1229338   5.389   7.662   3.240  0.1918  1.5778 -0.5257
   44MOL    O1329339   5.503   7.618   3.267  0.2595 -0.2045  0.4645
   44MOL    H1429340   5.012   7.061   4.130  0.1891 -0.7567  0.8876
   44MOL    H1529341   5.047   7.223   3.996 -0.8166  1.2655  1.3432
   44MOL    H1629342   5.175   7.131   4.012 -1.0963 -1.3595  0.6029
   44MOL    H1729343   5.290   7.298   4.185  0.2767  1.7060  0.1707
   44MOL    H1829344   5.147   7.394   4.174  0.2238  1.0248 -1.3753
   44MOL    H1929345   5.321   7.315   3.932  0.8428  0.2508  1.1953
   44MOL    H2029346   5.180   7.397   3.918 -1.1528 -0.3806  1.2137
   44MOL    H2129347   5.407   7.493   4.084 -1.0674 -1.6496  0.1859
   44MOL    H2229348   5.270   7.599   4.070  0.0316  0.2525 -1.4746
   44MOL    H2329349   5.488   7.529   3.859 -1.6821 -0.5292 -0.8651
   44MOL    H2429350   5.464   7.685   3.929 -0.1051 -0.2439  0.5967
   44MOL    H2529351   5.290   7.559   3.723  0.1510  0.5116  0.5070
   44MOL    H2629352   5.261   0.004   3.812 -0.0708  1.1377 -0.7085
   44MOL    H2729353   5.524   7.692   3.672 -0.4507 -3.0279 -0.1556
   44MOL    H2829354   5.440   0.102   3.728 -0.2529 -0.7932  2.1684
   44MOL    H2929355   5.353   7.621   3.500 -3.6420  0.4934 -1.1940
   44MOL    H3029356   5.245   0.035   3.562  0.4463 -0.3930  0.8262
   44MOL    H3129357   5.516   0.100   3.450  1.3295 -1.3489 -1.8012
   44MOL    H3229358   5.382   0.204   3.475  0.1020  0.0046 -2.4838
   44MOL    H3329359   5.386   0.164   3.244 -2.3440  1.0328 -0.9884
   44MOL    H3429360   5.240   0.082   3.302  0.0659  0.5352  0.2659
   44MOL    H3529361   5.128   7.105   4.239 -0.3357  0.2067  1.3693
   44MOL    N3629362   5.304   7.597   3.156  0.5270 -0.0272  0.2934
   44MOL    C3729363   5.336   7.472   3.090 -0.0528 -0.4595  0.1173
   44MOL    C3829364   5.289   7.471   2.942 -0.0029 -0.2705  0.3701
   44MOL    C3929365   5.370   7.556   2.846  0.4864  0.7780  0.1872
   44MOL    C4029366   5.330   7.535   2.689  0.3889  0.3025 -0.6813
   44MOL    C4129367   5.420   7.603   2.588  0.0060  0.0646  0.1164
   44MOL    C4229368   5.444   7.537   2.453  0.4901  0.5422  0.4641
   44MOL    C4329369   5.523   7.617   2.350  0.1355 -0.3349 -1.2408
   44MOL    C4429370   5.433   7.689   2.253  0.2440  0.2983  0.2468
   44MOL    C4529371   5.491   0.087   2.170 -0.3853 -0.0705  0.4432
   44MOL    C4629372   5.619   0.050   2.090  0.3346  0.0886 -0.4584
   44MOL    C4729373   5.579   7.676   1.974 -0.4837  0.4532  0.0409
   44MOL    O4829374   5.490   7.715   1.899  0.1952 -0.4829 -0.4175
   44MOL    H4929375   5.209   7.630   3.165 -0.4170 -2.8005  0.8203
   44MOL    H5029376   5.444   7.461   3.103  0.0546 -0.9214 -1.1095
   44MOL    H5129377   5.288   7.389   3.142 -3.0921  1.6086  0.7481
   44MOL    H5229378   5.182   7.492   2.942 -0.0357 -0.4389  0.0375
   44MOL    H5329379   5.277   7.371   2.901  2.0031  0.5519 -2.3468
   44MOL    H5429380   5.352   7.661   2.869  0.2732  0.8837 -0.4384
   44MOL    H5529381   5.474   7.531   2.863  0.0168 -0.1974  1.6823
   44MOL    H5629382   5.229   7.567   2.664 -0.1593  0.4843  1.6177
   44MOL    H5729383   5.323   7.428   2.672 -2.1479  0.2489  0.3674
   44MOL    H5829384   5.511   7.637   2.636 -0.9516  1.4888  0.9650
   44MOL    H5929385   5.372   7.697   2.560  0.0384 -0.5482 -2.0887
   44MOL    H6029386   5.506   7.450   2.473  0.1788  0.1049 -0.4205
   44MOL    H6129387   5.352   7.499   2.408 -1.1844  0.9448  3.4379
   44MOL    H6229388   5.586   7.544   2.298  1.1998  0.7058 -1.4235
   44MOL    H6329389   5.599   7.679   2.396  0.5500 -0.4781 -1.7240
   44MOL    H6429390   5.387   7.610   2.194 -2.6954  2.1843 -0.0951
   44MOL    H6529391   5.342   0.011   2.301 -1.1599 -0.3136 -1.8779
   44MOL    H6629392   5.508   0.177   2.229 -1.5235 -1.5175  3.1059
   44MOL    H6729393   5.414   0.128   2.105 -2.5999  0.0400  3.0072
   44MOL    H6829394   5.698   7.709   2.139  0.1266 -0.3066 -0.5761
   44MOL    H6929395   5.662   0.137   2.040  0.4304  0.5423  0.4113
   44MOL    N7029396   5.644   7.558   1.964 -0.0896 -0.2141  0.0735
   44MOL    C7129397   5.621   7.459   1.871 -0.2128 -0.2632  0.6851
   44MOL    C7229398   5.694   7.493   1.742  0.1777 -0.7919 -0.9295
   44MOL    C7329399   5.643   7.402   1.624 -0.3178  0.4258  0.4662
   44MOL    C7429400   5.726   7.403   1.490 -0.0876  0.1115  0.1661
   44MOL    C7529401   5.688   7.293   1.395  0.0219  0.0423 -0.2079
   44MOL    C7629402   5.768   7.280   1.268  0.1448  0.3567 -0.1570
   44MOL    C7729403   5.918   7.300   1.289  0.7909 -0.1885  0.4127
   44MOL    C7829404   5.994   7.269   1.164  0.2216 -0.4177 -0.3069
   44MOL    C7929405   6.147   7.253   1.181  0.1267 -0.8256  0.0096
   44MOL    C8029406   6.207   7.128   1.245  0.6444 -0.3691  0.0333
   44MOL    C8129407   6.355   7.119   1.268 -0.6782  0.0588  0.3673
   44MOL    O8229408   6.429   7.219   1.258 -0.5258 -0.6898  0.0243
   44MOL    H8329409   5.703   7.538   2.044 -0.9392 -2.5564  0.1546
   44MOL    H8429410   5.653   7.373   1.929  2.8201  2.4158  3.1990
   44MOL    H8529411   5.515   7.440   1.854  0.2160 -1.4673 -0.6971
   44MOL    H8629412   5.802   7.480   1.754  0.2891  0.9351  0.0668
   44MOL    H8729413   5.690   7.598   1.714  0.0968 -0.0376  1.7486
   44MOL    H8829414   5.651   7.301   1.665  1.2094 -0.3597 -1.6930
   44MOL    H8929415   5.541   7.430   1.599  0.2085 -0.5340 -3.0099
   44MOL    H9029416   5.829   7.386   1.520 -0.3564 -0.5339  0.7180
   44MOL    H9129417   5.718   7.498   1.437 -0.9673  0.2851  0.5860
   44MOL    H9229418   5.583   7.305   1.370 -0.7260 -2.3214  1.6447
   44MOL    H9329419   5.684   7.201   1.452  1.4120  0.6738  0.9473
   44MOL    H9429420   5.744   7.180   1.231  0.8950  0.2270 -0.2999
   44MOL    H9529421   5.726   7.349   1.195 -0.7263 -0.8308 -0.8069
   44MOL    H9629422   5.952   7.231   1.366  0.8950  0.0337  0.5639
   44MOL    H9729423   5.926   7.407   1.305  0.5219 -0.0802 -0.1368
   44MOL    H9829424   5.955   7.179   1.116  0.4138 -0.7469  0.1442
   44MOL    H9929425   5.965   7.346   1.093 -0.0554 -0.0812  0.1706
   44MOL   H10029426   6.180   7.340   1.239  1.0472 -1.4228  0.3958
   44MOL   H10129427   6.199   7.261   1.085  1.3843  0.1117  0.7403
   44MOL   H10229428   6.180   7.049   1.176  1.0661  1.9209 -2.8579
   44MOL   H10329429   6.158   7.097   1.338  0.6188  1.5834  0.7116
   44MOL   N10429430   6.396   6.994   1.294  0.0124  0.3341 -0.4535
   44MOL   C10529431   6.532   6.960   1.328  0.4341  0.0483  0.1557
   44MOL   C10629432   6.565   6.984   1.474 -0.3796 -0.4899  0.7668
   44MOL   C10729433   6.693   6.905   1.512  0.0824 -0.5193 -0.4370
   44MOL   C10829434   6.707   6.903   1.668  0.4024  0.7652  0.4450
   44MOL   C10929435   6.769   7.036   1.735  0.5003 -0.1629 -0.1010
   44MOL   C11029436   6.765   7.028   1.883  0.1502 -0.2221  0.7332
   44MOL   C11129437   6.826   7.157   1.946  0.8195  0.0293 -0.0701
   44MOL   C11229438   6.775   7.191   2.085  0.1397  0.4165 -0.1518
   44MOL   C11329439   6.857   7.308   2.152  0.0296 -0.7006 -0.1594
   44MOL   C11429440   6.782   7.359   2.271  0.0014  0.3741 -0.1594
   44MOL   C11529441   6.833   7.493   2.326 -0.4810 -0.4352 -0.2284
   44MOL   O11629442   6.888   7.495   2.433 -0.2084  0.1347 -0.1935
   44MOL   H11729443   6.330   6.918   1.302 -0.3029  0.7329  0.9276
   44MOL   H11829444   6.551   6.857   1.297  2.3376  0.1621  0.8389
   44MOL   H11929445   6.610   7.011   1.271 -0.2851  0.3273 -0.5846
   44MOL   H12029446   6.484   6.941   1.532 -0.7268 -0.6339  0.1821
   44MOL   H12129447   6.579   7.089   1.499 -1.2762  0.2398 -1.5968
   44MOL   H12229448   6.687   6.802   1.478 -0.2563 -1.0167  1.0629
   44MOL   H12329449   6.768   6.961   1.457 -0.7553  1.7391  0.6300
   44MOL   H12429450   6.778   6.825   1.698  0.9657  1.7091  1.6578
   44MOL   H12529451   6.613   6.879   1.717  1.5640 -2.1182  1.3678
   44MOL   H12629452   6.711   7.120   1.698 -1.2127 -0.3179  2.1345
   44MOL   H12729453   6.871   7.042   1.696  0.2817  1.9115 -0.3728
   44MOL   H12829454   6.663   7.030   1.921  0.0045 -0.1372  0.3432
   44MOL   H12929455   6.819   6.937   1.908 -1.1128 -0.9833  0.7630
   44MOL   H13029456   6.808   7.248   1.888  0.7512  0.6977  0.9875
   44MOL   H13129457   6.935   7.156   1.950  0.8681 -2.8333 -0.6118
   44MOL   H13229458   6.668   7.203   2.069  0.3374  0.4463 -1.5463
   44MOL   H13329459   6.771   7.109   2.156  0.3265  0.3783 -0.1853
   44MOL   H13429460   6.878   7.383   2.076  1.0232 -1.0942 -0.2859
   44MOL   H13529461   6.953   7.263   2.176  0.7290  1.0476  0.4125
   44MOL   H13629462   6.782   7.288   2.353  2.0456 -0.0558 -0.4979
   44MOL   H13729463   6.678   7.372   2.241 -0.6498 -0.3590  1.7516
   44MOL   N13829464   6.833   7.605   2.247 -0.3275 -0.4637 -0.2741
   44MOL   C13929465   6.906   0.016   2.272 -0.1738  0.0297  0.5079
   44MOL   C14029466   7.060   0.010   2.241  0.7904  0.7448 -0.2652
   44MOL   C14129467   7.087   7.693   2.094 -0.6595  0.5394 -0.3499
   44MOL   C14229468   7.219   0.043   2.047  0.2731  0.0703 -0.0514
   44MOL   C14329469   7.274   7.687   1.923 -0.4123  0.1869 -0.1828
   44MOL   C14429470   7.188   7.704   1.799  0.0150 -0.7487  0.2941
   44MOL   C14529471   7.167   0.131   1.767  0.4813 -0.2225  0.4600
   44MOL   C14629472   7.086   0.161   1.643  0.8535  0.3139 -0.0594
   44MOL   C14729473   7.043   0.308   1.637 -0.6495 -0.3151  0.0406
   44MOL   C14829474   6.932   0.327   1.532 -0.1266 -0.4266  0.0711
   44MOL   C14929475   6.865   0.467   1.526  0.3058 -0.2217  0.3334
   44MOL   O15029476   6.909   0.551   1.607  0.0644 -0.0494 -0.0328
   44MOL   H15129477   6.800   7.597   2.152  1.1344 -0.6137 -0.7814
   44MOL   H15229478   6.866   0.090   2.201  1.1331  1.1503  0.9062
   44MOL   H15329479   6.886   0.041   2.376  0.5731  0.7217  0.4921
   44MOL   H15429480   7.094   7.652   2.314 -0.5675  0.9133  0.5513
   44MOL   H15529481   7.111   0.104   2.266  0.5018  0.2901  2.2379
   44MOL   H15629482   7.100   7.586   2.076  0.1318  1.1196 -3.5187
   44MOL   H15729483   7.003   0.001   2.029 -0.5571  3.1312  0.4216
   44MOL   H15829484   7.294   0.037   2.125  0.3727  0.2901 -0.1329
   44MOL   H15929485   7.204   0.150   2.035  0.4650  0.0772 -0.2348
   44MOL   H16029486   7.287   7.580   1.940 -0.9859 -0.1133 -1.5555
   44MOL   H16129487   7.379   0.001   1.924  0.8741 -4.1250  0.7074
   44MOL   H16229488   7.223   7.663   1.704 -0.5772 -0.6565  0.0339
   44MOL   H16329489   7.096   7.647   1.812 -0.8733 -0.0043 -2.5272
   44MOL   H16429490   7.265   0.175   1.746 -0.4841  0.8693 -1.8940
   44MOL   H16529491   7.119   0.184   1.848 -0.6432 -1.3809  0.5773
   44MOL   H16629492   7.137   0.141   1.549 -1.6556  1.3649 -1.6808
   44MOL   H16729493   6.998   0.097   1.645  0.6504  0.5122 -1.7165
   44MOL   H16829494   7.132   0.371   1.629  0.0805 -1.3389  0.1193
   44MOL   H16929495   6.993   0.341   1.728 -0.0547  0.8578 -0.0373
   44MOL   H17029496   6.850   0.256   1.549  0.2642 -0.4735  1.7924
   44MOL   H17129497   6.974   0.318   1.432  2.9689 -0.1931  1.3190
   44MOL   N17229498   6.766   0.485   1.441  0.3166 -0.8036 -0.1967
   44MOL   C17329499   6.713   0.612   1.406  0.1834  0.6858 -0.1112
   44MOL   C17429500   6.753   0.656   1.262 -0.2345 -0.4635  0.2537
   44MOL   C17529501   6.682   0.777   1.207 -0.3918 -0.2027 -0.1922
   44MOL   C17629502   6.719   0.915   1.255 -0.4380 -0.4393  0.2315
   44MOL   C17729503   6.618   1.022   1.221 -0.7320 -0.3259 -0.1771
   44MOL   C17829504   6.671   1.168   1.256 -0.1754  0.3431 -0.2539
   44MOL   C17929505   6.584   1.280   1.199  0.1427  0.2595  0.1904
   44MOL   C18029506   6.643   1.418   1.235  0.5080  0.1100  0.3241
   44MOL   C18129507   6.568   1.529   1.170  0.0633  1.2011 -0.0184
   44MOL   C18229508   6.621   1.666   1.209  0.0105 -0.4528  0.2747
   44MOL   C18329509   6.750   1.716   1.143  0.3007 -0.2573  0.1507
   44MOL   O18429510   6.764   1.690   1.021  0.0110  0.1781 -0.6578
   44MOL   H18529511   6.725   0.403   1.400  1.4677 -0.6655 -1.6926
   44MOL   H18629512   6.607   0.587   1.414  0.9127 -2.1519  1.2561
   44MOL   H18729513   6.727   0.693   1.477 -2.4148 -0.5898  1.9270
   44MOL   H18829514   6.721   0.577   1.193 -0.9459 -0.1891  0.2613
   44MOL   H18929515   6.861   0.659   1.248 -0.1303 -0.3741  1.0759
   44MOL   H19029516   6.689   0.765   1.099 -1.0527 -0.4029 -0.2174
   44MOL   H19129517   6.578   0.762   1.236  0.1946 -0.0746  2.1096
   44MOL   H19229518   6.816   0.931   1.207 -0.6857  0.2108 -0.0536
   44MOL   H19329519   6.729   0.910   1.363  2.2736 -2.4944 -0.0490
   44MOL   H19429520   6.527   1.001   1.277 -1.1891  1.2867 -0.2704
   44MOL   H19529521   6.596   1.010   1.115  2.7772  1.2279 -1.1755
   44MOL   H19629522   6.658   1.183   1.364  0.4556 -0.2502 -0.0893
   44MOL   H19729523   6.776   1.185   1.232 -0.8463  0.0803 -3.5243
   44MOL   H19829524   6.479   1.278   1.227  0.4468  1.2549  1.4163
   44MOL   H19929525   6.585   1.276   1.090 -0.4561 -0.7599  0.2261
   44MOL   H20029526   6.631   1.431   1.343  2.0372 -0.0667  0.5222
   44MOL   H20129527   6.748   1.414   1.205  0.7338 -0.1729  1.1304
   44MOL   H20229528   6.463   1.520   1.198 -0.0812 -1.1826 -1.1891
   44MOL   H20329529   6.571   1.518   1.062  3.7236 -0.0962  0.1511
   44MOL   H20429530   6.624   1.676   1.317  1.3868  0.6280  0.1520
   44MOL   H20529531   6.549   1.741   1.177 -0.8509 -1.3910 -0.0006
   44MOL   N20629532   6.831   1.783   1.226 -0.0461  0.2020  0.0060
   44MOL   C20729533   6.960   1.841   1.197  0.8747 -0.1468 -0.0754
   44MOL   C20829534   7.064   1.730   1.191  0.3900 -0.3641  0.3490
   44MOL   C20929535   7.205   1.788   1.177  0.1191 -0.5166 -0.3286
   44MOL   C21029536   7.300   1.681   1.150  0.0326  0.5049  0.0432
   44MOL   C21129537   7.446   1.723   1.111 -0.7953  0.5049 -0.6315
   44MOL   C21229538   7.530   1.765   1.229 -0.0142  0.0709  0.3612
   44MOL   C21329539   7.677   1.807   1.193  0.1844  0.2424  0.0820
   44MOL   C21429540   0.038   1.695   1.141 -0.0192 -0.5828  0.4944
   44MOL   C21529541   0.175   1.734   1.086 -1.1394  0.1025 -0.1214
   44MOL   C21629542   0.280   1.627   1.051 -0.0832  0.1499 -0.4098
   44MOL   C21729543   0.301   1.526   1.158  0.0871  0.5634  0.2474
   44MOL   O21829544   0.369   1.560   1.254  0.3499 -0.1760 -0.1149
   44MOL   H21929545   6.793   1.796   1.319  0.0006  0.7556 -0.0499
   44MOL   H22029546   6.979   1.907   1.281  0.4280  0.8193 -0.7138
   44MOL   H22129547   6.953   1.896   1.103 -0.7854  1.3405  0.8754
   44MOL   H22229548   7.048   1.671   1.101  2.8048  0.3048 -0.5496
   44MOL   H22329549   7.051   1.661   1.274  0.0788  0.1239  0.7097
   44MOL   H22429550   7.214   1.870   1.105  1.0795 -0.0468  0.3294
   44MOL   H22529551   7.231   1.832   1.273  2.6813 -0.6326 -0.9328
   44MOL   H22629552   7.262   1.640   1.056  1.0126 -1.4533  0.4703
   44MOL   H22729553   7.301   1.604   1.227 -0.2273  0.6217  0.1621
   44MOL   H22829554   7.443   1.803   1.037 -0.7713 -0.4848 -1.7317
   44MOL   H22929555   7.493   1.637   1.063 -1.7038  0.2441 -1.0687
   44MOL   H23029556   7.474   1.847   1.274  0.4414  1.2755 -1.2367
   44MOL   H23129557   7.548   1.680   1.294  1.0636  0.7502  0.9688
   44MOL   H23229558   0.009   1.851   1.280 -1.3749  1.8627  0.1452
   44MOL   H23329559   7.691   1.891   1.125 -1.2316  0.7997  0.4578
   44MOL   H23429560   0.051   1.617   1.216  1.0443 -2.3488 -1.5055
   44MOL   H23529561   7.701   1.654   1.055 -0.6980  1.9321 -0.3474
   44MOL   H23629562   0.221   1.793   1.165  3.1294 -2.1637 -0.7825
   44MOL   H23729563   0.171   1.807   1.005  1.1512 -1.0568 -1.3352
   44MOL   H23829564   0.375   1.670   1.021 -1.0076  2.4230 -0.1562
   44MOL   H23929565   0.251   1.561   0.970  1.6164 -0.9384 -0.1655
   44MOL   N24029566   0.256   1.401   1.149  0.3971  0.3071  0.3485
   44MOL   C24129567   0.315   1.289   1.220 -1.0223  0.5745 -0.2952
   44MOL   C24229568   0.248   1.235   1.339  0.0162 -0.4439  0.6710
   44MOL   C24329569   0.308   1.112   1.399 -0.8928  0.3912 -0.4799
   44MOL   C24429570   0.245   1.080   1.535  0.9846  0.0301 -0.2460
   44MOL   C24529571   0.317   0.963   1.612  0.1756  0.1762  0.2155
   44MOL   C24629572   0.464   0.981   1.646  0.4266  0.4331  0.0942
   44MOL   C24729573   0.537   0.864   1.712 -0.3121 -0.1175  0.0264
   44MOL   C24829574   0.689   0.870   1.698 -0.0562  0.6229  0.0973
   44MOL   C24929575   0.762   0.969   1.798  0.7048  0.2395  0.4874
   44MOL   C25029576   0.918   0.971   1.790  0.2760 -0.3655  0.0066
   44MOL   C25129577   0.982   1.080   1.878  0.6636  0.1988  0.7249
   44MOL   O25229578   0.921   1.107   1.984  0.2543 -0.2489 -0.2641
   44MOL   H25329579   0.217   1.378   1.059 -0.3497  0.8965  0.5196
   44MOL   H25429580   0.419   1.315   1.242 -1.3184 -0.2319  2.2012
   44MOL   H25529581   0.335   1.207   1.152 -1.3859 -0.5366  0.9312
   44MOL   H25629582   0.143   1.218   1.314  1.1305 -2.7104 -2.7820
   44MOL   H25729583   0.239   1.314   1.413 -1.3107 -0.7872  0.8979
   44MOL   H25829584   0.302   1.026   1.332  2.5472  0.3620 -0.8281
   44MOL   H25929585   0.415   1.128   1.415 -0.7781  2.5147 -3.0518
   44MOL   H26029586   0.145   1.043   1.515  1.5860 -1.4189 -0.6422
   44MOL   H26129587   0.239   1.172   1.594 -1.6457  0.5984 -1.3394
   44MOL   H26229588   0.327   0.880   1.543  2.0246 -0.8015  1.6161
   44MOL   H26329589   0.260   0.936   1.701  0.7684 -1.1483  0.1953
   44MOL   H26429590   0.519   1.000   1.554 -2.1489 -0.1384 -1.6188
   44MOL   H26529591   0.469   1.073   1.705  0.7593 -0.0567  0.8311
   44MOL   H26629592   0.507   0.775   1.656  2.0182 -1.6646  1.1824
   44MOL   H26729593   0.506   0.846   1.815  0.7826 -0.3317  0.3229
   44MOL   H26829594   0.720   0.775   1.740  1.2998  0.7797 -0.5467
   44MOL   H26929595   0.720   0.883   1.595  2.7723  1.1883  0.9929
   44MOL   H27029596   0.727   0.937   1.896  1.7436  1.0579  1.1319
   44MOL   H27129597   0.712   1.063   1.771  0.1218 -0.0913  0.3988
   44MOL   H27229598   0.957   0.974   1.688  2.6983 -1.7074  0.8448
   44MOL   H27329599   0.935   0.874   1.837  0.1513 -1.0034 -1.2428
   44MOL   N27429600   1.090   1.148   1.839  0.1998 -0.3685 -0.3240
   44MOL   C27529601   1.152   1.256   1.926 -0.1853 -0.2367 -0.6283
   44MOL   C27629602   1.103   1.391   1.865  0.0210 -0.4654  0.7216
   44MOL   C27729603   1.157   1.518   1.930 -0.0077 -0.1877  0.5312
   44MOL   C27829604   1.095   1.650   1.874 -0.3298  0.2406  0.0907
   44MOL   C27929605   1.121   1.774   1.960 -0.5056  0.8885  0.1020
   44MOL   C28029606   1.272   1.810   1.982  0.4213  0.1192  0.5993
   44MOL   C28129607   1.300   1.922   2.087  0.2161 -0.0790  0.1814
   44MOL   C28229608   1.418   1.889   2.172  0.2756 -0.5971 -0.6569
   44MOL   C28329609   1.548   1.896   2.088 -0.8750  0.2330  0.2953
   44MOL   C28429610   1.684   1.905   2.168  0.1235 -0.3072  0.2539
   44MOL   C28529611   1.714   1.768   2.241 -0.2380  0.0832  0.0294
   44MOL   O28629612   1.790   1.682   2.188 -0.2045 -0.2019 -0.6415
   44MOL   H28729613   1.136   1.138   1.750  1.0664  0.4804  0.0223
   44MOL   H28829614   1.260   1.247   1.934  0.1308  2.8694 -0.9861
   44MOL   H28929615   1.124   1.239   2.030  0.2099 -1.0282 -0.6418
   44MOL   H29029616   0.995   1.393   1.853  0.0741  3.1651  0.3786
   44MOL   H29129617   1.138   1.385   1.761  1.1582  4.4588  0.6874
   44MOL   H29229618   1.146   1.522   2.038  1.0736 -2.8133  0.7830
   44MOL   H29329619   1.264   1.528   1.910 -0.5977  2.7304 -1.4101
   44MOL   H29429620   0.990   1.637   1.847 -0.3629 -1.5807  1.0656
   44MOL   H29529621   1.154   1.670   1.785  0.8362  2.1797  1.2598
   44MOL   H29629622   1.066   1.765   2.054 -2.5031  0.5739 -1.0552
   44MOL   H29729623   1.069   1.861   1.920 -2.6475 -1.1834 -1.8755
   44MOL   H29829624   1.325   1.717   1.999 -1.0796 -0.2016  3.8971
   44MOL   H29929625   1.301   1.848   1.883 -0.0400 -0.6759  0.1562
   44MOL   H30029626   1.221   1.926   2.162 -0.1890 -0.8967 -0.1927
   44MOL   H30129627   1.312   2.018   2.036 -0.7935  0.7306  1.4204
   44MOL   H30229628   1.425   1.956   2.257  1.2050 -1.0844 -0.3366
   44MOL   H30329629   1.418   1.784   2.202 -0.3596 -0.6956 -0.9926
   44MOL   H30429630   1.548   1.982   2.020 -1.4956 -1.7423 -2.2815
   44MOL   H30529631   1.548   1.809   2.023  2.6070 -0.2877  0.8870
   44MOL   H30629632   1.702   2.003   2.212  1.7740  0.8245 -2.8255
   44MOL   H30729633   1.750   1.908   2.082  0.9074 -1.7925  0.7768
   44MOL   N30829634   1.667   1.754   2.363  0.4100  0.2832 -0.8387
   44MOL   C30929635   1.666   1.634   2.448  0.3292  0.3676 -0.4220
   44MOL   C31029636   1.547   1.541   2.411  0.4132 -0.1403 -0.5317
   44MOL   C31129637   1.558   1.406   2.473  0.5825  0.4129 -0.4423
   44MOL   C31229638   1.458   1.302   2.413 -0.4747  0.2351 -0.6106
   44MOL   C31329639   1.462   1.169   2.486  0.6387 -0.2106  0.0325
   44MOL   C31429640   1.358   1.067   2.435  0.4728  0.2757  0.2571
   44MOL   C31529641   1.393   0.994   2.303 -0.8314 -0.4865 -0.0189
   44MOL   C31629642   1.288   0.886   2.259  0.6622  0.5892  0.1210
   44MOL   C31729643   1.317   0.752   2.325 -0.5218 -0.1768  0.4020
   44MOL   C31829644   1.197   0.664   2.323 -0.4719 -0.3411 -0.0394
   44MOL   C31929645   1.232   0.519   2.371  0.6362 -0.2167 -0.9865
   44MOL   O32029646   1.242   0.428   2.286  0.0001  0.1969  0.1749
   44MOL   H32129647   1.623   1.834   2.406  1.7903  0.5096  0.1764
   44MOL   H32229648   1.662   1.662   2.553 -2.4901  0.4584 -0.5169
   44MOL   H32329649   1.759   1.579   2.430  1.9408  2.7667  0.4600
   44MOL   H32429650   1.556   1.526   2.303 -0.4505 -1.4812 -0.4293
   44MOL   H32529651   1.455   1.593   2.438 -0.1220 -1.0065 -0.6582
   44MOL   H32629652   1.660   1.372   2.457  0.4901  0.3879 -0.9945
   44MOL   H32729653   1.547   1.418   2.580 -0.1248 -0.6171 -0.3927
   44MOL   H32829654   1.485   1.290   2.308  0.2490 -0.6271 -0.3332
   44MOL   H32929655   1.357   1.342   2.418 -2.1167 -3.4011 -3.1485
   44MOL   H33029656   1.432   1.183   2.590  2.6859  1.4152  0.4252
   44MOL   H33129657   1.564   1.134   2.496  0.4265 -0.5701  1.0070
   44MOL   H33229658   1.338   0.999   2.518 -3.1295 -1.5635 -1.9770
   44MOL   H33329659   1.267   1.124   2.416 -0.3832 -1.5262 -1.1728
   44MOL   H33429660   1.490   0.952   2.327  0.0004  0.9129 -0.8379
   44MOL   H33529661   1.403   1.072   2.227  1.8518  0.0337  0.8143
   44MOL   H33629662   1.189   0.912   2.299 -0.6762 -0.1366 -2.6179
   44MOL   H33729663   1.270   0.877   2.152 -3.7562 -2.4240  1.0014
   44MOL   H33829664   1.344   0.759   2.430 -0.3918  0.3804  0.3324
   44MOL   H33929665   1.394   0.694   2.275 -0.3464 -0.9413  1.5616
   44MOL   H34029666   1.174   0.646   2.218 -0.5434 -2.1440  0.2551
   44MOL   H34129667   1.122   0.711   2.387 -1.4019 -0.2224 -1.2068
   44MOL   N34229668   1.240   0.501   2.503  0.0969  0.4881  0.5956
   44MOL   C34329669   1.262   0.379   2.573  0.2923  0.3800 -0.9431
   44MOL   C34429670   1.123   0.351   2.646  0.2930  0.2163 -0.4982
   44MOL   C34529671   1.016   0.295   2.551  0.0783  0.6771 -0.1833
   44MOL   C34629672   0.891   0.244   2.619  0.2753 -0.3728 -0.2401
   44MOL   C34729673   0.781   0.199   2.523 -0.4030  0.1454  0.5011
   44MOL   C34829674   0.643   0.211   2.597 -0.2976 -0.0902 -0.1238
   44MOL   C34929675   0.535   0.142   2.522  0.6873 -0.0185 -0.2026
   44MOL   C35029676   0.407   0.154   2.592  0.4279 -0.0758 -0.0885
   44MOL   C35129677   0.290   0.072   2.529  0.0454  0.5641  0.5884
   44MOL   C35229678   0.292   7.636   2.578 -0.4706 -0.3105 -0.4578
   44MOL   C35329679   0.177   7.550   2.538  0.2345  0.3659  0.3616
   44MOL   O35429680   0.129   7.559   2.427  0.0819  0.3447 -0.1195
   44MOL   H35529681   1.219   0.578   2.565  3.3315  1.9808 -0.0527
   44MOL   H35629682   1.307   0.303   2.509  0.5861 -0.6306  0.4346
   44MOL   H35729683   1.344   0.414   2.635 -0.0662 -2.4781  1.3039
   44MOL   H35829684   1.095   0.445   2.694  1.3018 -0.0361  0.6123
   44MOL   H35929685   1.137   0.290   2.736 -1.4555  1.8203  0.8964
   44MOL   H36029686   0.994   0.370   2.475  0.6876  2.1144  1.0322
   44MOL   H36129687   1.058   0.211   2.495  1.2949  2.5613 -2.1920
   44MOL   H36229688   0.863   0.326   2.685 -1.7512 -1.7932  0.7495
   44MOL   H36329689   0.908   0.168   2.696 -1.9998 -1.0506 -0.3520
   44MOL   H36429690   0.799   0.101   2.479 -0.5310 -0.0135  0.8036
   44MOL   H36529691   0.764   0.271   2.443  0.1336  0.1041  0.3501
   44MOL   H36629692   0.640   0.180   2.702  0.7508  5.3110  1.6650
   44MOL   H36729693   0.604   0.313   2.598 -1.4789 -0.5430  0.2498
   44MOL   H36829694   0.559   0.036   2.513  0.2427 -0.0863 -0.5891
   44MOL   H36929695   0.519   0.195   2.428 -1.8173  1.3255  0.9145
   44MOL   H37029696   0.418   0.127   2.697  0.8433 -1.5450 -0.4984
   44MOL   H37129697   0.364   0.254   2.595  1.3421  0.3752 -1.5139
   44MOL   H37229698   0.281   0.081   2.421  0.0719  0.5855  0.5879
   44MOL   H37329699   0.201   0.123   2.565 -0.7854 -1.6288  1.7825
   44MOL   H37429700   0.300   7.635   2.687  4.0074 -0.3108 -0.7018
   44MOL   H37529701   0.376   7.582   2.534 -0.9716 -1.7648  0.3638
   44MOL   N37629702   0.143   7.461   2.630 -0.0903  0.2572  0.2773
   44MOL   C37729703   0.062   7.347   2.603 -0.1090  0.2679  0.2736
   44MOL   C37829704   0.142   7.226   2.653  0.2889 -0.4683  0.5897
   44MOL   C37929705   0.061   7.096   2.672  0.0271 -0.6189  0.1000
   44MOL   C38029706   7.715   7.030   2.546  0.1123 -0.0355 -0.6806
   44MOL   C38129707   7.622   6.913   2.586 -0.3639 -0.1887  0.4453
   44MOL   C38229708   7.484   6.964   2.625  0.9601 -0.0059 -0.1532
   44MOL   C38329709   7.376   6.871   2.666  0.8828 -0.0004  0.3038
   44MOL   C38429710   7.418   6.779   2.780 -0.0661 -0.4701  0.5668
   44MOL   C38529711   7.293   6.697   2.823  0.7130  0.3175 -0.1594
   44MOL   C38629712   7.312   6.575   2.923  0.1983 -0.4943  0.0015
   44MOL   C38729713   7.370   6.446   2.856 -0.1933  0.9790  0.3669
   44MOL   O38829714   7.428   6.450   2.748  0.1848  0.8699 -0.0077
   44MOL   H38929715   0.182   7.472   2.722 -2.1232  1.7265  1.0043
   44MOL   H39029716   7.688   7.353   2.663  0.6257 -0.2557  1.4423
   44MOL   H39129717   0.026   7.340   2.500 -1.2972  0.2980  0.6826
   44MOL   H39229718   0.180   7.259   2.749 -0.6794 -0.8167  1.0942
   44MOL   H39329719   0.227   7.206   2.586  0.9510 -1.0417  1.5925
   44MOL   H39429720   0.105   7.020   2.738 -2.4335 -0.5621  1.8789
   44MOL   H39529721   7.704   7.129   2.746 -0.5690 -1.1431 -0.2405
   44MOL   H39629722   0.091   7.003   2.495  2.0860  2.5379  1.3213
   44MOL   H39729723   7.666   7.105   2.482  0.6540  0.4543 -0.5258
   44MOL   H39829724   7.657   6.857   2.673 -1.6917  2.6306  2.8663
   44MOL   H39929725   7.607   6.852   2.497 -1.7108 -0.5462  0.9114
   44MOL   H40029726   7.497   7.043   2.698  2.9451 -0.6261  0.2048
   44MOL   H40129727   7.451   7.008   2.531 -1.7102 -1.1424  0.1992
   44MOL   H40229728   7.334   6.820   2.580 -1.7437 -0.0060  1.5562
   44MOL   H40329729   7.290   6.931   2.695 -0.5258 -1.1024 -1.4705
   44MOL   H40429730   7.499   6.714   2.747  0.1756 -0.5656  1.3396
   44MOL   H40529731   7.459   6.834   2.865  1.3325 -1.7361  0.7285
   44MOL   H40629732   7.237   6.639   2.750  0.8488 -1.9909  1.5336
   44MOL   H40729733   7.230   6.769   2.875  0.0385 -0.7212  0.4839
   44MOL   H40829734   7.214   6.546   2.961  0.8485 -1.0730  1.2511
   44MOL   H40929735   7.380   6.588   3.007  0.2352 -0.2316 -0.0688
   44MOL   N41029736   7.367   6.333   2.928  0.4424  0.3094  0.2430
   44MOL   C41129737   7.431   6.199   2.894  0.0768 -0.3685  0.1474
   44MOL   C41229738   7.345   6.109   2.792 -0.3142 -0.5547  0.0969
   44MOL   C41329739   7.198   6.093   2.836  0.1763  0.0183 -0.1089
   44MOL   C41429740   7.126   5.962   2.788  0.3679  0.9915  0.6503
   44MOL   C41529741   6.972   5.962   2.807 -0.2865 -0.1978  0.0627
   44MOL   C41629742   6.926   6.005   2.948  0.4042  0.1682 -0.0085
   44MOL   C41729743   6.776   6.014   2.945 -0.0885 -0.0130  0.1539
   44MOL   C41829744   6.715   6.019   3.084 -0.1261  0.1605  0.4837
   44MOL   C41929745   6.560   6.022   3.089  0.4542 -0.4376  0.4804
   44MOL   C42029746   6.490   6.027   3.230 -0.3215 -0.2372 -0.0416
   44MOL   C42129747   6.525   6.149   3.308  0.3888 -0.1513 -0.3337
   44MOL   O42229748   6.459   6.253   3.292 -0.7374  0.1451 -0.8440
   44MOL   H42329749   7.313   6.334   3.014 -0.9571  0.8601 -0.6183
   44MOL   H42429750   7.532   6.213   2.857 -0.2268 -0.6476 -0.7943
   44MOL   H42529751   7.448   6.138   2.983  0.1997 -1.1027 -0.3768
   44MOL   H42629752   7.388   6.009   2.791 -0.3718 -0.5633 -1.9692
   44MOL   H42729753   7.350   6.160   2.696  0.3743 -2.2620 -0.7976
   44MOL   H42829754   7.197   6.093   2.945 -1.1371  0.2176 -0.1053
   44MOL   H42929755   7.139   6.179   2.805 -1.5115 -1.2174 -0.4101
   44MOL   H43029756   7.177   5.878   2.836  0.1227 -1.1963 -2.7346
   44MOL   H43129757   7.148   5.961   2.681  0.6502  0.6040  0.7128
   44MOL   H43229758   6.935   5.862   2.784  0.7736 -0.2714 -1.4391
   44MOL   H43329759   6.937   6.021   2.722  0.5850  0.9452  0.4881
   44MOL   H43429760   6.956   5.919   3.009  2.9684 -0.3515 -1.9322
   44MOL   H43529761   6.968   6.100   2.983 -1.0124  1.2024 -1.0355
   44MOL   H43629762   6.736   5.920   2.906  1.8925 -1.0290  0.4864
   44MOL   H43729763   6.746   6.101   2.887 -1.6430  0.5576  1.7569
   44MOL   H43829764   6.759   5.933   3.133  3.2200  1.7473  0.4036
   44MOL   H43929765   6.764   6.104   3.131  2.8728 -0.5074 -1.3186
   44MOL   H44029766   6.532   5.934   3.029  2.2904 -0.2618 -0.6695
   44MOL   H44129767   6.522   6.106   3.032  2.6960  0.0433 -0.3652
   44MOL   H44229768   6.519   5.938   3.286  0.5547 -0.7341 -1.2616
   44MOL   H44329769   6.382   6.031   3.214 -0.2576  1.6579 -0.1590
   44MOL   N44429770   6.622   6.143   3.397 -0.3363  0.0374 -0.6508
   44MOL   C44529771   6.659   6.259   3.477  0.5218 -0.0983 -0.7681
   44MOL   C44629772   6.819   6.265   3.485  0.0098  0.2039  0.4165
   44MOL   C44729773   6.889   6.282   3.349 -0.0664  0.7225  0.5197
   44MOL   C44829774   7.015   6.374   3.355 -1.1720 -0.0385 -0.0643
   44MOL   C44929775   7.097   6.387   3.230  0.4034  0.2665  0.3530
   44MOL   C45029776   7.176   6.263   3.193 -0.2956  0.7839 -0.0280
   44MOL   C45129777   7.298   6.219   3.277 -0.0886 -0.3073  0.1675
   44MOL   C45229778   7.399   6.341   3.293  0.3323  0.2933 -0.5313
   44MOL   C45329779   7.544   6.301   3.325  0.8053 -0.3053 -0.1466
   44MOL   C45429780   7.625   6.397   3.419 -0.0658 -0.4168  0.5377
   44MOL   C45529781   7.672   6.531   3.352 -0.1425  0.1639 -0.0983
   44MOL   O45629782   7.619   6.588   3.256  0.0212 -0.4344  0.6407
   44MOL   H45729783   6.681   6.061   3.393  0.8725  0.7234  1.6771
   44MOL   H45829784   6.626   6.355   3.439  2.4119  0.2050 -1.6914
   44MOL   H45929785   6.621   6.251   3.579 -0.3008  1.6869 -0.9252
   44MOL   H46029786   6.863   6.185   3.543 -0.3532 -0.1276  0.2377
   44MOL   H46129787   6.850   6.354   3.540  1.2386  0.2884 -0.3936
   44MOL   H46229788   6.916   6.181   3.319 -0.6828  0.9454 -0.8068
   44MOL   H46329789   6.825   6.329   3.274  1.0967  2.1741  0.4141
   44MOL   H46429790   7.093   6.337   3.421  1.2381  2.3166 -1.4966
   44MOL   H46529791   6.973   6.469   3.388 -1.2348 -0.0220 -0.1915
   44MOL   H46629792   7.164   6.471   3.248 -0.0510  0.5191  0.8952
   44MOL   H46729793   7.027   6.397   3.148  0.2467 -2.1174  0.1548
   44MOL   H46829794   7.112   6.175   3.181 -0.5331  0.8402  0.7448
   44MOL   H46929795   7.201   6.278   3.089  0.6819  1.8909  0.3623
   44MOL   H47029796   7.340   6.140   3.213  0.3594 -1.5021  1.9034
   44MOL   H47129797   7.284   6.176   3.376 -1.1633 -0.2927  0.0285
   44MOL   H47229798   7.406   6.410   3.209 -0.5294  0.7120 -0.2648
   44MOL   H47329799   7.374   6.408   3.375 -0.5302 -0.1510 -0.4287
   44MOL   H47429800   7.587   6.285   3.226 -1.9022 -2.1211 -1.0879
   44MOL   H47529801   7.537   6.199   3.365 -0.8961 -1.2322 -2.6914
   44MOL   H47629802   7.710   6.357   3.474 -0.4735 -2.8502 -0.5296
   44MOL   H47729803   7.559   6.430   3.499 -0.9834  1.0669 -0.8243
   44MOL   N47829804   0.062   6.591   3.417  0.5823 -0.5441  0.2110
   44MOL   C47929805   0.134   6.711   3.381  0.2397  0.4803  0.2564
   44MOL   C48029806   0.067   6.831   3.442  0.2483 -0.5521 -0.0834
   44MOL   C48129807   0.142   6.964   3.401  0.2500  0.5586 -0.0181
   44MOL   C48229808   0.079   7.090   3.463  0.6764  0.6473 -0.0915
   44MOL   C48329809   0.153   7.226   3.437  0.9330 -0.0601 -0.1673
   44MOL   C48429810   0.065   7.336   3.496  0.3880 -0.1806  0.8099
   44MOL   C48529811   0.115   7.473   3.450 -0.2148  1.0247 -0.8888
   44MOL   C48629812   0.246   7.512   3.513  0.6096  0.8271  0.4921
   44MOL   C48729813   0.290   7.652   3.444  0.1600 -0.0168 -0.0311
   44MOL   C48829814   0.437   7.681   3.473 -0.5496 -0.0317  0.2065
   44MOL   C48929815   0.539   7.593   3.407  0.9133 -0.0154 -0.2682
   44MOL   O49029816   0.511   7.517   3.310 -0.1715 -0.0878  0.1158
   44MOL   H49129817   0.104   6.544   3.496  0.3792 -2.3114 -0.7160
   44MOL   H49229818   0.237   6.709   3.416  0.4669 -1.0718 -0.4409
   44MOL   H49329819   0.136   6.713   3.272  1.5384 -1.9520  0.2053
   44MOL   H49429820   0.067   6.825   3.551  0.9372  0.6357 -0.0128
   44MOL   H49529821   7.678   6.838   3.414  0.1582 -0.4752  0.2686
   44MOL   H49629822   0.246   6.951   3.430  0.1410  0.1935  0.2154
   44MOL   H49729823   0.146   6.973   3.292  0.9917 -0.2044 -0.0575
   44MOL   H49829824   0.060   7.086   3.570  1.9518 -0.3031  0.1217
   44MOL   H49929825   7.699   7.091   3.412  1.3356  1.8280 -1.3375
   44MOL   H50029826   0.179   7.242   3.333  0.6639  1.4368 -0.0069
   44MOL   H50129827   0.246   7.234   3.493  1.2217  2.3365 -0.9310
   44MOL   H50229828   7.679   7.321   3.460  1.1776  0.6511 -1.8839
   44MOL   H50329829   0.051   7.329   3.604 -1.1367  1.5468  0.7577
   44MOL   H50429830   0.047   7.546   3.493  0.6061  1.1360  0.2354
   44MOL   H50529831   0.116   7.474   3.341  2.7490  0.8011 -0.8917
   44MOL   H50629832   0.229   7.526   3.620 -1.5867 -0.9998  0.4204
   44MOL   H50729833   0.328   7.446   3.485 -0.3115  0.3595 -1.1676
   44MOL   H50829834   0.231   0.020   3.481  2.1554  1.4956 -0.2221
   44MOL   H50929835   0.262   7.648   3.339  0.7761  1.1286 -0.2432
   44MOL   H51029836   0.465   7.692   3.578  0.8495  0.6051 -0.2197
   44MOL   H51129837   0.453   0.060   3.421 -2.1483  0.4248  0.5061
   44MOL   N51229838   0.668   7.612   3.442 -0.2922  0.7175 -0.2220
   44MOL   C51329839   0.782   7.541   3.391  0.7347  0.3188 -0.1815
   44MOL   C51429840   0.848   7.451   3.499  0.0967 -0.3092  0.5414
   44MOL   C51529841   0.756   7.350   3.572  0.8616  0.1447 -0.4064
   44MOL   C51629842   0.824   7.227   3.641  0.0696 -0.0410  0.3932
   44MOL   C51729843   0.873   7.120   3.536 -0.1784  0.2938 -0.0932
   44MOL   C51829844   0.955   7.005   3.599 -0.0744 -0.5631  0.4161
   44MOL   C51929845   0.998   6.898   3.497  0.3004  0.9429  0.5530
   44MOL   C52029846   1.099   6.932   3.385 -0.2851  0.0521  0.6723
   44MOL   C52129847   1.117   6.841   3.259 -0.9620 -0.2764  0.4463
   44MOL   C52229848   1.229   6.898   3.173  0.3093  0.8634  0.4838
   44MOL   C52329849   1.238   6.817   3.047 -0.0844 -0.0609 -0.1946
   44MOL   O52429850   1.166   6.717   3.030  0.2983 -0.0342 -0.0798
   44MOL   H52529851   0.689   7.680   3.513 -1.1676 -1.1191  1.8630
   44MOL   H52629852   0.762   7.489   3.298 -1.3866  0.0427  0.4063
   44MOL   H52729853   0.848   7.620   3.355  0.0999  0.9035 -0.0806
   44MOL   H52829854   0.909   7.519   3.558 -1.6825  1.4350  0.4302
   44MOL   H52929855   0.912   7.396   3.431 -0.4676 -0.1353 -0.1452
   44MOL   H53029856   0.711   7.406   3.653 -0.5694  0.0584 -1.1183
   44MOL   H53129857   0.676   7.311   3.508  0.3328 -0.1915  0.4535
   44MOL   H53229858   0.757   7.179   3.712  0.6742  1.2403  1.8588
   44MOL   H53329859   0.907   7.259   3.704  0.0839  1.8295 -0.5339
   44MOL   H53429860   0.929   7.151   3.448  0.4932 -0.3670  0.0866
   44MOL   H53529861   0.790   7.065   3.491 -0.5462  0.2122  0.6785
   44MOL   H53629862   1.046   7.059   3.625 -1.1392 -0.1858  3.5432
   44MOL   H53729863   0.906   6.963   3.687 -1.3718  3.4664  1.7466
   44MOL   H53829864   0.908   6.854   3.453  0.7668 -2.9106  3.2292
   44MOL   H53929865   1.041   6.815   3.553  2.4611 -0.4428 -3.0014
   44MOL   H54029866   1.069   7.030   3.346  1.0227  0.9603  1.9143
   44MOL   H54129867   1.194   6.962   3.429 -0.1432  0.6718 -0.0383
   44MOL   H54229868   1.026   6.833   3.200 -0.9104  1.7465  0.0753
   44MOL   H54329869   1.145   6.748   3.309  1.1361  0.4619  0.6840
   44MOL   H54429870   1.329   6.914   3.212  0.7191  0.9342 -0.5690
   44MOL   H54529871   1.207   7.000   3.140 -0.4575  0.8484  0.9408
   44MOL   N54629872   1.330   6.843   2.952  0.5598 -0.8175 -0.1239
   44MOL   C54729873   1.359   6.780   2.830 -0.1516  0.3749 -0.7750
   44MOL   C54829874   1.436   6.647   2.853  1.0050 -0.1046  0.0818
   44MOL   C54929875   1.555   6.662   2.944 -0.0538  0.6051  0.0916
   44MOL   C55029876   1.667   6.553   2.931 -0.1812 -0.1671 -0.1270
   44MOL   C55129877   1.771   6.574   3.040 -0.7807 -0.2561 -0.9856
   44MOL   C55229878   1.886   6.463   3.039 -0.0628 -0.2134  0.6773
   44MOL   C55329879   1.928   6.419   3.180 -1.2310 -0.6509 -0.0813
   44MOL   C55429880   2.040   6.307   3.179  0.2381 -0.8732 -0.1484
   44MOL   C55529881   2.079   6.267   3.323 -0.4558  0.4126  0.3551
   44MOL   C55629882   2.168   6.377   3.391 -0.3474 -0.0128  0.4256
   44MOL   C55729883   2.218   6.344   3.529  0.0667 -0.4978 -0.2510
   44MOL   O55829884   2.167   6.248   3.591 -0.1552  0.4453 -0.4761
   44MOL   H55929885   1.391   6.923   2.965 -0.8886 -0.1424  2.7269
   44MOL   H56029886   1.264   6.753   2.784 -0.4350  0.2580 -0.1295
   44MOL   H56129887   1.406   6.858   2.771  0.9562 -0.3979 -0.9381
   44MOL   H56229888   1.467   6.610   2.756 -2.3935 -0.5211 -0.8971
   44MOL   H56329889   1.365   6.578   2.899  0.1369 -1.1494 -2.7736
   44MOL   H56429890   1.602   6.758   2.927 -1.8462  1.2361 -1.4389
   44MOL   H56529891   1.513   6.658   3.045  3.5282 -1.7914  1.6068
   44MOL   H56629892   1.703   6.572   2.830 -1.4318  0.3122 -0.4943
   44MOL   H56729893   1.619   6.455   2.938  0.7926 -0.7299 -1.0386
   44MOL   H56829894   1.711   6.562   3.130  0.3163 -2.9556 -0.5596
   44MOL   H56929895   1.814   6.674   3.047 -0.5113 -0.4261 -0.1634
   44MOL   H57029896   1.844   6.372   2.998  0.4587 -0.5405  0.8649
   44MOL   H57129897   1.971   6.496   2.979  0.5133 -1.8049  0.5943
   44MOL   H57229898   1.843   6.381   3.235 -0.3338 -1.5778  0.6789
   44MOL   H57329899   1.958   6.516   3.222  3.2676 -2.4606  1.1536
   44MOL   H57429900   2.002   6.216   3.131  1.3543 -2.2542  1.5253
   44MOL   H57529901   2.126   6.345   3.125  0.7073 -0.2767  1.0032
   44MOL   H57629902   2.137   6.176   3.307  0.0958  1.1235 -1.8050
   44MOL   H57729903   1.988   6.248   3.380  0.1168 -3.6350  0.0778
   44MOL   H57829904   2.122   6.476   3.400  1.8888  1.1141 -0.3440
   44MOL   H57929905   2.258   6.391   3.331 -0.7867 -4.8027 -1.5589
   44MOL   N58029906   2.313   6.427   3.577 -0.1367 -0.0387 -0.0463
   44MOL   C58129907   2.381   6.408   3.703  0.3556  0.3153  0.1763
   44MOL   C58229908   2.412   6.544   3.781  0.4538  0.9087  0.3255
   44MOL   C58329909   2.474   6.661   3.703 -0.3630 -0.0829 -0.1869
   44MOL   C58429910   2.493   6.790   3.785 -0.6311 -0.0700 -0.0801
   44MOL   C58529911   2.361   6.861   3.824  0.5772  0.0086 -0.4557
   44MOL   C58629912   2.369   6.997   3.894  0.3039 -0.4078  0.2770
   44MOL   C58729913   2.225   7.054   3.907  0.8399  0.1280  0.1533
   44MOL   C58829914   2.237   7.188   3.976  0.0311 -0.9846 -0.4826
   44MOL   C58929915   2.203   7.197   4.131 -0.3428  0.0956  0.5051
   44MOL   C59029916   2.069   7.155   4.172  0.8213  0.6583 -0.1150
   44MOL   C59129917   1.949   7.245   4.121 -0.2043  0.1457  0.1749
   44MOL   O59229918   1.943   7.364   4.153 -0.1983 -0.2079 -0.0808
   44MOL   H59329919   2.334   6.511   3.526  0.1790  0.2912  0.6175
   44MOL   H59429920   2.324   6.353   3.777  0.7191  0.0694  0.2729
   44MOL   H59529921   2.472   6.349   3.695  1.7171  1.9542  2.7693
   44MOL   H59629922   2.452   6.537   3.882 -1.4042  1.9572  1.1575
   44MOL   H59729923   2.313   6.579   3.811  1.0163  1.4507  1.6196
   44MOL   H59829924   2.575   6.634   3.675  0.6196  1.7355  1.4797
   44MOL   H59929925   2.426   6.679   3.606 -0.1532 -1.6282 -0.5855
   44MOL   H60029926   2.565   6.852   3.731 -0.3958 -0.7695 -0.5655
   44MOL   H60129927   2.554   6.778   3.875  1.8377 -1.7380 -1.9178
   44MOL   H60229928   2.306   6.788   3.884  0.0765 -0.8206 -1.8929
   44MOL   H60329929   2.304   6.879   3.733 -1.8511 -0.7003  0.8890
   44MOL   H60429930   2.409   6.980   3.995 -3.4836 -3.4479  1.3700
   44MOL   H60529931   2.432   7.065   3.836 -1.4073 -1.2627 -2.6487
   44MOL   H60629932   2.175   6.981   3.971  2.0439 -0.3823  0.5366
   44MOL   H60729933   2.169   7.055   3.813  1.1121 -0.8541 -0.0239
   44MOL   H60829934   2.334   7.237   3.967  1.0115 -2.5123  1.3543
   44MOL   H60929935   2.167   7.248   3.918  2.2115  0.2703 -1.9175
   44MOL   H61029936   2.224   7.295   4.175 -1.3963  0.4672  0.2100
   44MOL   H61129937   2.284   7.148   4.186 -1.0592 -0.4613  1.0785
   44MOL   H61229938   2.060   7.152   4.281  1.0559 -3.4248 -0.1585
   44MOL   H61329939   2.047   7.053   4.143 -1.4011  0.6482  1.4596
   44MOL   N61429940   1.862   7.190   4.040 -0.3139 -0.1724  0.6202
   44MOL   C61529941   1.766   7.271   3.967  0.7056 -0.4546  0.0044
   44MOL   C61629942   1.754   7.231   3.820 -0.5608 -0.5331  0.5505
   44MOL   C61729943   1.888   7.217   3.743  0.0788 -0.0708  0.0470
   44MOL   C61829944   1.860   7.186   3.595  0.1129 -0.1701 -0.8750
   44MOL   C61929945   1.986   7.189   3.515 -0.2133 -0.1757  0.2355
   44MOL   C62029946   1.981   7.154   3.369 -0.7271 -0.4120 -0.3665
   44MOL   C62129947   1.965   7.002   3.342 -0.2365 -0.3432  0.2268
   44MOL   C62229948   2.100   6.938   3.296  0.2338  0.1767 -0.1504
   44MOL   C62329949   2.087   6.790   3.259 -0.3661 -0.2947  0.4539
   44MOL   C62429950   2.226   6.737   3.214 -0.4642  0.0501  0.7394
   44MOL   C62529951   2.329   6.738   3.320  0.3035 -0.0744 -0.2574
   44MOL   O62629952   2.319   6.660   3.415 -0.9252 -0.4801  0.4700
   44MOL   H62729953   1.864   7.090   4.025 -1.8419 -0.0634 -0.3698
   44MOL   H62829954   1.782   7.378   3.982  0.9117 -0.5142  0.2144
   44MOL   H62929955   1.669   7.258   4.014  0.3300  0.3016 -0.5470
   44MOL   H63029956   1.681   7.295   3.769  0.7053 -0.7352 -1.5475
   44MOL   H63129957   1.690   7.143   3.813  0.4432 -1.1499 -0.8893
   44MOL   H63229958   1.956   7.299   3.767 -1.1048  0.0213  3.4022
   44MOL   H63329959   1.936   7.132   3.793 -0.9171 -1.4218 -1.2615
   44MOL   H63429960   1.792   7.257   3.547 -0.0981  0.0867 -0.2027
   44MOL   H63529961   1.816   7.087   3.592 -0.9790  0.2073  1.9494
   44MOL   H63629962   2.052   7.120   3.566  0.1259  2.4468  3.5546
   44MOL   H63729963   2.023   7.292   3.519  1.9853 -0.8837 -1.2780
   44MOL   H63829964   1.905   7.209   3.313 -0.5473 -1.4196 -1.6191
   44MOL   H63929965   2.073   7.187   3.321 -1.0409  2.0104  0.6416
   44MOL   H64029966   1.892   6.975   3.266  0.3989  0.9595 -0.8678
   44MOL   H64129967   1.928   6.949   3.430 -3.1979 -0.1106 -0.8409
   44MOL   H64229968   2.124   6.987   3.202  0.3535  0.4886  0.0402
   44MOL   H64329969   2.176   6.940   3.374  0.2316 -0.8209 -0.1126
   44MOL   H64429970   2.012   6.759   3.186 -1.3792 -0.9185  1.7366
   44MOL   H64529971   2.053   6.749   3.354  1.0326 -0.1487  1.0244
   44MOL   H64629972   2.259   6.795   3.128 -2.7668  0.8039  0.3141
   44MOL   H64729973   2.212   6.636   3.177 -2.3329  0.7440 -0.5728
   44MOL   N64829974   2.429   6.828   3.309 -0.3793 -0.2771 -0.0948
   44MOL   C64929975   2.537   6.843   3.397 -0.0947 -0.2441  0.4421
   44MOL   C65029976   2.589   6.993   3.375 -0.4738  0.1632 -0.4607
   44MOL   C65129977   2.496   7.112   3.388  0.6775  0.2216  0.0341
   44MOL   C65229978   2.422   7.139   3.520  0.1908 -0.3844  0.1903
   44MOL   C65329979   2.361   7.283   3.506  0.2676  0.4338 -0.0085
   44MOL   C65429980   2.301   7.344   3.637 -0.7719 -0.3751  0.9009
   44MOL   C65529981   2.260   7.493   3.623  0.2496  0.3359  0.2178
   44MOL   C65629982   2.245   7.558   3.756 -1.3346 -0.2341 -0.9700
   44MOL   C65729983   2.380   7.579   3.840  0.1686 -0.5701  0.1066
   44MOL   C65829984   2.357   7.629   3.991 -0.3803 -0.1026 -0.6496
   44MOL   C65929985   2.331   0.064   4.002  0.2964 -0.2216 -1.3833
   44MOL   O66029986   2.341   0.143   3.908 -0.4502  0.6727  0.2451
   44MOL   H66129987   2.433   6.895   3.234  0.4148 -0.1730  0.0415
   44MOL   H66229988   2.615   6.770   3.378 -1.1825 -0.9653 -1.3382
   44MOL   H66329989   2.510   6.830   3.502 -2.1441 -0.1263 -0.0374
   44MOL   H66429990   2.630   6.996   3.275  1.3133 -1.8730  0.1846
   44MOL   H66529991   2.677   7.011   3.437 -0.0974 -0.7979 -0.7008
   44MOL   H66629992   2.553   7.202   3.366  0.3244  0.6877  0.9985
   44MOL   H66729993   2.415   7.104   3.315  1.8632 -1.3184 -1.1465
   44MOL   H66829994   2.482   7.140   3.611 -1.0619  1.1034  1.0071
   44MOL   H66929995   2.350   7.058   3.531  0.1471 -0.6804 -2.0522
   44MOL   H67029996   2.280   7.282   3.433 -1.2085  0.5127  1.5978
   44MOL   H67129997   2.440   7.349   3.468  0.9382 -0.3133  0.0662
   44MOL   H67229998   2.206   7.296   3.663 -1.1908 -0.5471 -0.8629
   44MOL   H67329999   2.380   7.329   3.710  1.2721 -1.1277 -1.4058
   44MOL   H67430000   2.161   7.504   3.578 -0.1743  0.5461  1.1871
   44MOL   H67530001   2.336   7.546   3.567  1.0836 -1.2437 -0.1768
   44MOL   H67630002   2.202   7.657   3.745 -1.8126 -0.4613 -1.1624
   44MOL   H67730003   2.174   7.500   3.815  0.5442 -0.7694  0.8402
   44MOL   H67830004   2.452   7.640   3.786  1.9895 -1.2232  1.7548
   44MOL   H67930005   2.423   7.480   3.849 -0.2818 -1.0997 -2.9347
   44MOL   H68030006   2.448   7.629   4.052 -0.2677  0.9778 -0.8143
   44MOL   H68130007   2.293   7.572   4.058 -0.2918  1.3459  0.6891
   44MOL   H68230008   2.309   0.096   4.103  0.8241  0.2402 -1.4174
   45MOL     N130009   5.807   5.322   3.130  0.1800  0.2453 -0.7413
   45MOL     C230010   5.766   5.188   3.098 -0.3596 -0.4371  0.2259
   45MOL     C330011   5.887   5.109   3.038 -0.0296 -0.3142 -0.5423
   45MOL     C430012   5.851   4.999   2.938 -0.0824 -0.5374  0.4599
   45MOL     C530013   5.967   4.901   2.915  0.6636 -0.0441  0.0545
   45MOL     C630014   5.912   4.787   2.833  0.3426  0.2074  0.2986
   45MOL     C730015   6.035   4.712   2.762 -0.1921 -0.3177 -0.1674
   45MOL     C830016   5.995   4.571   2.695 -0.1628 -0.7581 -0.2619
   45MOL     C930017   5.932   4.580   2.553  0.1240  0.2075  0.1699
   45MOL    C1030018   5.894   4.437   2.497 -0.2687 -0.6430 -0.5440
   45MOL    C1130019   5.828   4.437   2.360  0.3636 -0.1908 -0.2733
   45MOL    C1230020   5.913   4.495   2.244 -0.6889 -0.6953  0.0975
   45MOL    O1330021   6.031   4.455   2.223  0.5583  0.3520 -0.1072
   45MOL    H1430022   5.854   5.358   3.049 -0.1608 -0.2542 -1.1615
   45MOL    H1530023   5.679   5.190   3.032 -1.5827 -0.7513  1.7835
   45MOL    H1630024   5.734   5.145   3.193  0.8355 -1.0624  0.3569
   45MOL    H1730025   5.932   5.075   3.131 -1.4314  0.0782  0.2990
   45MOL    H1830026   5.966   5.173   3.000  0.5544 -0.7911 -0.1501
   45MOL    H1930027   5.762   4.955   2.982 -1.1817  1.5372  0.3430
   45MOL    H2030028   5.816   5.044   2.845 -1.3750  2.2027  2.2219
   45MOL    H2130029   6.007   4.860   3.008  2.8736  1.6036 -0.1178
   45MOL    H2230030   6.043   4.957   2.861  0.4435  0.3231  0.1242
   45MOL    H2330031   5.846   4.824   2.755 -1.3690  0.1013  1.6885
   45MOL    H2430032   5.847   4.725   2.894 -1.3381  1.2129 -0.4408
   45MOL    H2530033   6.055   4.780   2.679 -0.8404  0.0388 -0.0405
   45MOL    H2630034   6.106   4.700   2.843  0.6187  0.3642 -0.7771
   45MOL    H2730035   5.934   4.513   2.764  0.2603  0.7092  1.3887
   45MOL    H2830036   6.084   4.508   2.702  0.2865  0.0579  1.7869
   45MOL    H2930037   5.834   4.624   2.569 -0.5541 -0.9901 -0.6168
   45MOL    H3030038   5.988   4.648   2.489  3.5385 -1.1856  1.5303
   45MOL    H3130039   5.825   4.398   2.573  0.8764  0.6477  1.2075
   45MOL    H3230040   5.979   4.369   2.492  1.1944  1.0959  0.2145
   45MOL    H3330041   5.730   4.486   2.363  0.3004 -0.3329  0.0752
   45MOL    H3430042   5.804   4.331   2.349 -1.9336  0.0672  1.8433
   45MOL    H3530043   5.728   5.385   3.133  0.9791  1.1882  0.7769
   45MOL    N3630044   5.853   4.584   2.158  0.0956  0.1462 -0.3731
   45MOL    C3730045   5.913   4.650   2.039 -0.1265 -0.4436 -0.2362
   45MOL    C3830046   6.036   4.725   2.068 -0.5904 -1.0078 -0.3824
   45MOL    C3930047   6.006   4.862   2.137 -0.4126  0.6540 -0.0121
   45MOL    C4030048   6.004   4.853   2.288  0.3113 -0.2706  0.5108
   45MOL    C4130049   5.986   4.988   2.357 -0.3233  0.0570  0.5983
   45MOL    C4230050   5.991   4.986   2.512  0.4904 -0.0332  0.3624
   45MOL    C4330051   5.981   5.122   2.571  0.4558 -0.0632 -0.6669
   45MOL    C4430052   6.113   5.201   2.556 -0.4201 -0.3183  0.5209
   45MOL    C4530053   6.113   5.348   2.601 -0.3075 -0.0870 -0.6298
   45MOL    C4630054   6.252   5.414   2.559  0.1659  0.1208  0.5628
   45MOL    C4730055   6.252   5.452   2.409 -0.7245 -0.6407 -0.2039
   45MOL    O4830056   6.171   5.408   2.333  0.3752  0.1468  0.1432
   45MOL    H4930057   5.760   4.616   2.182  1.2800  3.0282  0.5575
   45MOL    H5030058   5.936   4.577   1.961 -1.5266 -1.1950  0.0348
   45MOL    H5130059   5.837   4.714   1.995 -0.1340 -0.4413 -0.2206
   45MOL    H5230060   6.086   4.745   1.973 -0.4976 -0.7275 -0.2763
   45MOL    H5330061   6.115   4.671   2.121 -0.3234 -0.9141 -0.6844
   45MOL    H5430062   6.091   4.924   2.109  0.9220 -1.9258 -1.7469
   45MOL    H5530063   5.917   4.904   2.089 -0.3083 -0.0015 -0.7869
   45MOL    H5630064   6.091   4.813   2.339 -2.1801 -5.8314  0.8241
   45MOL    H5730065   5.915   4.800   2.324  0.6598 -1.0130  0.2957
   45MOL    H5830066   5.887   5.019   2.325  0.0437  0.6088 -0.0164
   45MOL    H5930067   6.055   5.060   2.312  1.2400 -2.1428 -0.6049
   45MOL    H6030068   5.901   4.932   2.541 -0.0542 -0.3277 -1.7729
   45MOL    H6130069   6.083   4.939   2.547  1.7764  0.6191 -2.0473
   45MOL    H6230070   5.970   5.103   2.678 -0.1161  0.7316 -0.5767
   45MOL    H6330071   5.898   5.181   2.531  0.9784  1.5758  0.5921
   45MOL    H6430072   6.191   5.146   2.609  0.4075  1.6810  1.4806
   45MOL    H6530073   6.138   5.204   2.450 -0.5264  0.3076  0.5113
   45MOL    H6630074   6.098   5.348   2.708  0.1128 -3.0884 -0.5184
   45MOL    H6730075   6.038   5.412   2.555  0.0208  0.2997 -0.6322
   45MOL    H6830076   6.337   5.354   2.588  1.6000  0.9316 -1.7824
   45MOL    H6930077   6.259   5.506   2.618  0.8154  1.3813 -1.4106
   45MOL    N7030078   6.345   5.542   2.375 -0.4834 -0.1375  0.3345
   45MOL    C7130079   6.347   5.627   2.254  0.5652 -0.4325  0.9371
   45MOL    C7230080   6.444   5.743   2.261 -0.6476 -0.7991  0.4031
   45MOL    C7330081   6.418   5.851   2.152  0.3455 -0.1148 -0.5744
   45MOL    C7430082   6.501   5.978   2.180 -0.1226  0.3854 -0.2055
   45MOL    C7530083   6.408   6.087   2.240  0.9102  0.0254 -0.2749
   45MOL    C7630084   6.315   6.148   2.124 -0.2926 -0.1998  0.3417
   45MOL    C7730085   6.229   6.269   2.173 -0.1015 -0.1885 -0.2738
   45MOL    C7830086   6.150   6.243   2.300  0.1845 -0.1150  0.0560
   45MOL    C7930087   6.065   6.364   2.348 -0.0412 -0.5091  0.0837
   45MOL    C8030088   5.990   6.332   2.475 -0.3959 -0.6982 -0.2479
   45MOL    C8130089   5.868   6.427   2.495 -0.4720  0.8032  0.7129
   45MOL    O8230090   5.791   6.457   2.408  0.0996 -0.0319  0.9123
   45MOL    H8330091   6.398   5.582   2.452  1.3969 -2.7949  0.4713
   45MOL    H8430092   6.374   5.554   2.178 -0.4424  0.2925 -0.1197
   45MOL    H8530093   6.245   5.655   2.229  1.0724 -1.1816 -2.1377
   45MOL    H8630094   6.547   5.709   2.261  0.4376  2.3480  0.1274
   45MOL    H8730095   6.423   5.776   2.363 -0.5165 -0.9322  0.4726
   45MOL    H8830096   6.432   5.812   2.051 -0.6455 -0.4203 -0.5966
   45MOL    H8930097   6.313   5.876   2.160  0.5519  1.4008 -2.2190
   45MOL    H9030098   6.523   6.010   2.078 -0.0362 -0.1396 -0.3537
   45MOL    H9130099   6.591   5.960   2.238  0.7850 -0.1480 -1.7329
   45MOL    H9230100   6.471   6.162   2.287 -0.3110  0.6911  0.3075
   45MOL    H9330101   6.354   6.046   2.326  0.8626  1.2500  0.2804
   45MOL    H9430102   6.378   6.186   2.043  0.2144  0.3727  1.0040
   45MOL    H9530103   6.252   6.076   2.072  0.0268  0.6772 -1.3116
   45MOL    H9630104   6.163   6.303   2.093  0.0410  1.4377  0.2831
   45MOL    H9730105   6.297   6.351   2.193  0.8967 -1.2725  0.8776
   45MOL    H9830106   6.089   6.154   2.290  1.6693 -1.1680  0.1288
   45MOL    H9930107   6.228   6.220   2.373 -1.3306 -1.4514  1.2768
   45MOL   H10030108   6.006   6.399   2.264  0.4380 -1.3248 -0.5993
   45MOL   H10130109   6.123   6.451   2.379 -1.3290  0.3701  0.0302
   45MOL   H10230110   6.053   6.326   2.564  1.9097 -2.0294 -1.9115
   45MOL   H10330111   5.946   6.233   2.479 -0.7282 -0.4820  2.7431
   45MOL   N10430112   5.866   6.477   2.618  0.1599 -0.2513 -0.1172
   45MOL   C10530113   5.790   6.594   2.659 -0.1829  0.0243  0.3688
   45MOL   C10630114   5.813   6.633   2.813 -0.4474  0.9736 -0.4647
   45MOL   C10730115   5.764   6.771   2.859 -0.4979  0.3014  0.3751
   45MOL   C10830116   5.770   6.812   3.006  0.2555  0.3369  0.6032
   45MOL   C10930117   5.914   6.827   3.061  0.5280 -0.2886 -0.1421
   45MOL   C11030118   5.915   6.834   3.213 -0.0870  0.1966  0.5937
   45MOL   C11130119   6.056   6.824   3.277  0.0427 -0.2684  0.8090
   45MOL   C11230120   6.118   6.687   3.267 -0.3740  0.8058 -0.5515
   45MOL   C11330121   6.258   6.667   3.327 -0.3453 -0.3132  0.2813
   45MOL   C11430122   6.309   6.526   3.354 -0.1306  0.9876  0.0401
   45MOL   C11530123   6.261   6.475   3.489 -0.1347 -0.4835 -0.0084
   45MOL   O11630124   6.175   6.531   3.557  0.3395  0.3499  0.2019
   45MOL   H11730125   5.953   6.457   2.665 -0.5444 -0.7991  0.9916
   45MOL   H11830126   5.839   6.667   2.594  1.6489 -2.2693 -0.9220
   45MOL   H11930127   5.682   6.586   2.643 -0.1593  3.1710 -1.9726
   45MOL   H12030128   5.920   6.633   2.833 -0.2442  1.7075 -1.4577
   45MOL   H12130129   5.767   6.561   2.879 -1.2691  0.7978 -1.2201
   45MOL   H12230130   5.810   6.851   2.801  0.1043  0.7594  1.4701
   45MOL   H12330131   5.659   6.774   2.831 -1.0291 -0.3217  2.2231
   45MOL   H12430132   5.716   6.729   3.050  2.3968 -1.2810  0.2394
   45MOL   H12530133   5.711   6.901   3.028  2.8817  1.7251  2.3810
   45MOL   H12630134   5.955   6.917   3.016 -1.5056  0.9322  0.3630
   45MOL   H12730135   5.980   6.747   3.028  0.1119 -0.4185 -0.6892
   45MOL   H12830136   5.865   6.926   3.243 -1.7824 -0.6090  0.2625
   45MOL   H12930137   5.859   6.752   3.257 -1.2081  0.6960  0.0957
   45MOL   H13030138   6.071   6.856   3.380 -0.2734  0.1264  0.7317
   45MOL   H13130139   6.119   6.901   3.233 -2.6105 -0.2268 -3.1490
   45MOL   H13230140   6.047   6.620   3.317  1.3188 -0.2310  0.5057
   45MOL   H13330141   6.133   6.653   3.164 -0.5262 -1.0103 -0.0007
   45MOL   H13430142   6.266   6.727   3.418  2.1831  0.4086 -0.3712
   45MOL   H13530143   6.326   6.712   3.255 -0.7825 -1.8668 -1.1200
   45MOL   H13630144   6.417   6.527   3.348  0.0549 -0.7783  2.1547
   45MOL   H13730145   6.277   6.450   3.283  2.9673  0.4760 -0.8463
   45MOL   N13830146   6.316   6.357   3.525  0.2138 -0.3321  0.4459
   45MOL   C13930147   6.264   6.275   3.626 -0.2533  0.5796  0.1675
   45MOL   C14030148   6.379   6.183   3.683 -0.4029 -0.3174 -0.1770
   45MOL   C14130149   6.328   6.083   3.786 -0.0975  0.0397  0.1696
   45MOL   C14230150   6.241   5.965   3.741  0.3209 -0.2120  0.4970
   45MOL   C14330151   6.198   5.875   3.857  0.5947  0.4690 -0.3995
   45MOL   C14430152   6.113   5.761   3.820 -0.6583 -0.3389  0.2096
   45MOL   C14530153   6.083   5.668   3.933  0.2090 -0.3994 -0.1549
   45MOL   C14630154   5.978   5.565   3.874 -0.5550  1.1065 -0.3519
   45MOL   C14730155   5.930   5.468   3.989 -0.0438 -0.4299  0.2507
   45MOL   C14830156   5.796   5.397   3.947 -0.7941  0.1929 -0.2360
   45MOL   C14930157   5.777   5.256   4.011 -0.0680  0.0774 -0.0672
   45MOL   O15030158   5.742   5.243   4.132  0.3739  0.1790 -0.2988
   45MOL   H15130159   6.373   6.316   3.452 -1.1525 -0.6633 -0.4588
   45MOL   H15230160   6.233   6.333   3.713  0.6705 -0.3343  1.1218
   45MOL   H15330161   6.172   6.230   3.591 -1.9415  1.9643  2.6690
   45MOL   H15430162   6.447   6.244   3.743 -4.3046  1.5408  2.6122
   45MOL   H15530163   6.432   6.123   3.610 -0.6053 -0.8417  0.1040
   45MOL   H15630164   6.409   6.032   3.838 -0.6506 -0.7478  0.2634
   45MOL   H15730165   6.280   6.138   3.867 -0.5223  0.6502 -0.4956
   45MOL   H15830166   6.286   5.888   3.679 -1.9666 -0.5766 -0.7424
   45MOL   H15930167   6.156   6.005   3.687  0.8011  1.2263  0.7805
   45MOL   H16030168   6.148   5.938   3.930 -0.2580 -2.5942  1.7425
   45MOL   H16130169   6.288   5.838   3.906  1.8303  1.3864 -1.9207
   45MOL   H16230170   6.020   5.802   3.779 -1.3772  0.1333  2.2412
   45MOL   H16330171   6.152   5.714   3.730 -0.2531  0.5968 -0.1089
   45MOL   H16430172   6.052   5.719   4.025  1.6353  0.8840 -0.3737
   45MOL   H16530173   6.172   5.610   3.956  1.4302  2.1741  1.9762
   45MOL   H16630174   5.893   5.605   3.819 -2.2613  0.2522  1.5687
   45MOL   H16730175   6.020   5.507   3.792  0.2431  1.6247 -0.3142
   45MOL   H16830176   5.909   5.520   4.083 -1.4458 -0.6408  0.0563
   45MOL   H16930177   6.015   5.403   4.010  1.4523  1.6012  0.7192
   45MOL   H17030178   5.810   5.380   3.840  1.2389  1.3808 -0.1953
   45MOL   H17130179   5.713   5.464   3.969 -2.0705 -2.4907  3.6174
   45MOL   N17230180   5.796   5.153   3.930 -0.6017  0.0907  0.1427
   45MOL   C17330181   5.761   5.013   3.952 -0.2231  0.5463 -0.2142
   45MOL   C17430182   5.816   4.925   3.843 -0.0086  0.5449  0.0413
   45MOL   C17530183   5.772   4.777   3.861 -0.1037  0.1636  0.0868
   45MOL   C17630184   5.797   4.688   3.742 -0.7646 -0.0956  0.8278
   45MOL   C17730185   5.945   4.637   3.728  0.4356  0.0607  0.7688
   45MOL   C17830186   5.963   4.536   3.605 -0.0033 -0.7610  0.6366
   45MOL   C17930187   6.102   4.475   3.607  0.6362  0.0315 -0.4981
   45MOL   C18030188   6.216   4.560   3.548  0.0494 -0.0507  0.4208
   45MOL   C18130189   6.349   4.479   3.536  0.0166 -0.3399  0.5120
   45MOL   C18230190   6.474   4.566   3.540 -0.2953 -0.0597  0.3687
   45MOL   C18330191   6.475   4.642   3.666 -0.5240  0.0732  0.2442
   45MOL   O18430192   6.489   4.582   3.773  0.1721  0.4323 -0.8143
   45MOL   H18530193   5.844   5.183   3.846 -2.4933  0.0086 -0.9805
   45MOL   H18630194   5.800   4.986   4.050 -2.2126  0.7159  0.6428
   45MOL   H18730195   5.653   5.010   3.950 -0.2865  1.6747  0.8987
   45MOL   H18830196   5.925   4.931   3.838  0.1761  0.2473  2.6666
   45MOL   H18930197   5.789   4.969   3.748 -0.1723  0.3538  0.0010
   45MOL   H19030198   5.812   4.741   3.956 -0.9142 -0.9406  0.0225
   45MOL   H19130199   5.664   4.784   3.873 -0.3891 -1.2467 -1.4091
   45MOL   H19230200   5.759   4.724   3.646 -0.8989 -0.4822  0.7351
   45MOL   H19330201   5.735   4.598   3.736  0.4991 -0.8350 -1.7622
   45MOL   H19430202   5.963   4.583   3.820  0.6094 -1.9580 -0.4159
   45MOL   H19530203   6.004   4.726   3.706 -1.9618  1.3524 -0.6728
   45MOL   H19630204   5.883   4.463   3.611 -0.3651 -0.7739 -3.1671
   45MOL   H19730205   5.936   4.598   3.520  0.4536 -0.4553  0.7080
   45MOL   H19830206   6.101   4.385   3.546  0.1907  0.4781 -1.1571
   45MOL   H19930207   6.126   4.431   3.703  1.7331  0.2608 -0.6524
   45MOL   H20030208   6.186   4.597   3.450  1.7272 -0.3271 -0.2196
   45MOL   H20130209   6.233   4.642   3.617  0.5833  2.1740 -2.2303
   45MOL   H20230210   6.352   4.415   3.448  3.4834  1.9410 -1.1127
   45MOL   H20330211   6.347   4.398   3.610 -0.0537 -0.9945 -0.1933
   45MOL   H20430212   6.470   4.629   3.451  2.5884  0.8607  0.8396
   45MOL   H20530213   6.565   4.505   3.537 -0.5796 -0.4583 -3.7394
   45MOL   N20630214   6.461   4.774   3.654 -1.0757  0.4433  0.0606
   45MOL   C20730215   6.455   4.864   3.767  0.3490 -0.3987 -0.5583
   45MOL   C20830216   6.315   4.881   3.826  0.5881  0.3060  0.2023
   45MOL   C20930217   6.301   4.982   3.939  0.3792 -0.0838 -0.0159
   45MOL   C21030218   6.156   5.015   3.983  0.2797  0.6232  0.3505
   45MOL   C21130219   6.137   5.141   4.070  0.7566 -0.0730  0.5005
   45MOL   C21230220   6.225   5.150   4.201  0.2154 -0.4617  0.5162
   45MOL   C21330221   6.188   5.287   4.277 -0.1907 -0.5995  0.0636
   45MOL   C21430222   6.247   5.284   4.414 -0.7081 -0.7510  0.4431
   45MOL   C21530223   6.209   5.407   4.503 -0.7084 -0.5152 -0.4636
   45MOL   C21630224   6.313   5.430   4.619 -0.7215  1.3683  0.1270
   45MOL   C21730225   6.436   5.517   4.582 -0.9835 -0.1466 -0.4783
   45MOL   O21830226   6.410   5.635   4.561  0.3961  0.2806  0.7634
   45MOL   H21930227   6.463   4.808   3.559  2.5868 -3.6994 -1.5300
   45MOL   H22030228   6.482   4.964   3.734 -2.3054  0.9539  1.1059
   45MOL   H22130229   6.527   4.841   3.845 -1.0622 -2.4034  0.2179
   45MOL   H22230230   6.271   4.788   3.861 -1.5146  0.1323 -2.6509
   45MOL   H22330231   6.244   4.896   3.744 -1.3980  0.0262  1.8256
   45MOL   H22430232   6.359   4.956   4.028  2.1143  1.8782 -0.5332
   45MOL   H22530233   6.347   5.069   3.894 -0.5533  0.1409 -0.5558
   45MOL   H22630234   6.110   4.934   4.039  0.1327  0.9712  0.7365
   45MOL   H22730235   6.103   5.036   3.890 -0.5932  0.0254  0.7089
   45MOL   H22830236   6.031   5.164   4.082  0.8394 -0.2729  1.6931
   45MOL   H22930237   6.164   5.228   4.010 -1.0787  0.5562  0.5355
   45MOL   H23030238   6.206   5.065   4.266 -0.1923  1.1687  2.6160
   45MOL   H23130239   6.328   5.148   4.167 -0.2287  0.9474 -0.9931
   45MOL   H23230240   6.080   5.295   4.288 -0.4462 -0.2444 -2.4904
   45MOL   H23330241   6.216   5.372   4.214 -0.9606 -0.3391  0.0750
   45MOL   H23430242   6.224   5.202   4.481 -0.4352 -0.1268  1.3065
   45MOL   H23530243   6.351   5.296   4.384 -1.3727  0.5014 -1.4935
   45MOL   H23630244   6.111   5.387   4.545  0.6905 -2.5478  1.9886
   45MOL   H23730245   6.196   5.492   4.435  1.5101 -0.2866 -0.6312
   45MOL   H23830246   6.336   5.345   4.684 -1.4141  1.5947  0.6832
   45MOL   H23930247   6.266   5.486   4.700 -1.2710 -0.8823  1.3970
   45MOL   N24030248   6.564   5.466   4.586 -0.7829 -0.2983 -1.0552
   45MOL   C24130249   6.678   5.557   4.577 -0.3552  0.2287  0.0002
   45MOL   C24230250   6.808   5.485   4.576  0.2107 -0.0905 -0.5101
   45MOL   C24330251   6.907   5.589   4.544 -0.6167 -0.4784 -0.6026
   45MOL   C24430252   7.051   5.544   4.584  0.2461 -0.0133 -0.2695
   45MOL   C24530253   7.150   5.659   4.585  0.7280 -0.0843 -0.4207
   45MOL   C24630254   7.283   5.645   4.660  0.2666 -1.2544  1.3085
   45MOL   C24730255   7.275   5.664   4.815  0.5089  0.1106  0.2155
   45MOL   C24830256   7.167   5.593   4.892  0.1985  0.1457 -0.0023
   45MOL   C24930257   7.179   5.623   5.043 -0.2437 -0.3621 -0.0781
   45MOL   C25030258   7.056   5.587   5.129  0.6041 -0.6977 -0.2942
   45MOL   C25130259   7.033   5.438   5.135  0.2906 -0.1302 -0.1402
   45MOL   O25230260   7.128   5.363   5.132  0.0582  0.4277  0.2411
   45MOL   H25330261   6.587   5.369   4.604  0.0410  0.1265  0.1973
   45MOL   H25430262   6.670   5.628   4.660  2.7863 -0.5006  0.9611
   45MOL   H25530263   6.666   5.604   4.479  0.5798 -0.1617 -0.2999
   45MOL   H25630264   6.800   5.410   4.497  0.1684 -1.5251  0.8146
   45MOL   H25730265   6.813   5.429   4.670 -1.8338  1.7764  0.7427
   45MOL   H25830266   6.903   5.610   4.437 -0.6535 -0.3914 -0.5843
   45MOL   H25930267   6.890   5.680   4.602 -0.8737 -1.5423  1.0221
   45MOL   H26030268   7.093   5.474   4.512  0.0736  0.9690 -1.3210
   45MOL   H26130269   7.045   5.489   4.678 -0.5076 -1.4956 -1.1671
   45MOL   H26230270   7.095   5.741   4.632 -1.8999 -2.4971  0.8262
   45MOL   H26330271   7.167   5.705   4.487  0.3541 -0.4430 -0.6520
   45MOL   H26430272   7.330   5.553   4.624 -1.7531 -2.1363  0.8581
   45MOL   H26530273   7.353   5.715   4.614 -1.2616  0.0688  0.9800
   45MOL   H26630274   7.273   5.770   4.840 -1.4090  0.2571 -0.5418
   45MOL   H26730275   7.371   5.626   4.852 -0.4858 -2.0522  0.6630
   45MOL   H26830276   7.066   5.612   4.855  0.4072  0.1757 -0.5547
   45MOL   H26930277   7.184   5.485   4.886 -2.6157 -0.4351  1.5489
   45MOL   H27030278   7.189   5.731   5.048 -0.2167 -0.4484  2.1177
   45MOL   H27130279   7.269   5.580   5.088 -1.1349 -0.1632  1.9483
   45MOL   H27230280   6.967   5.623   5.077  0.0938 -1.8070 -0.1991
   45MOL   H27330281   7.079   5.635   5.224 -1.4705  0.3587 -0.2911
   45MOL   N27430282   6.903   5.393   5.143 -0.7008  0.0611  0.1305
   45MOL   C27530283   6.884   5.259   5.194  0.0280 -0.2759  0.1783
   45MOL   C27630284   6.740   5.222   5.233  0.4514  1.0669 -0.8796
   45MOL   C27730285   6.708   5.081   5.278 -0.1121 -0.1864  0.2677
   45MOL   C27830286   6.725   4.980   5.168 -0.4577 -0.1485 -0.3446
   45MOL   C27930287   6.667   4.843   5.208  0.0892 -0.1311  0.7860
   45MOL   C28030288   6.671   4.750   5.084  0.0469 -0.0538  0.3058
   45MOL   C28130289   6.820   4.727   5.041  0.1655 -0.1343 -0.3791
   45MOL   C28230290   6.846   4.624   4.931 -0.7678  0.3258  0.5093
   45MOL   C28330291   6.806   4.681   4.792 -0.2838  0.8113 -0.1302
   45MOL   C28430292   6.814   4.572   4.683 -0.1220  0.0891  0.5325
   45MOL   C28530293   6.959   4.556   4.632 -0.5885 -0.3966  0.4648
   45MOL   O28630294   7.034   4.656   4.613  1.3075  0.4829 -0.3684
   45MOL   H28730295   6.826   5.459   5.143 -0.8073 -0.0619 -0.3093
   45MOL   H28830296   6.950   5.245   5.279  1.3844 -2.6315 -1.2129
   45MOL   H28930297   6.932   5.192   5.123 -0.7486 -0.7383  0.0809
   45MOL   H29030298   6.677   5.250   5.148  0.4218  2.6075 -0.3737
   45MOL   H29130299   6.706   5.292   5.309  0.8797  0.9290 -0.5607
   45MOL   H29230300   6.780   5.058   5.357 -1.0049 -1.7790  0.6414
   45MOL   H29330301   6.610   5.073   5.325  0.5470  0.6130  1.8228
   45MOL   H29430302   6.832   4.979   5.148 -0.4786 -1.2647 -0.3987
   45MOL   H29530303   6.662   5.015   5.086 -0.3832 -0.3885 -0.5039
   45MOL   H29630304   6.573   4.855   5.262 -0.2459  1.7483 -0.1791
   45MOL   H29730305   6.737   4.791   5.274  0.4314  0.9152  1.2481
   45MOL   H29830306   6.620   4.660   5.119 -0.0832  0.6397  1.9339
   45MOL   H29930307   6.614   4.783   4.997 -1.3701 -0.9944  0.8598
   45MOL   H30030308   6.880   4.689   5.123  0.8466  0.0798 -0.7699
   45MOL   H30130309   6.871   4.819   5.012  1.4425 -0.5273  0.5905
   45MOL   H30230310   6.953   4.602   4.927 -0.7263  0.5240  0.4724
   45MOL   H30330311   6.808   4.526   4.960 -0.6214  0.4666  1.1820
   45MOL   H30430312   6.855   4.774   4.763  0.9909  0.4265  0.7344
   45MOL   H30530313   6.699   4.701   4.787  0.0037  2.0649 -1.6665
   45MOL   H30630314   6.745   4.587   4.600 -0.6511  0.0315  0.9537
   45MOL   H30730315   6.787   4.482   4.739  1.3927  0.2448  1.5368
   45MOL   N30830316   7.004   4.434   4.601  0.3728 -0.1302 -0.0701
   45MOL   C30930317   7.137   4.417   4.538 -0.3379  0.1846  0.2424
   45MOL   C31030318   7.158   4.274   4.497  0.4792  0.4281  0.9022
   45MOL   C31130319   7.283   4.236   4.426 -0.1450  0.0876  0.7030
   45MOL   C31230320   7.318   4.088   4.433  0.3352 -0.4814  0.3125
   45MOL   C31330321   7.443   4.055   4.347 -1.3432 -0.3328 -0.7394
   45MOL   C31430322   7.494   3.913   4.379 -0.0440  0.1413  0.0021
   45MOL   C31530323   7.588   3.840   4.278  0.1462 -0.3604 -0.3512
   45MOL   C31630324   7.644   3.710   4.335  0.3336  0.5359 -0.0411
   45MOL   C31730325   0.009   3.639   4.234  0.1885  0.8858  0.4746
   45MOL   C31830326   0.100   3.516   4.274  0.5787  0.5121  0.2106
   45MOL   C31930327   0.035   3.424   4.380 -0.3758 -0.5352 -0.0810
   45MOL   O32030328   7.662   3.347   4.347  0.1442 -0.2794  0.2607
   45MOL   H32130329   6.936   4.359   4.604 -0.6846  0.7345 -1.3755
   45MOL   H32230330   7.218   4.439   4.607  0.5594 -2.9260  0.2449
   45MOL   H32330331   7.150   4.482   4.452  2.0336  1.2755  1.3833
   45MOL   H32430332   7.078   4.235   4.434  0.9870  2.3668 -0.9918
   45MOL   H32530333   7.150   4.222   4.593  0.1680 -2.1528 -0.4750
   45MOL   H32630334   7.277   4.271   4.323 -2.1312  0.5173  0.9533
   45MOL   H32730335   7.377   4.281   4.458 -0.0728 -0.3336  1.0865
   45MOL   H32830336   7.241   4.020   4.398  0.0994  0.4149 -0.9288
   45MOL   H32930337   7.335   4.054   4.535  2.4993 -1.1527 -0.2437
   45MOL   H33030338   7.522   4.128   4.366 -2.4231  0.5450  0.4321
   45MOL   H33130339   7.423   4.054   4.240 -0.6738  0.9420 -0.8845
   45MOL   H33230340   7.542   3.915   4.477 -0.1340 -0.5626  0.0652
   45MOL   H33330341   7.402   3.856   4.396 -0.2869  1.0012  1.7650
   45MOL   H33430342   7.675   3.905   4.270  0.1238 -0.3247 -0.3008
   45MOL   H33530343   7.544   3.827   4.180 -1.9861 -1.2410  0.7044
   45MOL   H33630344   7.696   3.730   4.429  1.7307  1.0146 -0.8995
   45MOL   H33730345   7.559   3.649   4.365  0.5850  0.6656  0.9546
   45MOL   H33830346   0.068   3.703   4.168 -0.0634  1.0611  0.4203
   45MOL   H33930347   7.644   3.589   4.182  0.6954 -0.2072  0.7289
   45MOL   H34030348   0.191   3.557   4.317  1.3608  1.1318 -1.9609
   45MOL   H34130349   0.124   3.460   4.184 -1.3665  0.1276 -0.0967
   45MOL   N34230350   0.083   3.437   4.502 -0.2786 -0.5219  0.0464
   45MOL   C34330351   0.063   3.358   4.619 -0.0155  0.1919 -0.0798
   45MOL   C34430352   0.197   3.315   4.686 -0.0204  0.2440  0.4046
   45MOL   C34530353   0.187   3.223   4.814  0.5260  0.4280  0.0476
   45MOL   C34630354   0.317   3.175   4.878  0.7783 -0.1361  0.0267
   45MOL   C34730355   0.308   3.117   5.017  0.2371 -0.7945  0.0868
   45MOL   C34830356   0.440   3.035   5.041  0.1276 -0.1548 -0.2323
   45MOL   C34930357   0.458   2.996   5.188  0.2362 -0.1402 -0.4579
   45MOL   C35030358   0.584   2.897   5.211  0.6507 -0.0578  0.0464
   45MOL   C35130359   0.594   2.864   5.364 -0.1069  0.1784 -0.8620
   45MOL   C35230360   0.668   2.737   5.395  0.3377 -0.2670  0.4624
   45MOL   C35330361   0.799   2.721   5.316  0.5944  0.4587 -0.6189
   45MOL   O35430362   0.887   2.803   5.327 -0.1943 -0.4418 -0.1477
   45MOL   H35530363   0.155   3.505   4.521 -1.9687  0.9780  1.2665
   45MOL   H35630364   0.004   3.417   4.688  0.9867  2.2146 -0.9012
   45MOL   H35730365   0.016   3.263   4.592 -1.1601  0.0009  2.5029
   45MOL   H35830366   0.266   3.395   4.713  1.3198 -0.7222 -0.1274
   45MOL   H35930367   0.249   3.257   4.610 -0.2194  0.3484  0.1876
   45MOL   H36030368   0.130   3.282   4.886  0.6769 -0.3950  0.8338
   45MOL   H36130369   0.126   3.137   4.786  0.1543  0.1280  1.7209
   45MOL   H36230370   0.380   3.264   4.888 -1.4161  1.4073  0.4854
   45MOL   H36330371   0.365   3.106   4.809 -0.4979 -1.6382  0.6071
   45MOL   H36430372   0.222   3.051   5.024 -0.6029  0.4364  1.8883
   45MOL   H36530373   0.290   3.196   5.090  1.4419  1.7970 -2.2982
   45MOL   H36630374   0.433   2.949   4.975 -3.6439  1.3883 -1.9676
   45MOL   H36730375   0.525   3.093   5.006  1.5181 -1.2556  1.2531
   45MOL   H36830376   0.364   2.945   5.209 -0.3424 -0.6754 -4.1162
   45MOL   H36930377   0.455   3.082   5.256 -0.3793 -0.6230  0.1291
   45MOL   H37030378   0.585   2.810   5.146 -2.5896  0.2536 -0.5112
   45MOL   H37130379   0.676   2.953   5.197 -0.4757  2.2889  1.6927
   45MOL   H37230380   0.495   2.840   5.403  1.2718 -2.9921  0.8761
   45MOL   H37330381   0.643   2.943   5.421  0.2740 -0.4749 -0.2696
   45MOL   H37430382   0.611   2.646   5.377  0.3654 -0.3055  0.5671
   45MOL   H37530383   0.705   2.732   5.497 -0.2573 -1.2644  0.6330
   45MOL   N37630384   0.814   2.615   5.240  0.2351 -0.2438 -0.3136
   45MOL   C37730385   0.939   2.594   5.160  0.0003 -0.3089  0.2166
   45MOL   C37830386   1.001   2.454   5.176 -0.6713 -1.0518 -0.2869
   45MOL   C37930387   1.127   2.438   5.097 -0.5337  0.6750  0.0014
   45MOL   C38030388   1.213   2.312   5.126 -0.2220  0.7172  0.3307
   45MOL   C38130389   1.327   2.286   5.027 -0.2061  0.0019 -0.3314
   45MOL   C38230390   1.406   2.150   5.064 -1.4540 -0.0333 -0.0184
   45MOL   C38330391   1.512   2.102   4.960 -0.0398 -0.0529 -0.6918
   45MOL   C38430392   1.560   1.956   4.994  0.1171  0.1400 -0.2841
   45MOL   C38530393   1.456   1.844   4.965  0.0150 -0.4978 -0.2507
   45MOL   C38630394   1.510   1.706   4.995 -0.1877  0.4316  0.4828
   45MOL   C38730395   1.575   1.628   4.884  0.5005  0.6056 -0.0201
   45MOL   O38830396   1.564   1.670   4.770  0.5228 -0.2809 -0.4000
   45MOL   H38930397   0.730   2.572   5.205  0.5452 -0.2637 -1.0433
   45MOL   H39030398   0.903   2.609   5.058  0.0948  1.3435  0.4152
   45MOL   H39130399   1.018   2.669   5.166  2.9373 -3.1411 -1.3363
   45MOL   H39230400   0.934   2.372   5.148 -1.6413 -0.6598  0.8533
   45MOL   H39330401   1.020   2.446   5.283 -3.2287 -2.5128  0.0967
   45MOL   H39430402   1.104   2.432   4.990  0.5076 -0.1679 -0.1840
   45MOL   H39530403   1.184   2.531   5.099  1.1206 -0.3419  1.1640
   45MOL   H39630404   1.139   2.233   5.133  0.4067 -0.1137 -1.9018
   45MOL   H39730405   1.267   2.311   5.222  2.5207 -1.1736 -1.1545
   45MOL   H39830406   1.396   2.370   5.018 -0.6345  0.4802  0.7856
   45MOL   H39930407   1.284   2.279   4.928 -0.8552 -1.2506  0.0278
   45MOL   H40030408   1.461   2.166   5.157 -0.0868 -0.3945 -0.7516
   45MOL   H40130409   1.339   2.069   5.092 -1.8112 -0.2175 -1.3958
   45MOL   H40230410   1.607   2.155   4.954 -0.1427  0.2473  0.2119
   45MOL   H40330411   1.465   2.118   4.864  0.8759 -0.9920 -1.3075
   45MOL   H40430412   1.646   1.933   4.932  0.8616  0.1837  0.7197
   45MOL   H40530413   1.591   1.946   5.098 -1.0697  0.3575  0.1022
   45MOL   H40630414   1.422   1.856   4.862 -1.2370  0.5860  0.2851
   45MOL   H40730415   1.358   1.858   5.009  1.7168  0.1124  3.4745
   45MOL   H40830416   1.436   1.634   5.030  0.3399 -1.0196 -1.3095
   45MOL   H40930417   1.587   1.718   5.070 -0.4030  1.4178  0.5525
   45MOL   N41030418   1.634   1.506   4.911 -0.1296  0.6246  0.0459
   45MOL   C41130419   1.663   1.403   4.809  1.1984 -0.4499 -0.1826
   45MOL   C41230420   1.741   1.284   4.865 -0.5207 -0.5736  0.2949
   45MOL   C41330421   1.868   1.314   4.952 -0.0728 -0.1904  0.1493
   45MOL   C41430422   1.958   1.190   4.979  0.2627  0.1883 -0.1015
   45MOL   C41530423   2.088   1.233   5.053 -0.4459  0.4523  0.2371
   45MOL   C41630424   2.069   1.303   5.193  0.7438  0.0787  0.6371
   45MOL   C41730425   2.201   1.321   5.269 -0.1118  0.1072 -0.3173
   45MOL   C41830426   2.174   1.313   5.419  0.0948  0.4622 -0.0369
   45MOL   C41930427   2.301   1.345   5.491 -0.0675 -0.1683  0.1055
   45MOL   C42030428   2.282   1.340   5.645  0.0371  0.2936  0.0759
   45MOL   C42130429   2.408   1.365   5.726 -0.2751  0.5832 -1.1296
   45MOL   O42230430   2.456   1.282   5.808  0.0682 -0.0898  0.2052
   45MOL   H42330431   1.646   1.475   5.006  0.2882  0.3860 -0.0838
   45MOL   H42430432   1.571   1.371   4.759  1.4065 -0.3358 -0.6409
   45MOL   H42530433   1.718   1.458   4.733  0.7733  1.6291  0.9706
   45MOL   H42630434   1.775   1.228   4.778  1.6699  0.4832  0.4472
   45MOL   H42730435   1.679   1.231   4.937  1.4480 -1.3763  1.4373
   45MOL   H42830436   1.919   1.394   4.898 -0.7882  0.9056  1.0748
   45MOL   H42930437   1.827   1.347   5.047 -0.4250 -0.4517  0.0862
   45MOL   H43030438   1.993   1.138   4.890  0.0416  0.6393 -0.4527
   45MOL   H43130439   1.903   1.122   5.044 -1.2220  1.8806  0.4276
   45MOL   H43230440   2.145   1.307   4.997 -0.0359  1.6864  2.2176
   45MOL   H43330441   2.150   1.145   5.068 -1.2151 -0.1932 -0.3605
   45MOL   H43430442   2.010   1.394   5.188 -1.7911 -1.5659 -0.4904
   45MOL   H43530443   2.009   1.227   5.242  1.6779 -1.2948 -0.3020
   45MOL   H43630444   2.246   1.419   5.246 -2.9440  1.4778 -0.2029
   45MOL   H43730445   2.273   1.242   5.247 -1.5786 -1.4840  0.5429
   45MOL   H43830446   2.084   1.367   5.448 -0.9320 -0.6723 -0.9923
   45MOL   H43930447   2.135   1.212   5.434 -1.0215  1.0956  1.4993
   45MOL   H44030448   2.343   1.439   5.456  0.6441 -0.2213  0.8139
   45MOL   H44130449   2.376   1.269   5.472  1.2346  1.1584 -0.1361
   45MOL   H44230450   2.236   1.246   5.674  1.5079 -0.1447  1.0841
   45MOL   H44330451   2.207   1.417   5.661  0.9365  1.5633 -1.6879
   45MOL   N44430452   2.462   1.487   5.708  0.3998  0.2570  0.7267
   45MOL   C44530453   2.578   1.533   5.778 -0.2434  0.1804 -0.4281
   45MOL   C44630454   2.545   1.645   5.878 -0.2791 -0.1105  0.0823
   45MOL   C44730455   2.454   1.754   5.816  0.5223 -0.9056  0.4635
   45MOL   C44830456   2.452   1.884   5.891 -0.1403 -0.7788 -0.1302
   45MOL   C44930457   2.394   2.002   5.815  0.3503 -0.9111 -0.3365
   45MOL   C45030458   2.414   2.128   5.902 -0.3515  0.1082 -0.3560
   45MOL   C45130459   2.324   2.143   6.030 -0.1259  0.5895 -0.0896
   45MOL   C45230460   2.174   2.153   5.995  0.4690 -0.0572  0.0967
   45MOL   C45330461   2.139   2.293   5.940  0.3203 -0.0702 -0.1416
   45MOL   C45430462   1.986   2.305   5.912  1.1567  0.0745 -0.3469
   45MOL   C45530463   1.950   2.246   5.773  0.0192 -0.6312 -0.4914
   45MOL   O45630464   2.033   2.219   5.691  0.1192  0.1381 -0.6860
   45MOL   H45730465   2.419   1.560   5.652 -0.4532  0.3100  1.4287
   45MOL   H45830466   2.637   1.455   5.827  1.4574  2.4318  1.2021
   45MOL   H45930467   2.633   1.580   5.698  1.1247 -1.0064 -0.2041
   45MOL   H46030468   2.638   1.688   5.917 -0.6753 -0.4969  1.4749
   45MOL   H46130469   2.482   1.608   5.960  1.7693  0.3449  1.9122
   45MOL   H46230470   2.493   1.758   5.715 -1.3156 -1.5019 -0.2957
   45MOL   H46330471   2.354   1.717   5.793  1.0152 -0.2610 -2.8806
   45MOL   H46430472   2.551   1.921   5.918 -0.7263 -0.4401  1.6548
   45MOL   H46530473   2.407   1.856   5.986 -0.0717 -3.1033 -0.7527
   45MOL   H46630474   2.295   1.986   5.772  1.3632 -0.8172 -2.8133
   45MOL   H46730475   2.455   2.019   5.726  0.2605  1.2810 -0.0074
   45MOL   H46830476   2.520   2.141   5.923 -0.6050  0.2855  0.8710
   45MOL   H46930477   2.403   2.215   5.838  3.0683  0.6912 -0.2247
   45MOL   H47030478   2.351   2.239   6.075  1.8580  0.2650 -0.5535
   45MOL   H47130479   2.337   2.061   6.100 -2.0568  2.2786  2.3258
   45MOL   H47230480   2.139   2.081   5.922  1.3961 -2.3323  1.8109
   45MOL   H47330481   2.121   2.124   6.086  0.6170 -4.4248 -1.1281
   45MOL   H47430482   2.200   2.314   5.852 -0.0672 -1.8037 -0.8604
   45MOL   H47530483   2.145   2.368   6.018 -0.8343 -0.5074  0.3840
   45MOL   H47630484   1.953   2.409   5.907 -1.3411 -0.6623  0.4801
   45MOL   H47730485   1.926   2.257   5.988 -0.7227  0.2506 -1.6792
   45MOL   N47830486   1.820   2.218   5.749  0.2580 -0.5874 -0.1376
   45MOL   C47930487   1.772   2.138   5.638 -0.6826  0.4186  0.4737
   45MOL   C48030488   1.621   2.146   5.639 -0.6226 -0.4274 -0.6989
   45MOL   C48130489   1.550   2.067   5.531  0.2162  0.4040  0.2090
   45MOL   C48230490   1.400   2.062   5.545  0.0187  0.1786 -0.1944
   45MOL   C48330491   1.336   1.949   5.472  0.6447 -0.2770 -0.3162
   45MOL   C48430492   1.188   1.971   5.463 -0.1984  0.0868 -0.3756
   45MOL   C48530493   1.118   1.847   5.401  0.0052 -0.4088 -0.5927
   45MOL   C48630494   1.152   1.823   5.249 -0.1356  0.8829 -0.5051
   45MOL   C48730495   1.042   1.729   5.181  0.0047  0.7814 -0.4766
   45MOL   C48830496   1.056   1.732   5.029 -0.5943  0.0443  0.1915
   45MOL   C48930497   0.925   1.711   4.951  0.1206  0.0897 -0.2931
   45MOL   O49030498   0.820   1.698   5.004  0.2186 -0.3000  0.1779
   45MOL   H49130499   1.760   2.248   5.824 -1.0320 -0.6173 -1.1368
   45MOL   H49230500   1.815   2.177   5.546 -1.2254 -0.6906 -0.2718
   45MOL   H49330501   1.813   2.036   5.640 -0.8632  0.3310 -0.1632
   45MOL   H49430502   1.582   2.247   5.651  0.7144  0.1136 -0.7959
   45MOL   H49530503   1.587   2.103   5.733  1.2248  1.3084  0.8082
   45MOL   H49630504   1.565   2.117   5.435 -0.6350  1.1941  0.4756
   45MOL   H49730505   1.586   1.965   5.528 -0.9542 -0.0464  1.0504
   45MOL   H49830506   1.368   2.164   5.523  1.2925  0.7172  0.3871
   45MOL   H49930507   1.379   2.049   5.652  0.7787 -0.8891 -0.1606
   45MOL   H50030508   1.375   1.858   5.519  1.9906  0.4740  0.0450
   45MOL   H50130509   1.378   1.943   5.372  1.5999  0.9342 -0.0035
   45MOL   H50230510   1.135   1.995   5.556  1.6168  1.0938  0.4261
   45MOL   H50330511   1.168   2.064   5.409 -1.6164  0.8136  1.3290
   45MOL   H50430512   1.012   1.870   5.406  0.2343  1.4312 -3.1519
   45MOL   H50530513   1.139   1.755   5.455  1.6841  0.4162  0.1955
   45MOL   H50630514   1.169   1.919   5.199  3.0284  0.5424 -0.2211
   45MOL   H50730515   1.252   1.780   5.247 -1.5342 -2.6139  0.7239
   45MOL   H50830516   0.946   1.773   5.208  0.1334  1.0000 -0.3766
   45MOL   H50930517   1.041   1.631   5.229 -2.1056  1.3214  0.6244
   45MOL   H51030518   1.125   1.651   5.004  0.8909  1.7818 -1.4629
   45MOL   H51130519   1.113   1.814   4.985  1.3068 -2.3851 -2.0641
   45MOL   N51230520   0.931   1.708   4.816 -0.4428  0.0893 -0.2440
   45MOL   C51330521   0.823   1.676   4.729 -0.0871 -0.1147  0.5696
   45MOL   C51430522   0.874   1.634   4.593 -0.6961 -0.0975  0.7376
   45MOL   C51530523   0.774   1.602   4.478 -0.2444 -0.1349 -0.2664
   45MOL   C51630524   0.817   1.613   4.331  0.2672 -0.3057 -0.1774
   45MOL   C51730525   0.725   1.550   4.225  0.0683  0.7214 -0.4888
   45MOL   C51830526   0.738   1.399   4.204 -0.6763  0.1812  0.3581
   45MOL   C51930527   0.875   1.354   4.149  0.5724  0.5650  0.6128
   45MOL   C52030528   0.877   1.207   4.091 -0.1912 -0.0990  0.6834
   45MOL   C52130529   0.799   1.175   3.962  0.0812 -0.9024 -0.2440
   45MOL   C52230530   0.811   1.022   3.942  0.4751 -0.1236 -0.1232
   45MOL   C52330531   0.742   0.984   3.810 -0.8866 -0.0049  0.7235
   45MOL   O52430532   0.773   1.039   3.704 -0.3197  0.3406 -0.2926
   45MOL   H52530533   1.013   1.752   4.776  1.1299 -0.6556  2.0600
   45MOL   H52630534   0.767   1.588   4.761 -0.2559  0.1754  1.0789
   45MOL   H52730535   0.749   1.756   4.720 -0.5795 -0.8343 -2.2943
   45MOL   H52830536   0.941   1.549   4.605 -2.8624 -1.7272  1.5521
   45MOL   H52930537   0.942   1.711   4.556 -1.4478 -0.8466 -2.4071
   45MOL   H53030538   0.736   1.500   4.484 -1.0965  0.3456  3.2411
   45MOL   H53130539   0.687   1.667   4.485 -0.2164 -0.0247 -0.8756
   45MOL   H53230540   0.917   1.570   4.331  0.0855 -0.8588  3.4425
   45MOL   H53330541   0.844   1.716   4.307  0.3256 -0.5819 -1.3049
   45MOL   H53430542   0.756   1.591   4.129 -0.2522 -0.8056 -1.2564
   45MOL   H53530543   0.624   1.583   4.248 -0.5979 -0.3041 -1.8543
   45MOL   H53630544   0.708   1.358   4.300 -3.7087  1.2565 -0.0806
   45MOL   H53730545   0.663   1.376   4.129 -0.6043 -1.1336  0.6911
   45MOL   H53830546   0.954   1.382   4.219 -1.2448  0.8624  2.6078
   45MOL   H53930547   0.906   1.413   4.063  0.2831  2.1676  1.5924
   45MOL   H54030548   0.977   1.175   4.061 -1.2952 -1.0926 -2.0294
   45MOL   H54130549   0.846   1.146   4.176 -1.1365 -0.4140  0.1177
   45MOL   H54230550   0.843   1.240   3.886 -0.9611 -1.0407 -0.9696
   45MOL   H54330551   0.698   1.215   3.972  1.2093  1.9089  0.4949
   45MOL   H54430552   0.775   0.960   4.024  0.8455  1.4146  1.2149
   45MOL   H54530553   0.917   0.997   3.936  0.2839 -1.4116  1.5606
   45MOL   N54630554   0.656   0.886   3.818 -0.5277 -0.5950  0.4701
   45MOL   C54730555   0.587   0.819   3.706 -0.3929  0.5592 -0.5354
   45MOL   C54830556   0.465   0.894   3.674  0.2299 -0.1750  0.3206
   45MOL   C54930557   0.361   0.817   3.595 -0.0164  0.1692 -0.0605
   45MOL   C55030558   0.245   0.908   3.539 -0.0620  0.0805 -0.4439
   45MOL   C55130559   0.139   0.939   3.650 -0.3372 -0.0981  0.2776
   45MOL   C55230560   0.022   1.017   3.598  0.6923 -0.2494 -0.3767
   45MOL   C55330561   7.631   1.038   3.706 -0.8294 -0.4571 -0.0511
   45MOL   C55430562   7.508   1.106   3.647  0.0505  0.1155 -0.3289
   45MOL   C55530563   7.390   1.108   3.748  0.3186  0.5253  0.4568
   45MOL   C55630564   7.263   1.165   3.692  0.4779  0.2209 -0.3558
   45MOL   C55730565   7.283   1.315   3.662 -0.0659 -0.0589 -0.7519
   45MOL   O55830566   7.322   1.352   3.557 -0.8226  0.3819 -0.4655
   45MOL   H55930567   0.635   0.846   3.908  0.6743 -1.1157  0.5164
   45MOL   H56030568   0.652   0.788   3.625 -0.1362 -0.9015  0.2114
   45MOL   H56130569   0.549   0.728   3.752  0.4090 -0.6279 -2.1960
   45MOL   H56230570   0.500   0.967   3.601  1.5834  0.8570  1.9495
   45MOL   H56330571   0.416   0.940   3.760  0.2171 -1.3246  0.9353
   45MOL   H56430572   0.405   0.779   3.503 -1.0695  0.7970 -0.8439
   45MOL   H56530573   0.331   0.723   3.641  2.3657  0.7026  2.7442
   45MOL   H56630574   0.208   0.853   3.452 -0.6467 -0.4394  0.1260
   45MOL   H56730575   0.277   1.005   3.501 -1.1824  0.0111 -1.5783
   45MOL   H56830576   0.194   0.996   3.725  2.2896 -2.9508  0.6176
   45MOL   H56930577   0.099   0.855   3.706 -1.8326  0.3062 -0.1591
   45MOL   H57030578   0.055   1.104   3.542  0.0026  0.2718  0.0135
   45MOL   H57130579   7.682   0.964   3.520 -1.8943  0.3933  0.9577
   45MOL   H57230580   7.669   1.111   3.778  1.0238 -0.8314 -0.6266
   45MOL   H57330581   7.597   0.954   3.767  0.1120  0.4011  1.7230
   45MOL   H57430582   7.528   1.205   3.606  1.8874 -0.8671 -1.9269
   45MOL   H57530583   7.471   1.066   3.553  0.5485  0.9138 -0.8680
   45MOL   H57630584   7.418   1.163   3.838 -1.3535  2.7810 -0.3261
   45MOL   H57730585   7.362   1.008   3.782  1.2411  0.0386 -0.2190
   45MOL   H57830586   7.182   1.146   3.764  1.1429  1.1271  0.6443
   45MOL   H57930587   7.238   1.110   3.602 -0.1512 -0.8982  0.4869
   45MOL   N58030588   7.248   1.399   3.757 -0.1929  0.1883 -0.0038
   45MOL   C58130589   7.238   1.545   3.756 -0.0922  0.1427  0.1348
   45MOL   C58230590   7.099   1.590   3.713 -0.0958 -0.2507  0.0775
   45MOL   C58330591   7.087   1.743   3.707  0.4537  0.0118 -0.3109
   45MOL   C58430592   6.948   1.798   3.729 -0.5461  0.0204 -0.3024
   45MOL   C58530593   6.926   1.950   3.704  0.1527  0.2427 -0.3811
   45MOL   C58630594   7.028   2.038   3.797 -0.1607 -0.0529 -0.2526
   45MOL   C58730595   7.005   2.189   3.796 -0.0757 -0.0509  0.3233
   45MOL   C58830596   6.871   2.237   3.850  0.0391 -0.2815 -0.5390
   45MOL   C58930597   6.848   2.385   3.829 -0.0719  0.1403  0.0068
   45MOL   C59030598   6.769   2.430   3.702 -0.0780 -0.1197  0.0214
   45MOL   C59130599   6.793   2.362   3.568 -0.1200  0.0759  0.0494
   45MOL   O59230600   6.877   2.408   3.489 -0.1913 -0.1789  0.0260
   45MOL   H59330601   7.213   1.358   3.842  0.9769  1.3813  1.0733
   45MOL   H59430602   7.253   1.581   3.858  1.1194 -0.2444  0.1092
   45MOL   H59530603   7.324   1.583   3.701 -1.0778  2.6575  0.2679
   45MOL   H59630604   7.024   1.558   3.785 -0.5208  0.0481 -0.2274
   45MOL   H59730605   7.071   1.541   3.619  0.1129  1.3851 -0.8621
   45MOL   H59830606   7.163   1.790   3.769  1.1158 -1.2671 -0.1536
   45MOL   H59930607   7.117   1.774   3.607  0.9956 -1.3684 -0.5855
   45MOL   H60030608   6.917   1.775   3.830  1.3380  1.8802  0.7488
   45MOL   H60130609   6.882   1.747   3.659  1.4637  1.0225 -3.0660
   45MOL   H60230610   6.825   1.990   3.707 -0.1570 -0.5161 -0.6220
   45MOL   H60330611   6.936   1.960   3.596 -1.1314  2.4663 -0.3119
   45MOL   H60430612   7.027   2.007   3.901 -2.3325 -0.1980 -0.2955
   45MOL   H60530613   7.129   2.015   3.763  0.0934  1.2450 -0.3873
   45MOL   H60630614   7.021   2.227   3.694 -1.4616 -0.8015 -0.1846
   45MOL   H60730615   7.085   2.231   3.858  0.1323  0.6154 -0.3865
   45MOL   H60830616   6.792   2.183   3.798 -0.0629 -1.3995  0.7563
   45MOL   H60930617   6.861   2.217   3.956  0.1347 -1.0437 -0.6699
   45MOL   H61030618   6.949   2.426   3.833 -0.4812  1.1456  0.0387
   45MOL   H61130619   6.794   2.407   3.921 -1.2765  0.1444 -0.7001
   45MOL   H61230620   6.801   2.533   3.688  0.2680 -0.4450 -1.7661
   45MOL   H61330621   6.662   2.439   3.720 -0.2065  0.2469 -0.8769
   45MOL   N61430622   6.719   2.256   3.543 -0.0862  0.3815  0.3688
   45MOL   C61530623   6.703   2.185   3.412  0.2441  0.2165 -0.3739
   45MOL   C61630624   6.762   2.043   3.408 -0.5029  0.4510 -0.1518
   45MOL   C61730625   6.725   1.971   3.283 -0.4420 -0.5727 -0.1387
   45MOL   C61830626   6.755   1.823   3.287 -0.4076 -0.1044 -0.3129
   45MOL   C61930627   6.731   1.745   3.159  0.7686 -0.4416 -0.4903
   45MOL   C62030628   6.799   1.604   3.156 -0.0764  0.3337 -0.5004
   45MOL   C62130629   6.764   1.527   3.029 -0.1200  0.2906 -0.1199
   45MOL   C62230630   6.828   1.389   3.032  0.3762 -1.2809 -0.7608
   45MOL   C62330631   6.811   1.313   2.901 -0.1569  0.6468 -0.2771
   45MOL   C62430632   6.872   1.174   2.901  0.7226 -0.4483 -0.6089
   45MOL   C62530633   6.833   1.097   2.782 -0.0750  0.4496  0.3519
   45MOL   O62630634   6.876   1.124   2.666  0.4080 -0.2544 -0.3142
   45MOL   H62730635   6.648   2.233   3.611  1.0883  0.2590  1.5717
   45MOL   H62830636   6.749   2.251   3.339 -0.7788  0.6960 -0.6022
   45MOL   H62930637   6.596   2.175   3.394  0.4871 -3.0353 -0.2563
   45MOL   H63030638   6.729   2.000   3.502 -2.8076  0.1049 -1.0714
   45MOL   H63130639   6.870   2.045   3.404 -0.4706 -0.7375 -0.1595
   45MOL   H63230640   6.619   1.989   3.267 -0.4410 -1.3281 -0.9925
   45MOL   H63330641   6.785   2.009   3.200 -1.5125  0.7694 -0.3123
   45MOL   H63430642   6.697   1.765   3.358  0.5859 -2.2153 -1.1722
   45MOL   H63530643   6.861   1.801   3.300  0.1084 -0.2183 -4.1033
   45MOL   H63630644   6.761   1.813   3.079 -1.3978  0.0117 -0.9603
   45MOL   H63730645   6.623   1.730   3.149  0.7736 -0.9272  0.1308
   45MOL   H63830646   6.905   1.613   3.175 -0.1927  0.0569  0.2936
   45MOL   H63930647   6.753   1.549   3.237  1.3702  0.9737  0.7639
   45MOL   H64030648   6.788   1.574   2.933 -1.2362  0.3433 -0.3807
   45MOL   H64130649   6.657   1.513   3.018 -0.1496  0.9016 -0.6213
   45MOL   H64230650   6.933   1.414   3.042 -0.0548 -0.3266  1.8616
   45MOL   H64330651   6.799   1.335   3.123  2.7608 -0.0391  0.7928
   45MOL   H64430652   6.868   1.367   2.825 -0.7689  1.5208 -0.1261
   45MOL   H64530653   6.708   1.303   2.867  0.4492  1.6388 -2.4855
   45MOL   H64630654   6.852   1.117   2.991  0.7909  1.6011  0.7451
   45MOL   H64730655   6.979   1.181   2.916  0.5066  0.5673  0.5819
   45MOL   N64830656   6.747   0.994   2.798 -0.7393 -0.7702 -0.6865
   45MOL   C64930657   6.709   0.897   2.700 -0.3856 -0.1246  0.2068
   45MOL   C65030658   6.559   0.878   2.680  0.2673 -0.1211 -0.3075
   45MOL   C65130659   6.519   0.768   2.577 -0.7900 -0.1032  0.0799
   45MOL   C65230660   6.372   0.743   2.583 -0.1849  0.5543  0.0351
   45MOL   C65330661   6.344   0.638   2.470  0.0269 -0.1773 -0.1257
   45MOL   C65430662   6.196   0.607   2.451 -0.2805 -0.2160  0.0240
   45MOL   C65530663   6.168   0.481   2.363  0.6075  0.0424  0.3603
   45MOL   C65630664   6.023   0.468   2.309  0.0870  0.0698  0.4940
   45MOL   C65730665   5.930   0.374   2.402  0.4758 -0.5080 -0.1927
   45MOL   C65830666   5.784   0.353   2.344 -0.0385 -0.5660 -0.2435
   45MOL   C65930667   5.699   0.477   2.369  0.1310 -0.2225 -0.0132
   45MOL   O66030668   5.709   0.544   2.478 -0.0890  0.3597  0.0968
   45MOL   H66130669   6.717   0.971   2.892 -0.8771  0.6342 -0.3706
   45MOL   H66230670   6.748   0.804   2.742 -0.1203 -0.0786  0.0679
   45MOL   H66330671   6.762   0.904   2.605  2.4730  1.5055  1.8316
   45MOL   H66430672   6.516   0.972   2.647  0.5401 -1.6407 -5.2855
   45MOL   H66530673   6.510   0.863   2.777  1.1897 -0.1260  0.1672
   45MOL   H66630674   6.548   0.793   2.476 -1.3799 -0.5624 -0.2058
   45MOL   H66730675   6.574   0.677   2.602 -0.8172  0.0213  0.6096
   45MOL   H66830676   6.324   0.837   2.558  1.4225  0.5309 -3.4748
   45MOL   H66930677   6.340   0.702   2.679  0.3709  1.2871  0.5462
   45MOL   H67030678   6.387   0.541   2.492  1.1738 -0.3399 -2.8558
   45MOL   H67130679   6.394   0.666   2.377  3.4505 -0.1257  1.6754
   45MOL   H67230680   6.152   0.588   2.548  0.0369  1.7737  0.5694
   45MOL   H67330681   6.141   0.692   2.412  0.3981 -0.5527 -1.7380
   45MOL   H67430682   6.201   0.395   2.422  2.0022  0.4649  0.2177
   45MOL   H67530683   6.231   0.490   2.274  0.5008  1.9524  0.4527
   45MOL   H67630684   5.971   0.564   2.313  0.8879  0.4710  2.2050
   45MOL   H67730685   6.013   0.428   2.209  0.2331  0.3432  0.3695
   45MOL   H67830686   5.933   0.415   2.503  3.0988  0.2885 -0.5544
   45MOL   H67930687   5.965   0.271   2.406 -0.5926 -1.0386 -3.2337
   45MOL   H68030688   5.745   0.271   2.403  0.4880  0.3807  1.4537
   45MOL   H68130689   5.789   0.324   2.239  0.9787  0.4346 -0.4848
   45MOL   H68230690   5.640   0.510   2.284 -1.7935 -1.0284  0.9888
   46MOL     N130691   7.547   1.386   5.472  0.2858 -0.0626  0.6587
   46MOL     C230692   7.416   1.431   5.512 -0.4333 -0.1741  0.5251
   46MOL     C330693   7.311   1.395   5.396  0.4994  0.0139 -0.8371
   46MOL     C430694   7.359   1.434   5.253 -0.1188  0.0396  0.5204
   46MOL     C530695   7.249   1.400   5.145  0.0964 -0.8047  0.6468
   46MOL     C630696   7.287   1.466   5.008 -0.4215 -0.0442 -0.7560
   46MOL     C730697   7.278   1.616   5.008 -0.8005 -0.3097  1.0154
   46MOL     C830698   7.133   1.679   5.031 -0.1010 -0.3635 -0.3093
   46MOL     C930699   7.137   1.832   5.032  0.2529  0.7152 -1.0635
   46MOL    C1030700   7.007   1.896   5.065 -0.2129 -0.2277 -0.3363
   46MOL    C1130701   6.929   1.862   5.199  0.2197  0.4058 -0.3235
   46MOL    C1230702   6.999   1.913   5.329 -0.5309  0.2483 -0.3120
   46MOL    O1330703   7.000   2.031   5.347  0.5266 -0.2961 -0.0970
   46MOL    H1430704   7.599   1.367   5.557  0.0458 -0.3395  0.7447
   46MOL    H1530705   7.414   1.537   5.537 -1.9885  0.1976 -1.1096
   46MOL    H1630706   7.391   1.368   5.597  2.1037 -1.0609  0.6652
   46MOL    H1730707   7.223   1.455   5.419 -0.8234 -1.6205 -1.5738
   46MOL    H1830708   7.285   1.290   5.400  2.3094 -0.5240 -2.2683
   46MOL    H1930709   7.369   1.542   5.251  0.3293 -0.0122 -0.8515
   46MOL    H2030710   7.454   1.392   5.219 -0.3303 -2.0177  2.4047
   46MOL    H2130711   7.153   1.435   5.183 -1.3080 -0.9223 -2.7140
   46MOL    H2230712   7.248   1.293   5.128 -1.2370 -0.7469  0.2756
   46MOL    H2330713   7.222   1.420   4.933  1.1170  1.0097 -2.7954
   46MOL    H2430714   7.390   1.439   4.982 -0.8705 -2.6968  0.0373
   46MOL    H2530715   7.345   1.665   5.077 -1.4776 -0.7054  1.9609
   46MOL    H2630716   7.312   1.650   4.910 -2.3858  0.4368  0.7136
   46MOL    H2730717   7.088   1.642   5.122 -3.5340  3.9707 -0.1027
   46MOL    H2830718   7.068   1.650   4.948 -0.4046 -1.8311  0.4328
   46MOL    H2930719   7.207   1.859   5.111  2.0507  0.6639 -2.6219
   46MOL    H3030720   7.180   1.871   4.941  1.2890 -1.2789 -1.4670
   46MOL    H3130721   6.949   1.897   4.973  2.4986  2.3228 -2.0997
   46MOL    H3230722   7.029   2.003   5.070  0.2549 -0.3929  1.6323
   46MOL    H3330723   6.915   1.755   5.216  0.4632  0.4699  0.2737
   46MOL    H3430724   6.836   1.917   5.203  1.6164  2.7121  1.6051
   46MOL    H3530725   7.533   1.295   5.432  1.9054  0.0723 -0.2314
   46MOL    N3630726   7.061   1.821   5.402 -0.1966 -0.1910 -0.2956
   46MOL    C3730727   7.156   1.853   5.509  0.1890  0.3701  0.4900
   46MOL    C3830728   7.295   1.891   5.451  0.2590  0.2005  0.1545
   46MOL    C3930729   7.400   1.899   5.561 -0.7015 -0.7022  0.4319
   46MOL    C4030730   7.532   1.950   5.508 -0.0957 -0.3331  0.4692
   46MOL    C4130731   7.528   2.106   5.511 -0.2157  0.2158 -0.0739
   46MOL    C4230732   7.647   2.163   5.438 -0.5365  0.2422 -0.4691
   46MOL    C4330733   7.648   2.321   5.433 -0.2817 -0.6231  0.3016
   46MOL    C4430734   7.710   2.394   5.552  0.0870 -0.7089  0.0483
   46MOL    C4530735   7.709   2.547   5.535 -0.6014 -0.1580 -0.0445
   46MOL    C4630736   0.047   2.627   5.651  0.4653 -0.7130 -0.3050
   46MOL    C4730737   0.199   2.656   5.632 -0.4015 -0.5714 -0.1824
   46MOL    O4830738   0.232   2.758   5.563 -0.0838  0.3273 -0.1057
   46MOL    H4930739   7.052   1.727   5.368 -0.5276  0.5425 -2.3240
   46MOL    H5030740   7.114   1.913   5.591  0.9416  2.8262 -0.8573
   46MOL    H5130741   7.165   1.757   5.559  0.8421  0.3399  0.3156
   46MOL    H5230742   7.277   1.990   5.410  2.7604  1.4191  1.8715
   46MOL    H5330743   7.327   1.819   5.375 -0.3806 -1.3372  1.3253
   46MOL    H5430744   7.364   1.948   5.651  1.8242 -0.8299  1.5628
   46MOL    H5530745   7.432   1.796   5.581  1.5730 -0.2204 -0.5908
   46MOL    H5630746   7.561   1.909   5.410  0.4638 -0.0452  0.5079
   46MOL    H5730747   7.612   1.927   5.578 -1.4113 -0.8145  1.8154
   46MOL    H5830748   7.513   2.141   5.613 -1.1453  1.0546 -0.4866
   46MOL    H5930749   7.447   2.154   5.456  0.6106  0.9723 -0.6488
   46MOL    H6030750   0.024   2.129   5.485 -1.2041 -2.5743 -1.0808
   46MOL    H6130751   7.639   2.129   5.335  0.1977  2.3862 -1.2537
   46MOL    H6230752   7.546   2.353   5.417  0.2738  1.0904  0.0911
   46MOL    H6330753   7.695   2.361   5.343  0.4625 -1.1821  0.4290
   46MOL    H6430754   7.650   2.359   5.636 -1.0981  0.2428 -0.3712
   46MOL    H6530755   0.099   2.365   5.557  0.6922  1.0719 -1.3686
   46MOL    H6630756   7.605   2.578   5.539 -0.3322  0.6919  0.6583
   46MOL    H6730757   0.037   2.588   5.444 -2.0045  2.4485  0.4078
   46MOL    H6830758   0.028   2.575   5.745 -1.4440 -0.1996 -0.3756
   46MOL    H6930759   7.715   2.725   5.650 -0.9821 -1.3893  0.8415
   46MOL    N7030760   0.284   2.581   5.701  0.6522 -0.0886  0.6665
   46MOL    C7130761   0.424   2.577   5.663 -0.3163 -0.1158 -1.0496
   46MOL    C7230762   0.503   2.471   5.743  0.1156 -0.1770 -0.4866
   46MOL    C7330763   0.651   2.461   5.711  0.1565 -0.0899  0.4000
   46MOL    C7430764   0.727   2.349   5.779  0.8000  0.0995 -0.8993
   46MOL    C7530765   0.878   2.357   5.767 -0.2305  0.2721 -1.1472
   46MOL    C7630766   0.936   2.268   5.871 -0.2240  0.6646 -0.6178
   46MOL    C7730767   1.083   2.238   5.856 -0.3651 -0.9649 -0.0383
   46MOL    C7830768   1.175   2.365   5.857  0.6810  0.1275 -0.1203
   46MOL    C7930769   1.320   2.320   5.850  0.5922 -0.3789 -0.2097
   46MOL    C8030770   1.412   2.443   5.851 -0.1826  0.0932  0.4651
   46MOL    C8130771   1.517   2.427   5.959 -0.6910 -0.5415  0.5631
   46MOL    O8230772   1.618   2.362   5.937  0.3591 -0.0792  0.3144
   46MOL    H8330773   0.245   2.514   5.765 -1.2256  0.4207  0.0967
   46MOL    H8430774   0.440   2.576   5.555  0.7060 -3.7091 -0.9181
   46MOL    H8530775   0.472   2.672   5.684  1.0317 -0.8791 -0.5985
   46MOL    H8630776   0.456   2.375   5.719 -1.0317 -0.3908  2.3958
   46MOL    H8730777   0.489   2.499   5.847 -1.4306  0.7696 -0.9242
   46MOL    H8830778   0.675   2.452   5.604 -0.4675 -0.2927  0.2766
   46MOL    H8930779   0.693   2.556   5.744 -0.7099  1.2575 -2.2382
   46MOL    H9030780   0.700   2.251   5.739  0.8318 -0.5730  0.6936
   46MOL    H9130781   0.701   2.338   5.884  2.5823 -1.4192 -0.6005
   46MOL    H9230782   0.913   2.459   5.782 -0.0867  0.0290  0.2281
   46MOL    H9330783   0.905   2.315   5.671  1.5941 -0.9693 -0.1125
   46MOL    H9430784   0.901   2.305   5.968 -0.0819 -1.3060  0.1985
   46MOL    H9530785   0.879   2.176   5.861 -0.0947  0.2680  2.0778
   46MOL    H9630786   1.085   2.192   5.758 -1.0220  1.9041 -1.4482
   46MOL    H9730787   1.112   2.164   5.931 -1.1405 -0.9371  0.2867
   46MOL    H9830788   1.155   2.425   5.769  0.6652  0.2881 -0.0086
   46MOL    H9930789   1.158   2.419   5.950 -0.6111  0.6743 -0.6714
   46MOL   H10030790   1.318   2.248   5.769  3.7543  0.2683 -0.9430
   46MOL   H10130791   1.343   2.245   5.926  1.7043 -0.7526 -0.8991
   46MOL   H10230792   1.356   2.536   5.862 -1.2248 -0.2838 -1.4156
   46MOL   H10330793   1.450   2.462   5.750  1.2809  0.8695  1.1343
   46MOL   N10430794   1.487   2.465   6.083 -0.2727  0.1614 -1.2608
   46MOL   C10530795   1.569   2.431   6.200 -0.6810 -0.0257 -0.1196
   46MOL   C10630796   1.508   2.460   6.339  0.4531  0.2794  0.8809
   46MOL   C10730797   1.590   2.386   6.449  0.4844  0.5307 -1.1189
   46MOL   C10830798   1.565   2.436   6.590  1.0612  0.2370 -0.0406
   46MOL   C10930799   1.463   2.344   6.668  0.0693  0.1829  0.0100
   46MOL   C11030800   1.446   2.387   6.819 -0.1636 -0.2877 -0.2579
   46MOL   C11130801   1.338   2.327   6.902 -0.2553  0.1659  0.3029
   46MOL   C11230802   1.192   2.352   6.851  0.7933  0.2438  0.3247
   46MOL   C11330803   1.109   2.235   6.915  0.7101  0.7853 -0.5634
   46MOL   C11430804   0.958   2.251   6.909 -0.0292 -0.5726  0.2844
   46MOL   C11530805   0.916   2.233   6.761  0.0437 -0.2301 -0.2702
   46MOL   O11630806   0.936   2.132   6.703  0.3109  0.1965  0.2948
   46MOL   H11730807   1.404   2.519   6.103 -0.9786 -0.6108 -2.0830
   46MOL   H11830808   1.587   2.324   6.190 -0.0225  0.2834 -2.6418
   46MOL   H11930809   1.660   2.490   6.187 -0.1523 -0.0776  3.0823
   46MOL   H12030810   1.408   2.420   6.357 -0.1947  0.3367 -2.2669
   46MOL   H12130811   1.499   2.565   6.368  2.3727  1.1663 -1.5755
   46MOL   H12230812   1.588   2.277   6.439 -1.0970  0.4241  0.0827
   46MOL   H12330813   1.689   2.412   6.413  0.8420  1.1496  0.2767
   46MOL   H12430814   1.528   2.539   6.593 -1.2243 -0.5724  1.0616
   46MOL   H12530815   1.660   2.435   6.643 -0.6021  0.4422  3.0115
   46MOL   H12630816   1.484   2.237   6.679 -2.8310 -0.4102  0.0399
   46MOL   H12730817   1.371   2.355   6.611 -0.0208  0.4454  0.2061
   46MOL   H12830818   1.536   2.360   6.874  0.5981  0.3728 -1.1742
   46MOL   H12930819   1.432   2.492   6.844  2.0256 -0.2629  0.9535
   46MOL   H13030820   1.345   2.376   6.999 -2.0974 -1.0669  1.0778
   46MOL   H13130821   1.355   2.223   6.931 -0.4473  0.1498  0.3610
   46MOL   H13230822   1.171   2.457   6.871  1.5716  0.5376 -0.3648
   46MOL   H13330823   1.176   2.344   6.744  0.9116  1.8933  0.1830
   46MOL   H13430824   1.137   2.225   7.020 -1.7320  2.1153  0.2419
   46MOL   H13530825   1.148   2.139   6.879  1.0449 -0.0750  2.0187
   46MOL   H13630826   0.926   2.345   6.956  1.2303 -0.3453  0.6915
   46MOL   H13730827   0.914   2.174   6.974  1.8636 -0.7649  1.3593
   46MOL   N13830828   0.874   2.339   6.697 -0.4932  0.1038 -0.8343
   46MOL   C13930829   0.841   2.346   6.551 -0.5607  0.1884  0.1084
   46MOL   C14030830   0.977   2.360   6.466  0.2812  0.5840 -0.6092
   46MOL   C14130831   0.965   2.360   6.318  0.1993 -0.0870 -0.7019
   46MOL   C14230832   1.103   2.337   6.260  0.5624  0.3093 -0.4983
   46MOL   C14330833   1.144   2.193   6.242 -0.5309 -0.0230 -0.2119
   46MOL   C14430834   1.294   2.167   6.215  0.0500  0.6654  0.1893
   46MOL   C14530835   1.319   2.041   6.137  0.7932  0.0694  0.5875
   46MOL   C14630836   1.462   2.027   6.085 -0.2163  0.1651 -0.0300
   46MOL   C14730837   1.574   2.010   6.178  0.1082  0.1834  0.4605
   46MOL   C14830838   1.712   2.005   6.119 -0.3238  0.1253  0.0175
   46MOL   C14930839   1.818   2.016   6.229 -0.1163  0.2688 -0.0149
   46MOL   O15030840   1.820   2.121   6.296  0.4157  0.3599  0.4680
   46MOL   H15130841   0.848   2.420   6.751 -3.0384 -0.7822 -0.6139
   46MOL   H15230842   0.794   2.252   6.523 -1.0744  0.4676  0.0305
   46MOL   H15330843   0.775   2.429   6.527 -2.2309 -1.0556  0.3576
   46MOL   H15430844   1.033   2.270   6.491 -0.4868 -0.8078 -3.6820
   46MOL   H15530845   1.039   2.444   6.495  1.1298  0.3797 -1.8087
   46MOL   H15630846   0.896   2.285   6.280  0.4761 -0.5190 -0.3609
   46MOL   H15730847   0.923   2.449   6.270 -0.2398 -0.5788 -1.2421
   46MOL   H15830848   1.178   2.380   6.327  1.4401 -0.0262 -1.2635
   46MOL   H15930849   1.133   2.390   6.170  2.4750  0.5747  0.2732
   46MOL   H16030850   1.084   2.149   6.163 -0.8948 -0.2976  0.2085
   46MOL   H16130851   1.116   2.136   6.331  1.7239 -0.8687 -0.0097
   46MOL   H16230852   1.347   2.253   6.175  2.0493 -1.0821 -1.0373
   46MOL   H16330853   1.344   2.158   6.311 -1.6146  0.1086  1.0159
   46MOL   H16430854   1.248   2.039   6.054 -0.3515  0.5374  1.5339
   46MOL   H16530855   1.297   1.954   6.199  0.0448  1.1405  1.8473
   46MOL   H16630856   1.465   1.955   6.003 -0.4342 -0.8173  0.7979
   46MOL   H16730857   1.492   2.118   6.034 -1.8781  0.2888 -0.8167
   46MOL   H16830858   1.549   1.912   6.218  0.6204 -0.5722 -1.0256
   46MOL   H16930859   1.570   2.075   6.265  0.7997  0.9497 -0.0727
   46MOL   H17030860   1.720   2.092   6.054  0.3927  0.0403 -0.0053
   46MOL   H17130861   1.729   1.916   6.059 -0.3289  1.3901 -1.8939
   46MOL   N17230862   1.906   1.918   6.243  0.4402 -0.0201 -0.2417
   46MOL   C17330863   2.037   1.923   6.311  0.4141 -0.6384 -0.8683
   46MOL   C17430864   2.132   1.815   6.252  1.2096  0.0346  0.3540
   46MOL   C17530865   2.269   1.792   6.320  0.8479 -0.0654 -0.4095
   46MOL   C17630866   2.349   1.675   6.256 -0.1318 -0.0398 -0.3299
   46MOL   C17730867   2.305   1.540   6.315 -0.1941 -0.9325  0.2598
   46MOL   C17830868   2.390   1.428   6.248 -0.7692  0.6398 -1.0771
   46MOL   C17930869   2.547   1.433   6.293  0.2357  0.2050  0.8924
   46MOL   C18030870   2.637   1.345   6.214  0.1317 -0.3665  0.2677
   46MOL   C18130871   2.782   1.371   6.246  0.0857  0.1393 -0.4010
   46MOL   C18230872   2.873   1.272   6.181  0.3439 -0.1259 -0.7784
   46MOL   C18330873   2.913   1.307   6.035  0.8806 -0.2595 -0.0738
   46MOL   O18430874   2.908   1.418   5.988 -0.5717  0.2144 -0.1088
   46MOL   H18530875   1.891   1.832   6.193 -3.4200  2.0273 -2.9195
   46MOL   H18630876   2.075   2.023   6.289  0.0065 -0.1316  0.6496
   46MOL   H18730877   2.018   1.917   6.418 -3.9529 -0.0534 -1.5254
   46MOL   H18830878   2.146   1.841   6.147 -2.4654 -0.9776 -0.4393
   46MOL   H18930879   2.081   1.720   6.261  1.4637  0.0211  1.8407
   46MOL   H19030880   2.327   1.883   6.333  1.7727 -0.6863 -0.1251
   46MOL   H19130881   2.249   1.769   6.425  0.4039 -0.9236 -0.6801
   46MOL   H19230882   2.454   1.698   6.276  0.7197 -3.4364 -0.7176
   46MOL   H19330883   2.355   1.682   6.148  1.0747 -0.8824 -0.3247
   46MOL   H19430884   2.204   1.510   6.289  0.0700  0.4633 -2.5837
   46MOL   H19530885   2.318   1.533   6.423 -0.6916  0.7149  0.4391
   46MOL   H19630886   2.347   1.329   6.261  0.0790  0.3582 -0.3345
   46MOL   H19730887   2.379   1.429   6.140 -1.5531 -2.4822 -1.0696
   46MOL   H19830888   2.563   1.407   6.397  1.6759  0.5919  0.7837
   46MOL   H19930889   2.586   1.535   6.289  0.6465 -0.0100 -1.6350
   46MOL   H20030890   2.601   1.244   6.234  1.6962 -0.8811  0.5206
   46MOL   H20130891   2.630   1.373   6.108 -1.2949 -0.7883  0.2391
   46MOL   H20230892   2.789   1.353   6.353 -2.1436  0.3407 -0.1940
   46MOL   H20330893   2.816   1.473   6.231 -2.0677  1.1833  1.4516
   46MOL   H20430894   2.845   1.167   6.192 -0.8030  0.0940 -1.4489
   46MOL   H20530895   2.962   1.272   6.244  0.8396 -0.8324 -1.4653
   46MOL   N20630896   2.953   1.206   5.956  0.3669  0.2310  0.2191
   46MOL   C20730897   2.983   1.220   5.811 -0.5060  0.1195 -0.3235
   46MOL   C20830898   2.858   1.235   5.722  0.5296 -0.4465  0.3186
   46MOL   C20930899   2.865   1.209   5.571 -0.2890  0.1282  0.0958
   46MOL   C21030900   2.764   1.269   5.473  0.0706  0.2401 -0.4744
   46MOL   C21130901   2.781   1.422   5.464  0.3157  0.2493  0.0985
   46MOL   C21230902   2.671   1.496   5.383 -0.1555 -0.2865  0.5929
   46MOL   C21330903   2.664   1.446   5.236  0.2168  0.5932 -1.0098
   46MOL   C21430904   2.573   1.540   5.155  0.0123  0.5494  1.0666
   46MOL   C21530905   2.568   1.508   5.011  0.5374  0.7513 -0.1654
   46MOL   C21630906   2.507   1.626   4.939  0.3886  0.0202 -0.1634
   46MOL   C21730907   2.509   1.591   4.793  1.6631 -0.2128  0.6751
   46MOL   O21830908   2.522   1.476   4.750 -0.1709  0.4739 -0.3010
   46MOL   H21930909   2.953   1.113   5.996  0.1591  0.1254 -0.0240
   46MOL   H22030910   3.038   1.131   5.783 -2.1641 -0.6535 -1.1659
   46MOL   H22130911   3.051   1.303   5.791 -1.0723  0.3002 -1.5302
   46MOL   H22230912   2.800   1.324   5.744 -0.9655 -2.2461  3.9375
   46MOL   H22330913   2.781   1.163   5.748 -1.6953  1.2644 -1.3762
   46MOL   H22430914   2.964   1.233   5.531 -0.9264  1.4296 -0.7544
   46MOL   H22530915   2.875   1.101   5.558 -2.2153  0.2602 -3.0459
   46MOL   H22630916   2.662   1.252   5.508 -0.6005  0.8823 -2.0415
   46MOL   H22730917   2.778   1.218   5.377 -0.0793  0.5371 -0.6564
   46MOL   H22830918   2.877   1.438   5.414 -0.4445  0.7809 -1.2066
   46MOL   H22930919   2.788   1.467   5.563 -3.0500  1.1662 -0.0258
   46MOL   H23030920   2.578   1.483   5.438 -1.3804  0.7276 -1.2099
   46MOL   H23130921   2.704   1.596   5.410 -0.7072  0.2087 -0.5148
   46MOL   H23230922   2.617   1.348   5.239 -0.5931  0.9922 -0.5495
   46MOL   H23330923   2.762   1.437   5.188  0.1296  1.2655 -1.3219
   46MOL   H23430924   2.473   1.559   5.194 -0.1785  1.0965  0.3299
   46MOL   H23530925   2.623   1.637   5.158  1.9348 -0.3507 -0.5984
   46MOL   H23630926   2.529   1.409   4.988 -0.1315  1.3939 -1.8316
   46MOL   H23730927   2.672   1.497   4.983  0.6681 -1.4733  1.1037
   46MOL   H23830928   2.568   1.715   4.954 -0.1225  0.5750 -1.3178
   46MOL   H23930929   2.409   1.649   4.980  0.6607  1.0973 -0.0978
   46MOL   N24030930   2.505   1.694   4.709  0.3787 -0.0978 -0.4411
   46MOL   C24130931   2.502   1.673   4.567 -0.1744 -0.5183 -0.7183
   46MOL   C24230932   2.466   1.802   4.494 -0.2229  0.5308  0.9283
   46MOL   C24330933   2.323   1.846   4.501 -0.0509  0.1016  0.1179
   46MOL   C24430934   2.226   1.759   4.427  0.5385 -0.2616 -0.1800
   46MOL   C24530935   2.078   1.810   4.417 -0.1464  0.5375  0.6413
   46MOL   C24630936   1.991   1.711   4.333  0.2077 -0.8339  0.0722
   46MOL   C24730937   1.836   1.710   4.362  0.1848 -0.4930  0.5585
   46MOL   C24830938   1.753   1.611   4.274 -0.2147  0.5550  0.5694
   46MOL   C24930939   1.605   1.597   4.312  0.0207  0.1556 -0.4949
   46MOL   C25030940   1.584   1.540   4.455  0.0239  0.1321  0.2471
   46MOL   C25130941   1.445   1.497   4.486 -0.2762  0.6971  0.0273
   46MOL   O25230942   1.386   1.414   4.417 -0.3567  0.0063  0.3223
   46MOL   H25330943   2.536   1.785   4.738  0.6409 -0.6589  1.0565
   46MOL   H25430944   2.430   1.597   4.538  0.9511 -1.5955 -0.7434
   46MOL   H25530945   2.598   1.637   4.530  0.1892 -0.5677  0.2483
   46MOL   H25630946   2.488   1.783   4.389 -3.3963  0.7863  0.1945
   46MOL   H25730947   2.528   1.887   4.525  2.6955 -0.3926 -2.1120
   46MOL   H25830948   2.290   1.861   4.604  0.0138  1.1504 -0.0099
   46MOL   H25930949   2.319   1.933   4.436  0.4848 -1.5292 -2.1405
   46MOL   H26030950   2.228   1.653   4.455 -0.9587 -0.3266 -0.2384
   46MOL   H26130951   2.264   1.740   4.327  2.1742 -0.2131  0.4293
   46MOL   H26230952   2.081   1.916   4.394 -0.9335  1.0766  2.9595
   46MOL   H26330953   2.047   1.803   4.521 -0.4309 -1.9545  0.4188
   46MOL   H26430954   2.012   1.726   4.227 -1.1000 -1.0863 -0.2189
   46MOL   H26530955   2.015   1.611   4.369 -3.4717 -1.7940 -0.0070
   46MOL   H26630956   1.796   1.811   4.347  1.5044 -0.3238 -2.1936
   46MOL   H26730957   1.820   1.702   4.469  1.5487 -0.0850  0.7918
   46MOL   H26830958   1.761   1.648   4.172  0.4017  1.4880  0.9418
   46MOL   H26930959   1.792   1.511   4.293  0.8966  1.0202  0.7640
   46MOL   H27030960   1.563   1.532   4.235 -2.2263  2.4266 -1.2543
   46MOL   H27130961   1.552   1.692   4.317 -0.6272 -0.2940  1.7993
   46MOL   H27230962   1.632   1.611   4.523  0.8445 -0.5202  0.3567
   46MOL   H27330963   1.642   1.448   4.459 -0.0261  0.0135 -1.3696
   46MOL   N27430964   1.391   1.557   4.588 -0.1879 -0.2522  0.3918
   46MOL   C27530965   1.260   1.523   4.642  0.1825  0.7087  0.7579
   46MOL   C27630966   1.268   1.417   4.754 -0.2902  0.0387 -0.1944
   46MOL   C27730967   1.300   1.268   4.706 -0.9879 -0.0308 -0.5782
   46MOL   C27830968   1.291   1.164   4.826  1.0589  0.2868  0.2373
   46MOL   C27930969   1.352   1.026   4.782 -0.4839 -0.5798 -0.4927
   46MOL   C28030970   1.423   0.958   4.906 -0.1861  0.0108  0.1726
   46MOL   C28130971   1.517   0.853   4.861  0.5890 -0.3030 -0.0047
   46MOL   C28230972   1.646   0.899   4.784 -0.4436 -0.1809  0.4908
   46MOL   C28330973   1.722   0.786   4.720 -0.3895 -0.2703 -0.4854
   46MOL   C28430974   1.863   0.823   4.675 -0.6293 -0.3327 -0.3108
   46MOL   C28530975   1.969   0.817   4.788  0.4905  0.4721  0.0571
   46MOL   O28630976   1.943   0.750   4.891  0.2308 -0.4476 -0.0442
   46MOL   H28730977   1.437   1.629   4.641 -0.8393  0.2391  0.2958
   46MOL   H28830978   1.188   1.480   4.573  1.5624 -0.1511 -0.1875
   46MOL   H28930979   1.219   1.617   4.679  1.8253  0.7329  2.6855
   46MOL   H29030980   1.179   1.410   4.817 -0.9862  0.0118 -1.1751
   46MOL   H29130981   1.350   1.453   4.816  0.6767 -0.5188 -1.1410
   46MOL   H29230982   1.231   1.235   4.628 -1.2179 -1.2235  0.1096
   46MOL   H29330983   1.403   1.275   4.671 -0.9635 -0.0953 -0.5201
   46MOL   H29430984   1.189   1.148   4.861  0.6367  1.8359 -0.2479
   46MOL   H29530985   1.348   1.216   4.903  2.2040  1.7780 -1.5625
   46MOL   H29630986   1.414   1.037   4.693  0.1295 -0.5692 -0.0629
   46MOL   H29730987   1.268   0.963   4.750  0.9952 -2.2572 -1.1471
   46MOL   H29830988   1.462   1.028   4.980 -1.1288 -0.4886  1.1674
   46MOL   H29930989   1.345   0.900   4.956 -1.2699  0.9561 -0.3937
   46MOL   H30030990   1.464   0.791   4.789  0.6467 -0.4517  0.0803
   46MOL   H30130991   1.539   0.784   4.942 -0.5181 -0.5729  0.0648
   46MOL   H30230992   1.618   0.967   4.703 -2.7715  0.4363  1.7535
   46MOL   H30330993   1.721   0.945   4.848  0.0819 -0.8167  0.3317
   46MOL   H30430994   1.665   0.755   4.632  1.1748  0.9156 -1.9494
   46MOL   H30530995   1.706   0.698   4.782  0.1026  0.0347  0.0834
   46MOL   H30630996   1.860   0.926   4.638  1.1621  0.6346  2.1313
   46MOL   H30730997   1.894   0.757   4.594  0.1817  0.1433 -0.3907
   46MOL   N30830998   2.087   0.875   4.777 -0.3609  0.1648 -0.3808
   46MOL   C30930999   2.196   0.868   4.867  0.0994 -0.4241  0.0499
   46MOL   C31031000   2.298   0.980   4.831  0.0233 -0.4440  0.3374
   46MOL   C31131001   2.409   1.005   4.934 -0.0423  0.0095 -0.0810
   46MOL   C31231002   2.519   1.108   4.896 -0.4658  0.0283  0.1907
   46MOL   C31331003   2.628   1.150   5.001  0.4516  0.0109 -0.4919
   46MOL   C31431004   2.740   1.050   5.006  0.1826  0.4155 -0.6198
   46MOL   C31531005   2.828   1.082   5.126  0.1440 -0.5586 -0.3513
   46MOL   C31631006   2.951   0.993   5.137 -0.8519 -0.8699  0.7719
   46MOL   C31731007   3.041   1.037   5.250 -0.0807 -0.4022  1.3036
   46MOL   C31831008   3.177   0.968   5.262  0.2003  0.1917 -0.2084
   46MOL   C31931009   3.175   0.817   5.284 -0.3234 -0.4626 -0.0912
   46MOL   O32031010   3.177   0.774   5.399  0.0935 -0.0413 -0.2144
   46MOL   H32131011   2.106   0.939   4.700  1.1184  1.6076  1.1435
   46MOL   H32231012   2.242   0.770   4.876  2.1936  0.4310 -1.0843
   46MOL   H32331013   2.160   0.885   4.969  0.2541  0.1290  0.0169
   46MOL   H32431014   2.252   1.078   4.832 -1.4827 -1.1406  1.1051
   46MOL   H32531015   2.338   0.958   4.732 -0.6308  0.3286 -0.0998
   46MOL   H32631016   2.358   1.034   5.026  0.8267  2.4680 -0.3163
   46MOL   H32731017   2.457   0.915   4.972 -0.8907  0.3964  1.9794
   46MOL   H32831018   2.471   1.202   4.870  0.1770 -0.3608 -2.5827
   46MOL   H32931019   2.562   1.078   4.800 -0.8710 -1.7229  0.5245
   46MOL   H33031020   2.588   1.145   5.102 -3.2215  0.6916 -1.8150
   46MOL   H33131021   2.666   1.252   4.993  3.2717 -0.9176  0.5573
   46MOL   H33231022   2.711   0.945   5.010 -2.1078  1.0495  0.5299
   46MOL   H33331023   2.801   1.065   4.917  1.0284 -2.7117 -0.6006
   46MOL   H33431024   2.784   1.073   5.225  0.7279  1.2241  0.0853
   46MOL   H33531025   2.850   1.188   5.111 -0.5008 -0.1930  1.2537
   46MOL   H33631026   2.906   0.896   5.158 -0.9689 -1.4683 -2.0954
   46MOL   H33731027   3.003   0.996   5.041  0.6077  0.8209  1.5866
   46MOL   H33831028   2.997   1.026   5.349  0.0507 -1.4416  1.2574
   46MOL   H33931029   3.059   1.144   5.250 -1.4755 -0.1366 -0.0594
   46MOL   H34031030   3.239   1.014   5.339  0.7098  1.9569 -1.6157
   46MOL   H34131031   3.243   0.977   5.176  0.4809  1.3012  0.1101
   46MOL   N34231032   3.152   0.742   5.178  0.0736 -0.8819  0.3856
   46MOL   C34331033   3.126   0.599   5.184 -0.2505 -0.2801  0.2183
   46MOL   C34431034   3.243   0.518   5.112  0.6633 -0.5355  0.1254
   46MOL   C34531035   3.235   0.370   5.136 -0.0890  0.5014  0.3215
   46MOL   C34631036   3.355   0.302   5.087  0.3004  0.2296  0.4126
   46MOL   C34731037   3.359   0.154   5.137  0.7189  0.1922  0.4465
   46MOL   C34831038   3.461   0.067   5.066  0.0335 -0.6576 -0.0980
   46MOL   C34931039   3.486   7.648   5.141  0.5079 -0.0548  0.3312
   46MOL   C35031040   3.376   7.536   5.122 -0.3149 -0.0279 -0.9245
   46MOL   C35131041   3.445   7.403   5.132 -0.1755  0.9972  0.1665
   46MOL   C35231042   3.352   7.283   5.143  0.4505 -0.5953 -0.3502
   46MOL   C35331043   3.411   7.162   5.208 -0.6679 -0.7497  0.5585
   46MOL   O35431044   3.519   7.120   5.163  0.2293  0.7196  0.0799
   46MOL   H35531045   3.131   0.797   5.096  1.1864 -0.8328  0.1337
   46MOL   H35631046   3.112   0.567   5.287 -0.4231 -0.5538  0.1132
   46MOL   H35731047   3.026   0.581   5.144  0.3254 -2.4874 -0.3339
   46MOL   H35831048   3.335   0.562   5.150  0.0857  0.4759  0.3884
   46MOL   H35931049   3.240   0.539   5.005 -0.8007 -2.0525 -0.1456
   46MOL   H36031050   3.249   0.359   5.244  3.5890 -0.6121 -0.2207
   46MOL   H36131051   3.139   0.318   5.126 -0.1596  0.4473  1.2382
   46MOL   H36231052   3.443   0.356   5.123  0.2504  1.8735 -1.8541
   46MOL   H36331053   3.357   0.298   4.978 -1.6353 -0.0994  0.3750
   46MOL   H36431054   3.262   0.106   5.128  1.8760 -2.3227  1.1999
   46MOL   H36531055   3.389   0.147   5.241  0.4217 -2.4477  0.3810
   46MOL   H36631056   3.436   0.058   4.961 -3.8058  1.0634  0.5909
   46MOL   H36731057   3.554   0.125   5.072 -0.5496  0.2620  0.1844
   46MOL   H36831058   3.528   7.658   5.241  0.9742  0.6686  0.0665
   46MOL   H36931059   3.577   7.613   5.093  0.2194 -2.0858  1.2405
   46MOL   H37031060   3.300   7.544   5.201 -1.6781  1.9770 -2.4104
   46MOL   H37131061   3.321   7.554   5.030  1.0549  1.0313 -1.5393
   46MOL   H37231062   3.501   7.409   5.225 -2.8440  1.0068  1.8361
   46MOL   H37331063   3.522   7.385   5.057 -2.3699 -1.5112 -1.5976
   46MOL   H37431064   3.306   7.241   5.053 -0.5854 -0.1306 -0.0531
   46MOL   H37531065   3.271   7.303   5.213  1.8833  2.1881  0.5754
   46MOL   N37631066   3.332   7.094   5.295 -0.3933 -0.0212  0.5195
   46MOL   C37731067   3.358   6.962   5.337  0.1911 -0.2517 -0.2110
   46MOL   C37831068   3.240   6.921   5.429  0.0583 -0.1443 -0.2068
   46MOL   C37931069   3.103   6.936   5.352 -0.3430  0.1057  0.2109
   46MOL   C38031070   2.982   6.864   5.410  0.0213 -0.1863 -0.1800
   46MOL   C38131071   2.851   6.903   5.325 -0.4915 -0.0987  0.8074
   46MOL   C38231072   2.825   6.814   5.203  0.1049  0.0303  0.7265
   46MOL   C38331073   2.743   6.879   5.088 -0.9655 -0.2092 -0.2893
   46MOL   C38431074   2.759   6.802   4.954  0.0652  0.7241  0.4198
   46MOL   C38531075   2.715   6.885   4.833 -0.5933 -0.3858  0.2887
   46MOL   C38631076   2.712   6.792   4.707 -0.2149  0.0617 -0.2770
   46MOL   C38731077   2.669   6.856   4.581 -0.5971  0.3569  0.0758
   46MOL   O38831078   2.671   6.978   4.575 -0.1199  0.1055 -0.5539
   46MOL   H38931079   3.236   7.116   5.315 -0.2771  0.9570  0.0731
   46MOL   H39031080   3.366   6.883   5.262 -2.7280  0.6090 -1.5188
   46MOL   H39131081   3.453   6.969   5.389  0.5344 -0.2928 -0.8226
   46MOL   H39231082   3.234   6.969   5.526 -3.3555  0.7109 -0.7749
   46MOL   H39331083   3.255   6.815   5.450  1.4802  0.3231  1.2038
   46MOL   H39431084   3.089   7.043   5.344  1.8370  0.2172 -3.0635
   46MOL   H39531085   3.117   6.914   5.246 -0.3850 -3.5727  0.8886
   46MOL   H39631086   2.974   6.904   5.511  0.9143  2.0963 -0.9795
   46MOL   H39731087   3.002   6.757   5.410  0.8983 -0.0283  1.1867
   46MOL   H39831088   2.857   7.010   5.303  1.9203 -0.7465 -2.0702
   46MOL   H39931089   2.770   6.897   5.398  0.4971  0.2820  1.9518
   46MOL   H40031090   2.921   6.796   5.155 -0.1567 -1.0518  0.6110
   46MOL   H40131091   2.799   6.713   5.234 -0.9327  0.7249  2.1738
   46MOL   H40231092   2.767   6.985   5.075 -0.5450 -0.1763  0.7228
   46MOL   H40331093   2.640   6.875   5.124 -1.2523 -0.9172 -1.1574
   46MOL   H40431094   2.864   6.783   4.930 -0.1736 -0.5169  0.3100
   46MOL   H40531095   2.700   6.710   4.959  0.2147  0.5928 -0.1718
   46MOL   H40631096   2.783   6.967   4.812  2.1070 -2.7791 -0.6172
   46MOL   H40731097   2.614   6.917   4.856 -0.8166  0.6216 -2.0480
   46MOL   H40831098   2.636   6.716   4.720 -0.6044  0.4175 -0.4662
   46MOL   H40931099   2.810   6.746   4.690  0.2070 -0.5696  3.4895
   46MOL   N41031100   2.609   6.781   4.485  0.4783 -0.1041  0.1485
   46MOL   C41131101   2.529   6.836   4.384 -0.2598 -0.7788  0.0189
   46MOL   C41231102   2.551   6.765   4.247  0.4001  0.3872  0.4771
   46MOL   C41331103   2.527   6.612   4.256  0.5548 -0.0421 -0.3979
   46MOL   C41431104   2.629   6.536   4.170 -0.1861  0.1479 -0.5749
   46MOL   C41531105   2.635   6.384   4.201  0.3996  0.4759 -0.0465
   46MOL   C41631106   2.736   6.308   4.112 -0.7157 -0.1943  0.3178
   46MOL   C41731107   2.890   6.312   4.164  0.0009 -1.0623  0.0220
   46MOL   C41831108   2.984   6.229   4.071 -0.5894 -0.2168 -0.1011
   46MOL   C41931109   3.137   6.236   4.105 -0.2612  0.4536  0.3311
   46MOL   C42031110   3.205   6.372   4.089  0.5821 -0.4799 -0.3416
   46MOL   C42131111   3.239   6.399   3.942  0.2983 -0.7391 -0.0090
   46MOL   O42231112   3.172   6.478   3.873 -0.1811 -0.3824  0.0045
   46MOL   H42331113   2.626   6.681   4.489  0.2640 -0.1322  0.3250
   46MOL   H42431114   2.425   6.843   4.417 -0.9343 -0.7827 -2.0382
   46MOL   H42531115   2.552   6.939   4.360  1.3326 -0.4763  2.6471
   46MOL   H42631116   2.655   6.783   4.218  0.5467  0.6028  1.1460
   46MOL   H42731117   2.486   6.807   4.171 -0.4424 -0.6676  0.6078
   46MOL   H42831118   2.547   6.567   4.353 -0.1580 -0.6963 -0.5483
   46MOL   H42931119   2.427   6.582   4.226  0.9698 -2.5194  0.5571
   46MOL   H43031120   2.724   6.580   4.199 -0.9944  0.7381  1.2435
   46MOL   H43131121   2.633   6.554   4.063  0.2098 -0.1016 -0.6039
   46MOL   H43231122   2.540   6.334   4.187  0.3582 -0.1624  2.3048
   46MOL   H43331123   2.660   6.372   4.306  0.2247  4.2976  0.5124
   46MOL   H43431124   2.706   6.203   4.107 -0.9691 -0.0629 -1.0993
   46MOL   H43531125   2.724   6.349   4.012 -0.2355 -1.9811 -0.4889
   46MOL   H43631126   2.903   6.286   4.269  0.7856 -1.9116 -0.2830
   46MOL   H43731127   2.922   6.416   4.169 -1.1569 -0.7739  2.5379
   46MOL   H43831128   2.938   6.131   4.081  1.4869 -1.2210 -0.1475
   46MOL   H43931129   2.979   6.240   3.963 -0.5492 -1.0286 -0.1868
   46MOL   H44031130   3.189   6.152   4.059 -0.0358  0.9147 -0.2648
   46MOL   H44131131   3.135   6.214   4.212  1.3941  1.7658  0.6345
   46MOL   H44231132   3.294   6.386   4.151  0.6671  1.6486 -0.9076
   46MOL   H44331133   3.131   6.450   4.107 -0.8321 -1.2801 -2.4829
   46MOL   N44431134   3.345   6.334   3.889 -0.7030  0.3464 -0.4251
   46MOL   C44531135   3.386   6.336   3.749 -0.2163 -0.0762  0.0624
   46MOL   C44631136   3.409   6.205   3.691  0.0783  0.0002  0.8007
   46MOL   C44731137   3.493   6.207   3.557  0.4725 -0.2945  0.0986
   46MOL   C44831138   3.638   6.257   3.583 -0.2294 -0.1657  0.1164
   46MOL   C44931139   3.727   6.206   3.465 -0.1841 -0.2378 -0.3928
   46MOL   C45031140   3.684   6.278   3.334  0.2541  0.5622 -0.0235
   46MOL   C45131141   3.760   6.249   3.210 -0.4069  0.2390  0.3941
   46MOL   C45231142   3.713   6.329   3.090 -0.5664 -0.2642 -1.0907
   46MOL   C45331143   3.795   6.315   2.966 -0.1934 -0.0733  0.3127
   46MOL   C45431144   3.723   6.388   2.857  0.6385 -0.6860  0.6871
   46MOL   C45531145   3.784   6.390   2.719 -0.2015  0.1513  0.3205
   46MOL   O45631146   3.822   6.282   2.666  0.5206  0.2752 -0.7499
   46MOL   H45731147   3.397   6.280   3.956  0.0627  2.2724  0.5917
   46MOL   H45831148   3.314   6.385   3.683  0.2505 -0.6061 -0.8440
   46MOL   H45931149   3.479   6.394   3.749 -0.7108  0.7612  1.7071
   46MOL   H46031150   3.316   6.149   3.685 -0.9094  1.8099 -1.5361
   46MOL   H46131151   3.466   6.157   3.771 -2.0499 -0.7758  1.8690
   46MOL   H46231152   3.488   6.104   3.521 -1.7326 -0.2031  0.0549
   46MOL   H46331153   3.438   6.265   3.484  1.4015 -1.5223 -1.6176
   46MOL   H46431154   3.689   6.224   3.673  0.0635 -2.3683 -0.8231
   46MOL   H46531155   3.629   6.366   3.579 -0.7679 -0.2165 -0.1787
   46MOL   H46631156   3.717   6.099   3.449 -1.0701  0.0663 -1.9716
   46MOL   H46731157   3.834   6.228   3.475 -0.7269  2.1830  0.4244
   46MOL   H46831158   3.580   6.250   3.316  0.3725  0.2247 -0.1906
   46MOL   H46931159   3.678   6.383   3.363 -1.1838  0.3316  0.5915
   46MOL   H47031160   3.761   6.143   3.184 -1.4431  0.4806 -0.6566
   46MOL   H47131161   3.863   6.275   3.236  0.2873  1.7401 -3.5143
   46MOL   H47231162   3.613   6.292   3.064 -0.2206 -2.0172 -0.0615
   46MOL   H47331163   3.702   6.434   3.117  0.7697 -0.4094  0.1022
   46MOL   H47431164   3.811   6.214   2.929  1.3288  1.0084 -2.0640
   46MOL   H47531165   3.894   6.356   2.984  0.1248 -0.8665  0.4032
   46MOL   H47631166   3.705   6.490   2.891 -0.4587 -0.0912 -1.5720
   46MOL   H47731167   3.621   6.350   2.850  0.2538  0.5990 -1.0508
   46MOL   N47831168   3.783   6.512   2.659  0.2381 -0.1408  0.2873
   46MOL   C47931169   3.844   6.541   2.537 -0.9093  0.5603  0.2726
   46MOL   C48031170   3.987   6.594   2.566  0.8492 -0.1064  0.6335
   46MOL   C48131171   4.005   6.734   2.639  0.3172  0.3628 -0.1863
   46MOL   C48231172   4.015   6.722   2.799  0.5026 -1.0474  0.2595
   46MOL   C48331173   4.092   6.836   2.867  0.6594  0.6515 -1.0185
   46MOL   C48431174   4.064   6.841   3.018 -0.4522 -0.2746  0.2190
   46MOL   C48531175   4.107   6.970   3.089  0.1108  0.3046  0.2730
   46MOL   C48631176   4.246   6.986   3.127 -0.2741 -0.3154 -0.3771
   46MOL   C48731177   4.270   7.108   3.209 -0.8558 -0.2837 -0.5335
   46MOL   C48831178   4.413   7.150   3.226 -0.8314  0.5542  0.5370
   46MOL   C48931179   4.473   7.193   3.092  0.8517 -1.4540 -0.0336
   46MOL   O49031180   4.405   7.233   2.998 -0.2814 -0.6128  0.3458
   46MOL   H49131181   3.742   6.597   2.696  0.4527 -0.7085  1.8901
   46MOL   H49231182   3.846   6.449   2.479  0.3840  0.9499 -0.3257
   46MOL   H49331183   3.780   6.607   2.478  0.6815 -0.0037 -2.1739
   46MOL   H49431184   4.036   6.621   2.472 -2.8511 -2.0942 -1.9956
   46MOL   H49531185   4.056   6.521   2.607  2.1036  0.9975  0.5328
   46MOL   H49631186   4.101   6.774   2.608 -0.1345  0.2387 -1.8000
   46MOL   H49731187   3.928   6.801   2.601 -0.3641 -0.7908 -0.8779
   46MOL   H49831188   4.069   6.634   2.835  1.7799 -1.2558 -2.0948
   46MOL   H49931189   3.920   6.707   2.850  0.0600  3.9496  1.1994
   46MOL   H50031190   4.045   6.923   2.821 -1.0855  1.5807  2.3516
   46MOL   H50131191   4.195   6.850   2.833  0.2772  1.6236 -1.7852
   46MOL   H50231192   3.956   6.831   3.033 -0.4554  0.3421  0.6374
   46MOL   H50331193   4.102   6.752   3.067  2.2188 -1.3967 -3.6454
   46MOL   H50431194   4.040   6.977   3.175 -1.6305 -0.1405 -1.0140
   46MOL   H50531195   4.078   7.056   3.029 -0.7149 -1.4609 -1.9178
   46MOL   H50631196   4.280   6.900   3.184  2.8501  1.2494  0.2245
   46MOL   H50731197   4.317   6.995   3.044  1.1877 -0.4521  0.8284
   46MOL   H50831198   4.216   7.105   3.304 -1.1018  0.2254 -0.6566
   46MOL   H50931199   4.218   7.186   3.153 -2.6804 -0.5960  0.6502
   46MOL   H51031200   4.485   7.086   3.277 -0.5384 -0.4660 -1.1276
   46MOL   H51131201   4.418   7.239   3.290  3.9176  0.6537  0.1968
   46MOL   N51231202   4.606   7.188   3.089 -0.1013 -0.2923 -0.0497
   46MOL   C51331203   4.694   7.254   2.999 -0.3425 -0.1863  0.5654
   46MOL   C51431204   4.826   7.177   2.991  0.0104 -0.2084  0.4051
   46MOL   C51531205   4.924   7.221   2.882 -0.2690 -0.9156  0.2381
   46MOL   C51631206   4.884   7.196   2.741 -0.0707  0.6269  0.5915
   46MOL   C51731207   4.970   7.284   2.642 -0.3910 -0.6616  0.0375
   46MOL   C51831208   4.964   7.253   2.489 -0.0288 -0.0318  0.2414
   46MOL   C51931209   5.071   7.328   2.413  0.1197  0.8567 -0.3044
   46MOL   C52031210   5.057   7.309   2.259 -0.1043  0.1189 -0.8142
   46MOL   C52131211   4.925   7.373   2.207 -0.0617 -0.1175 -0.3949
   46MOL   C52231212   4.904   7.350   2.061 -0.5787 -0.0391 -0.0799
   46MOL   C52331213   4.780   7.421   2.013  0.0001  0.3764  0.3098
   46MOL   O52431214   4.670   7.374   2.049  0.4519  0.0925 -0.2236
   46MOL   H52531215   4.643   7.163   3.180 -0.7435 -0.2334  0.2253
   46MOL   H52631216   4.644   7.286   2.907  0.4733  0.9563  0.5163
   46MOL   H52731217   4.701   7.346   3.057 -0.6290 -0.0267  0.3479
   46MOL   H52831218   4.794   7.078   2.958 -1.0031  0.8119 -1.8456
   46MOL   H52931219   4.861   7.182   3.094 -0.5728 -0.2087  0.6033
   46MOL   H53031220   4.956   7.323   2.900 -0.1903 -0.9864  0.5060
   46MOL   H53131221   5.019   7.168   2.890 -0.6117 -1.3110  1.9976
   46MOL   H53231222   4.783   7.234   2.730 -0.3760 -0.2515  0.2876
   46MOL   H53331223   4.876   7.088   2.726 -2.0573  0.8322  0.0588
   46MOL   H53431224   5.070   7.268   2.681 -0.3147  1.9687  0.9437
   46MOL   H53531225   4.946   7.386   2.671 -0.8061 -1.2427  1.8066
   46MOL   H53631226   4.980   7.147   2.468 -1.8422  0.1447 -2.2473
   46MOL   H53731227   4.866   7.285   2.454  0.9111  1.2773 -1.2362
   46MOL   H53831228   5.169   7.290   2.439 -0.2704 -0.8023 -1.1548
   46MOL   H53931229   5.069   7.435   2.434 -2.4225  0.7723  0.0314
   46MOL   H54031230   5.144   7.350   2.209  0.1957  0.3735 -0.0832
   46MOL   H54131231   5.046   7.202   2.238 -0.4921  0.1991 -1.0423
   46MOL   H54231232   4.934   7.480   2.224  2.6426 -0.8344  3.0217
   46MOL   H54331233   4.829   7.359   2.258  0.2177  0.2171  0.2180
   46MOL   H54431234   4.897   7.242   2.044 -0.6690 -0.2274  1.0775
   46MOL   H54531235   4.988   7.387   2.002 -1.4914  0.7159 -0.9001
   46MOL   N54631236   4.792   7.526   1.930 -0.1969 -0.5189  0.1023
   46MOL   C54731237   4.685   7.623   1.920  0.0059  0.0269  0.0293
   46MOL   C54831238   4.714   7.714   1.797  0.5139 -0.0828 -1.3741
   46MOL   C54931239   4.622   0.122   1.793 -0.2504 -1.3247 -0.0023
   46MOL   C55031240   4.671   0.226   1.692  0.2630 -0.4266 -0.2221
   46MOL   C55131241   4.600   0.361   1.686  0.4263  0.0757 -0.0741
   46MOL   C55231242   4.639   0.455   1.800  0.5631  0.9385 -0.0419
   46MOL   C55331243   4.557   0.585   1.817 -0.5167  0.0186  0.5850
   46MOL   C55431244   4.415   0.554   1.868 -0.4411  0.7623  0.0689
   46MOL   C55531245   4.328   0.681   1.877 -0.2157  0.1217 -0.2558
   46MOL   C55631246   4.181   0.644   1.907  0.4447 -0.0964  0.1331
   46MOL   C55731247   4.075   0.750   1.913 -0.3436  0.3563  0.1891
   46MOL   O55831248   4.101   0.865   1.886  0.1646 -0.2119  0.3958
   46MOL   H55931249   4.880   7.559   1.893 -0.2596 -0.1554  0.2757
   46MOL   H56031250   4.584   7.581   1.923  1.2422 -3.4692 -3.0889
   46MOL   H56131251   4.683   7.690   2.006  2.0503 -0.5594  0.5462
   46MOL   H56231252   4.679   7.652   1.714  1.0349  0.3016 -1.8795
   46MOL   H56331253   4.822   0.006   1.786  0.7372  0.3017  0.8718
   46MOL   H56431254   4.518   0.104   1.765 -1.2459 -1.0111  3.2887
   46MOL   H56531255   4.635   0.175   1.887  1.1063 -2.3817  0.4220
   46MOL   H56631256   4.666   0.169   1.598  1.6278 -0.1287 -0.4849
   46MOL   H56731257   4.777   0.249   1.696  0.0267  0.4643  0.9843
   46MOL   H56831258   4.491   0.353   1.679  0.2690  0.6048  1.5609
   46MOL   H56931259   4.630   0.404   1.590  0.2732 -0.0592 -0.1839
   46MOL   H57031260   4.616   0.391   1.885  1.7690  0.1683 -0.2824
   46MOL   H57131261   4.747   0.468   1.791  0.4849  0.7096 -1.5241
   46MOL   H57231262   4.556   0.643   1.725 -0.2043 -1.1904 -0.1826
   46MOL   H57331263   4.600   0.651   1.892 -1.0101 -0.1386  1.0095
   46MOL   H57431264   4.347   0.495   1.806 -0.0623  0.8873 -0.4767
   46MOL   H57531265   4.409   0.494   1.959  0.1019 -0.9170 -0.9666
   46MOL   H57631266   4.321   0.732   1.781  0.1382 -0.7804 -0.7653
   46MOL   H57731267   4.358   0.749   1.956  1.8756  0.2029 -1.0853
   46MOL   H57831268   4.168   0.598   2.005 -3.0319 -2.7596 -1.4629
   46MOL   H57931269   4.144   0.565   1.840  1.3860  0.1462 -0.6850
   46MOL   N58031270   3.956   0.694   1.920 -0.4615  0.0614 -0.1876
   46MOL   C58131271   3.823   0.754   1.903 -0.8658 -0.1037 -0.4715
   46MOL   C58231272   3.744   0.659   1.821  0.2111  0.7677  0.3779
   46MOL   C58331273   3.602   0.707   1.794 -0.3713  0.2743 -0.9725
   46MOL   C58431274   3.508   0.613   1.708  0.0718  0.2352 -0.2124
   46MOL   C58531275   3.430   0.514   1.797 -0.4018 -0.6317  0.5244
   46MOL   C58631276   3.329   0.436   1.708  0.0924  0.1582  0.0573
   46MOL   C58731277   3.264   0.309   1.765 -1.1305  0.5445 -0.3409
   46MOL   C58831278   3.147   0.260   1.677 -0.1550  0.6510 -0.1719
   46MOL   C58931279   3.070   0.130   1.715  0.8758  0.4214  0.0789
   46MOL   C59031280   2.941   0.096   1.636  0.2302 -0.5847 -0.2270
   46MOL   C59131281   2.946   0.122   1.483 -0.4154  0.5731 -0.1234
   46MOL   O59231282   2.969   0.029   1.405 -0.1474  0.1946  0.1215
   46MOL   H59331283   3.949   0.596   1.945 -1.0531 -0.6405 -2.9021
   46MOL   H59431284   3.774   0.776   1.998  0.0656  0.8427 -0.2049
   46MOL   H59531285   3.838   0.850   1.854  2.1645  0.7167  1.9035
   46MOL   H59631286   3.751   0.554   1.848 -1.5176  1.3133  3.1150
   46MOL   H59731287   3.809   0.652   1.733 -0.0822  0.4582  0.1830
   46MOL   H59831288   3.544   0.720   1.886 -1.1745  0.5060 -1.5117
   46MOL   H59931289   3.618   0.796   1.734 -0.3983  0.2985 -0.9441
   46MOL   H60031290   3.570   0.553   1.642  0.2047 -0.0501  0.1640
   46MOL   H60131291   3.435   0.675   1.657  1.4327  2.5655  0.6028
   46MOL   H60231292   3.390   0.555   1.889  0.4621 -0.0985  0.6709
   46MOL   H60331293   3.506   0.447   1.838  0.7321  0.6675  0.5739
   46MOL   H60431294   3.250   0.507   1.688 -0.0569  0.1800  0.6957
   46MOL   H60531295   3.366   0.416   1.608 -1.4833  0.4825 -0.5905
   46MOL   H60631296   3.235   0.326   1.869  1.9168 -0.1454  0.6664
   46MOL   H60731297   3.344   0.235   1.760 -2.0630 -0.7396  2.4211
   46MOL   H60831298   3.075   0.342   1.669 -0.6079  0.3203  0.4838
   46MOL   H60931299   3.192   0.250   1.578  1.0420 -1.0609  0.5296
   46MOL   H61031300   3.040   0.139   1.820  0.9633  0.3866  0.1073
   46MOL   H61131301   3.144   0.049   1.709  1.4143  0.7088  2.3120
   46MOL   H61231302   2.849   0.134   1.681  0.9368  0.6054  0.2400
   46MOL   H61331303   2.916   7.707   1.651 -2.4173 -0.3535 -2.6088
   46MOL   N61431304   2.911   0.248   1.446 -0.2763 -0.0819  0.0046
   46MOL   C61531305   2.914   0.301   1.306 -0.1094 -0.1989 -0.4356
   46MOL   C61631306   3.055   0.325   1.256  0.2552  0.6733 -1.1533
   46MOL   C61731307   3.113   0.453   1.318 -0.2717  0.5668 -0.6429
   46MOL   C61831308   3.261   0.479   1.283 -0.6595  0.7659  0.1501
   46MOL   C61931309   3.293   0.628   1.295  0.4327  0.0528 -0.1442
   46MOL   C62031310   3.441   0.664   1.285 -0.1183  0.6382  0.0462
   46MOL   C62131311   3.471   0.812   1.283  0.4221 -1.0808 -0.1162
   46MOL   C62231312   3.417   0.888   1.407  0.2425  0.1050 -0.0858
   46MOL   C62331313   3.411   1.038   1.386  0.4098 -0.1200  0.7560
   46MOL   C62431314   3.293   1.083   1.296 -0.6963  0.1156  0.1066
   46MOL   C62531315   3.304   1.236   1.273 -0.8986 -0.3762  0.1004
   46MOL   O62631316   3.413   1.288   1.240 -0.8028 -0.0822 -0.5926
   46MOL   H62731317   2.891   0.312   1.521  1.2921  0.7934 -0.3033
   46MOL   H62831318   2.850   0.387   1.292  0.6209  0.6285  1.1385
   46MOL   H62931319   2.873   0.232   1.233  0.1902  0.9642 -1.7150
   46MOL   H63031320   3.053   0.331   1.147  0.0106  0.1281 -1.1812
   46MOL   H63131321   3.118   0.237   1.268 -0.0779  0.8069  1.7867
   46MOL   H63231322   3.054   0.541   1.291 -1.6114 -0.3418 -0.6945
   46MOL   H63331323   3.112   0.435   1.425 -0.8154 -1.7787 -1.0217
   46MOL   H63431324   3.278   0.451   1.179 -0.9708  1.5555 -0.1177
   46MOL   H63531325   3.311   0.405   1.345 -1.7782 -1.4394 -1.4983
   46MOL   H63631326   3.242   0.658   1.388  0.9504 -2.6140  1.0312
   46MOL   H63731327   3.246   0.684   1.214  1.3113 -1.6250 -1.8303
   46MOL   H63831328   3.491   0.623   1.373 -1.1237 -2.7065 -0.8569
   46MOL   H63931329   3.488   0.613   1.202 -2.6428  2.4697 -2.6181
   46MOL   H64031330   3.410   0.857   1.205 -0.6968 -1.8889  0.2805
   46MOL   H64131331   3.575   0.837   1.262 -0.0373  1.2383  0.2710
   46MOL   H64231332   3.313   0.862   1.428  0.5165  0.8997  2.4730
   46MOL   H64331333   3.483   0.866   1.490 -0.2364 -0.3971  0.1625
   46MOL   H64431334   3.504   1.078   1.346 -0.0025  1.1667  1.0392
   46MOL   H64531335   3.406   1.088   1.482 -0.6365  0.5007  0.3908
   46MOL   H64631336   3.195   1.065   1.340 -1.0623  3.0618  0.6111
   46MOL   H64731337   3.301   1.036   1.198 -2.5566 -2.2609  1.0338
   46MOL   N64831338   3.187   1.304   1.278  0.6062  0.0727 -0.0822
   46MOL   C64931339   3.168   1.442   1.250 -0.2637 -0.4500 -0.1230
   46MOL   C65031340   3.208   1.540   1.364  0.0114  0.3863  0.4399
   46MOL   C65131341   3.175   1.489   1.501  0.0018 -0.0953  0.2643
   46MOL   C65231342   3.168   1.607   1.604  0.2664  0.0154 -0.4119
   46MOL   C65331343   3.163   1.544   1.751 -0.7873 -0.7711 -0.3939
   46MOL   C65431344   3.187   1.641   1.864  0.9078 -0.1350 -0.1203
   46MOL   C65531345   3.189   1.563   1.998 -0.4211  0.4437 -0.9200
   46MOL   C65631346   3.057   1.501   2.043 -0.2210  0.0465 -0.5687
   46MOL   C65731347   3.078   1.414   2.170 -0.0934  0.4190  0.3635
   46MOL   C65831348   2.949   1.345   2.206  0.1130 -0.4256 -0.0045
   46MOL   C65931349   2.955   1.257   2.332  0.1674  0.3726 -0.2507
   46MOL   O66031350   3.056   1.202   2.374 -0.8003 -0.5779  0.3507
   46MOL   H66131351   3.102   1.254   1.299  0.4015  0.4887  0.0811
   46MOL   H66231352   3.060   1.447   1.232 -0.3925 -2.2832 -0.0357
   46MOL   H66331353   3.212   1.469   1.154 -0.1377  0.7509  0.2765
   46MOL   H66431354   3.157   1.635   1.345 -3.5812 -1.6940 -0.5517
   46MOL   H66531355   3.313   1.565   1.346 -0.2302  1.1854  0.0745
   46MOL   H66631356   3.076   1.450   1.477 -0.5415  0.9626  0.7594
   46MOL   H66731357   3.238   1.406   1.534 -2.1358 -1.7028  0.4388
   46MOL   H66831358   3.083   1.668   1.575  0.8186  0.0752 -1.9565
   46MOL   H66931359   3.265   1.658   1.599  0.0464  0.2856 -2.1850
   46MOL   H67031360   3.214   1.448   1.751 -2.0246 -1.4531 -2.2922
   46MOL   H67131361   3.058   1.518   1.759 -1.2279 -0.0659 -3.2818
   46MOL   H67231362   3.283   1.690   1.847 -0.3622  2.9800  1.1976
   46MOL   H67331363   3.108   1.715   1.856  1.3680  0.4682  0.7797
   46MOL   H67431364   3.227   1.618   2.084 -3.0671 -1.0925  1.2883
   46MOL   H67531365   3.271   1.491   1.997 -1.1638 -0.4591  1.3544
   46MOL   H67631366   2.985   1.572   2.083  0.0111  0.5130 -0.9659
   46MOL   H67731367   3.005   1.439   1.970  0.3608 -2.3005  0.9396
   46MOL   H67831368   3.118   1.474   2.252  1.2522  0.5465 -0.3632
   46MOL   H67931369   3.164   1.350   2.149  0.9859  1.9822 -0.0271
   46MOL   H68031370   2.911   1.295   2.117 -1.5335  0.8448 -0.0544
   46MOL   H68131371   2.869   1.417   2.227 -0.6623 -1.3828  0.3789
   46MOL   H68231372   2.862   1.259   2.389 -0.6836 -0.3167 -1.5769
   47MOL     N131373   6.891   3.886   1.216 -0.3785  0.2488 -0.3491
   47MOL     C231374   6.927   3.895   1.077  0.1983  0.0904 -0.0605
   47MOL     C331375   6.875   3.772   1.005 -0.1306  0.3456 -0.1516
   47MOL     C431376   6.930   3.766   0.863  0.0556 -0.3589 -0.1438
   47MOL     C531377   6.878   3.657   0.770  0.6816  0.1714  0.2872
   47MOL     C631378   6.924   3.691   0.620  0.1448  0.3098 -0.0485
   47MOL     C731379   7.079   3.704   0.603  0.0590 -0.1559 -0.5568
   47MOL     C831380   7.121   3.703   0.457 -0.0851  0.0586 -0.2950
   47MOL     C931381   7.264   3.658   0.426 -0.3154  0.7554 -0.0694
   47MOL    C1031382   7.282   3.655   0.272 -0.0123  0.6027  0.3958
   47MOL    C1131383   7.423   3.605   0.241  0.0408 -0.2606  0.1855
   47MOL    C1231384   7.471   3.642   0.101  0.1326  0.4168 -0.3156
   47MOL    O1331385   7.453   3.755   0.063 -0.4034  0.4154 -0.1053
   47MOL    H1431386   6.796   3.854   1.225 -0.2428  0.5698  2.5605
   47MOL    H1531387   7.035   3.910   1.070  0.2757 -0.6607 -0.5492
   47MOL    H1631388   6.886   3.985   1.030 -0.2837 -0.4262 -0.6356
   47MOL    H1731389   6.766   3.775   0.996 -0.2082 -0.7079  0.3597
   47MOL    H1831390   6.902   3.679   1.055  1.3059  2.0326  2.3143
   47MOL    H1931391   6.893   3.857   0.814 -1.5558 -1.3733 -0.8565
   47MOL    H2031392   7.038   3.773   0.859  0.0266 -0.8993 -3.4087
   47MOL    H2131393   6.769   3.648   0.776  0.5159  1.5923 -0.4286
   47MOL    H2231394   6.912   3.556   0.794  1.2965  0.0647 -1.0257
   47MOL    H2331395   6.872   3.783   0.593 -1.8302 -0.2143  1.7852
   47MOL    H2431396   6.883   3.613   0.557 -2.1205  1.8575 -0.5532
   47MOL    H2531397   7.121   3.790   0.656  1.9286 -0.8707 -0.8534
   47MOL    H2631398   7.119   3.615   0.651  0.6138 -0.7125 -2.0286
   47MOL    H2731399   7.103   3.800   0.412  0.5318  0.3021 -0.0165
   47MOL    H2831400   7.059   3.628   0.408  1.4772 -2.1596  1.0426
   47MOL    H2931401   7.338   3.724   0.472  1.0043 -0.0245 -1.0347
   47MOL    H3031402   7.281   3.556   0.460 -1.5308  0.3733 -0.5896
   47MOL    H3131403   7.249   3.748   0.224 -3.8851 -0.4264  0.8682
   47MOL    H3231404   7.213   3.574   0.248  2.0120 -0.6531 -1.3878
   47MOL    H3331405   7.424   3.496   0.246  0.5399 -0.4289 -2.8468
   47MOL    H3431406   7.503   3.643   0.304  1.7137 -0.7651 -1.5797
   47MOL    H3531407   6.899   3.980   1.252  0.2197 -0.5416  1.6660
   47MOL    N3631408   7.522   3.544   0.019 -0.1885 -0.6942 -0.2243
   47MOL    C3731409   7.574   3.573   7.603 -0.7730 -0.0554  0.2646
   47MOL    C3831410   7.545   3.455   7.511 -0.2836 -0.4207  0.4089
   47MOL    C3931411   7.400   3.421   7.487  1.1998 -0.1881  0.1658
   47MOL    C4031412   7.380   3.283   7.426  0.2281  0.4496  0.3295
   47MOL    C4131413   7.380   3.183   7.549  0.1613 -0.4510 -0.1592
   47MOL    C4231414   7.332   3.040   7.515 -0.8871 -0.4734  0.1676
   47MOL    C4331415   7.333   2.941   7.633  0.7498  0.3566 -0.6586
   47MOL    C4431416   7.255   2.821   7.605  0.6406 -1.6786  0.4521
   47MOL    C4531417   7.248   2.742   0.022  0.2325 -0.3987 -0.4696
   47MOL    C4631418   7.157   2.621   0.016 -0.3649  0.0083 -0.0963
   47MOL    C4731419   7.186   2.522   7.617 -0.2533 -0.2012 -0.4342
   47MOL    O4831420   7.284   2.448   7.626  0.2295  0.0516  0.5726
   47MOL    H4931421   7.534   3.449   0.051 -2.0360 -0.4308  1.3471
   47MOL    H5031422   7.532   3.666   7.567  1.0537 -0.0214 -1.8833
   47MOL    H5131423   7.682   3.589   7.613 -0.7125 -0.6452  0.6160
   47MOL    H5231424   7.588   3.365   7.556  1.2861  0.4065  0.6056
   47MOL    H5331425   7.601   3.475   7.420  0.2595  1.4989  1.1360
   47MOL    H5431426   7.340   3.444   7.575 -2.0635 -1.5611 -1.5645
   47MOL    H5531427   7.372   3.494   7.411  0.2809  0.4581  1.1225
   47MOL    H5631428   7.461   3.259   7.358 -0.1425 -1.9531  0.6902
   47MOL    H5731429   7.285   3.271   7.374 -0.2515  0.2381  1.2308
   47MOL    H5831430   7.318   3.219   7.631 -1.6032  0.2139 -1.7588
   47MOL    H5931431   7.477   3.169   7.596  0.3529  0.7278 -0.1825
   47MOL    H6031432   7.229   3.049   7.482 -1.3572  2.3986  2.2476
   47MOL    H6131433   7.382   2.996   7.429  0.6269  0.7463  0.3897
   47MOL    H6231434   7.295   2.986   0.009  1.8966 -0.9050  0.4455
   47MOL    H6331435   7.433   2.915   7.666  0.4030 -0.8657 -0.5455
   47MOL    H6431436   7.153   2.842   7.572  0.3236 -2.2454  1.0664
   47MOL    H6531437   7.296   2.771   7.517 -0.4142  0.3241 -1.2371
   47MOL    H6631438   7.225   2.797   0.114 -0.1992 -0.6468 -0.4278
   47MOL    H6731439   7.346   2.696   0.039  0.2260 -0.7064 -1.2566
   47MOL    H6831440   7.054   2.653   7.713 -0.5022 -0.5984 -0.4073
   47MOL    H6931441   7.161   2.568   0.111 -0.9861 -3.8295 -2.0861
   47MOL    N7031442   7.106   2.520   7.510  0.1342  0.6290  0.1044
   47MOL    C7131443   7.136   2.447   7.393 -0.1626  0.0459  1.1896
   47MOL    C7231444   7.026   2.471   7.298  0.5651  0.1302 -0.3979
   47MOL    C7331445   7.050   2.402   7.159  0.2184  0.4530  0.6416
   47MOL    C7431446   6.917   2.404   7.072  0.9519  0.6499 -0.2293
   47MOL    C7531447   6.935   2.344   6.927  0.2826  0.1919  0.1746
   47MOL    C7631448   6.930   2.189   6.932  0.6444 -0.5085 -0.1043
   47MOL    C7731449   6.953   2.117   6.792  0.7397 -1.4076  0.0879
   47MOL    C7831450   6.962   1.963   6.792  0.1579 -0.3478 -0.7327
   47MOL    C7931451   6.835   1.893   6.842  0.0743 -0.3368  0.1289
   47MOL    C8031452   6.835   1.743   6.846 -0.0347 -0.7213  0.3371
   47MOL    C8131453   6.692   1.690   6.850  0.0250  0.0662  0.0381
   47MOL    O8231454   6.629   1.680   6.738 -0.5532 -0.0903  0.0273
   47MOL    H8331455   7.023   2.578   7.505 -0.5069 -0.2757  0.1262
   47MOL    H8431456   7.231   2.479   7.350 -1.6467  0.0310 -2.3236
   47MOL    H8531457   7.135   2.339   7.410  1.5301 -0.5108 -1.9239
   47MOL    H8631458   7.009   2.578   7.282 -0.7488  0.1434  0.9427
   47MOL    H8731459   6.934   2.431   7.342 -0.0718  2.2915  0.3062
   47MOL    H8831460   7.137   2.450   7.114 -0.4229 -0.8566 -2.0758
   47MOL    H8931461   7.072   2.295   7.162 -4.4872 -0.6664 -0.8539
   47MOL    H9031462   6.909   2.511   7.055  1.9051  1.0848  1.9552
   47MOL    H9131463   6.826   2.363   7.116  1.4992 -2.0636 -1.4946
   47MOL    H9231464   7.028   2.376   6.881  0.4684 -1.0032 -0.3047
   47MOL    H9331465   6.860   2.365   6.850  0.2918 -2.6643 -0.6757
   47MOL    H9431466   6.979   2.150   7.022  1.3640  0.5541 -0.0339
   47MOL    H9531467   6.829   2.161   6.964 -0.9286  3.3350 -1.3792
   47MOL    H9631468   7.042   2.165   6.748 -0.2481 -0.0600 -0.4892
   47MOL    H9731469   6.871   2.152   6.729  0.0455 -0.6145  1.4299
   47MOL    H9831470   6.981   1.923   6.693  2.9084 -0.3599 -0.2441
   47MOL    H9931471   7.050   1.928   6.846  0.4313 -0.9485 -1.5702
   47MOL   H10031472   6.750   1.933   6.786  0.0620 -0.0883  0.3225
   47MOL   H10131473   6.819   1.921   6.946 -3.0256  0.0511 -0.4047
   47MOL   H10231474   6.891   1.701   6.930 -0.9696  1.8876  2.3163
   47MOL   H10331475   6.881   1.711   6.753 -3.3092  1.5933 -2.1933
   47MOL   N10431476   6.636   1.670   6.966  0.2023 -0.1625 -1.0228
   47MOL   C10531477   6.516   1.597   6.989  0.2244 -0.7593  0.2674
   47MOL   C10631478   6.388   1.673   6.969 -0.0112 -0.6070 -0.8946
   47MOL   C10731479   6.277   1.602   7.048  0.2881 -0.0322  0.0199
   47MOL   C10831480   6.138   1.663   7.041  0.9960  0.8125 -0.2038
   47MOL   C10931481   6.035   1.588   7.134 -0.3863 -0.0144  0.2060
   47MOL   C11031482   5.894   1.642   7.102 -0.4702  0.3775  0.2573
   47MOL   C11131483   5.885   1.790   7.140 -0.2767 -0.1630 -0.1441
   47MOL   C11231484   5.750   1.851   7.110 -1.3746 -0.2232  0.1980
   47MOL   C11331485   5.646   1.836   7.218 -0.2212  0.5200  0.5114
   47MOL   C11431486   5.665   1.923   7.345  0.0338 -0.3386 -0.1814
   47MOL   C11531487   5.736   1.851   7.459  0.2530 -0.4896  0.0329
   47MOL   O11631488   5.757   1.729   7.457 -0.3906  0.2772 -0.2224
   47MOL   H11731489   6.688   1.709   7.044 -1.1694 -1.3300  0.5204
   47MOL   H11831490   6.524   1.513   6.920  0.4078  0.9044 -1.7602
   47MOL   H11931491   6.522   1.552   7.088 -1.9907 -1.2023  0.2171
   47MOL   H12031492   6.369   1.680   6.862 -2.2448  0.2282 -0.4534
   47MOL   H12131493   6.417   1.771   7.008  0.2077 -0.5698 -1.1511
   47MOL   H12231494   6.265   1.502   7.007 -1.8114 -0.1422  0.8699
   47MOL   H12331495   6.312   1.588   7.150 -0.1687 -1.8992 -0.0724
   47MOL   H12431496   6.100   1.661   6.938  0.3210  0.1348  0.0573
   47MOL   H12531497   6.151   1.770   7.058 -1.7126  1.2033 -0.3923
   47MOL   H12631498   6.055   1.617   7.238 -3.4342  0.3228  0.7520
   47MOL   H12731499   6.044   1.480   7.122 -0.0261  0.0974 -0.5210
   47MOL   H12831500   5.878   1.642   6.995 -2.2712  0.3218  0.5169
   47MOL   H12931501   5.816   1.585   7.152 -1.8353  1.1478 -0.9562
   47MOL   H13031502   5.959   1.831   7.071  1.5121 -1.3559  1.0107
   47MOL   H13131503   5.918   1.810   7.242  0.8728 -1.7490 -0.1870
   47MOL   H13231504   5.769   1.959   7.107 -1.8291 -0.0872  1.6553
   47MOL   H13331505   5.712   1.818   7.014 -0.6639 -2.1216  0.5527
   47MOL   H13431506   5.620   1.730   7.228  2.6612 -0.6171 -2.7732
   47MOL   H13531507   5.557   1.874   7.169  0.5741  1.7989  0.0405
   47MOL   H13631508   5.565   1.947   7.381  0.6566 -0.1572  1.4648
   47MOL   H13731509   5.720   2.014   7.321  0.6810 -0.5155  0.6195
   47MOL   N13831510   5.765   1.925   7.564  0.0014  1.2384 -0.6076
   47MOL   C13931511   5.849   1.858   7.669 -0.2397 -0.1678 -0.6224
   47MOL   C14031512   5.879   1.965   0.063 -0.0344  0.4396  0.3715
   47MOL   C14131513   5.765   2.025   0.151  0.3074  0.2002 -0.1681
   47MOL   C14231514   5.790   2.101   0.282 -0.2372  0.2464  0.3054
   47MOL   C14331515   5.670   2.160   0.344  0.1704 -0.5163 -0.3096
   47MOL   C14431516   5.702   2.205   0.489  0.1603 -0.0157  0.5244
   47MOL   C14531517   5.691   2.094   0.596  0.2125 -0.1431  0.7098
   47MOL   C14631518   5.693   2.149   0.734 -0.2462  0.1893 -1.1963
   47MOL   C14731519   5.731   2.063   0.856  0.1861 -0.4600  0.3169
   47MOL   C14831520   5.611   1.977   0.895  0.4173  0.1354  0.1888
   47MOL   C14931521   5.496   2.052   0.955 -0.1976 -0.7785  0.4023
   47MOL   O15031522   5.511   2.125   1.053 -0.1153 -0.4406  0.1937
   47MOL   H15131523   5.725   2.017   7.577 -0.5739  0.9712 -0.4392
   47MOL   H15231524   5.806   1.770   0.002 -0.8044  0.1344 -0.5653
   47MOL   H15331525   5.941   1.820   7.626  0.8149 -0.1748  1.5970
   47MOL   H15431526   5.936   2.044   0.014 -0.3739  0.8221  0.5785
   47MOL   H15531527   5.952   1.929   0.136 -0.7123 -0.2029  0.7385
   47MOL   H15631528   5.699   2.078   0.082  1.5330 -0.2415 -1.7254
   47MOL   H15731529   5.710   1.936   0.182 -1.6895  1.4490 -0.0696
   47MOL   H15831530   5.854   2.185   0.254 -0.4457  0.3328  0.0915
   47MOL   H15931531   5.847   2.045   0.356 -0.3360  1.2804  1.1786
   47MOL   H16031532   5.601   2.078   0.359 -0.5094  0.6372  3.4150
   47MOL   H16131533   5.624   2.245   0.293 -0.5810 -1.1634 -0.7226
   47MOL   H16231534   5.798   2.256   0.495  0.2633 -0.0295 -1.0314
   47MOL   H16331535   5.625   2.279   0.514 -1.2001 -0.8878 -0.9686
   47MOL   H16431536   5.776   2.029   0.578 -2.1109 -3.4181  0.9820
   47MOL   H16531537   5.606   2.026   0.579  0.5904 -0.2522 -0.8437
   47MOL   H16631538   5.766   2.230   0.731 -0.0189  0.0291 -0.1897
   47MOL   H16731539   5.604   2.209   0.752  0.8524  1.3182  0.6209
   47MOL   H16831540   5.768   2.114   0.945 -0.6064  1.4688 -0.4140
   47MOL   H16931541   5.797   1.983   0.823  0.7884 -0.3937  1.3398
   47MOL   H17031542   5.649   1.914   0.976  0.9252  0.5129  0.2463
   47MOL   H17131543   5.581   1.918   0.809  0.1491  1.2592 -0.5050
   47MOL   N17231544   5.376   2.052   0.891 -0.1634  0.4875 -0.2310
   47MOL   C17331545   5.261   2.142   0.919 -0.4318 -0.1952  1.0411
   47MOL   C17431546   5.199   2.135   1.061 -0.1619  0.3503 -0.0967
   47MOL   C17531547   5.090   2.245   1.083 -0.2828  0.6483 -0.2427
   47MOL   C17631548   5.036   2.252   1.224  0.5143  0.1147 -0.5462
   47MOL   C17731549   4.933   2.367   1.243  0.3965 -0.0119 -0.2782
   47MOL   C17831550   4.915   2.395   1.391  0.7751 -0.0699  0.1994
   47MOL   C17931551   4.779   2.465   1.421  0.6154  0.1368  0.3253
   47MOL   C18031552   4.766   2.484   1.572  0.4264 -0.5662 -0.0186
   47MOL   C18131553   4.782   2.631   1.605 -0.0154 -0.0479  0.5307
   47MOL   C18231554   4.652   2.710   1.571  0.2129  0.3349  0.1590
   47MOL   C18331555   4.542   2.701   1.679 -0.0353  0.4854 -0.1081
   47MOL   O18431556   4.553   2.755   1.788  0.1167  0.5482 -0.0673
   47MOL   H18531557   5.369   1.988   0.813 -0.0242 -0.9122  0.8695
   47MOL   H18631558   5.301   2.241   0.898  0.4023 -0.5839  0.7768
   47MOL   H18731559   5.191   2.136   0.836 -1.8518 -0.6833  2.2428
   47MOL   H18831560   5.285   2.137   1.128  0.5535  0.3509 -1.0013
   47MOL   H18931561   5.157   2.036   1.081  1.1539 -0.0513  0.7372
   47MOL   H19031562   5.135   2.342   1.058 -2.3891  1.1065 -2.4963
   47MOL   H19131563   4.999   2.242   1.023 -2.2053 -0.0703  2.5996
   47MOL   H19231564   5.116   2.262   1.298 -1.3596 -2.0020  1.8413
   47MOL   H19331565   4.991   2.159   1.258  0.9327  0.0866 -0.0634
   47MOL   H19431566   4.839   2.342   1.193 -1.1449  1.4476  1.7538
   47MOL   H19531567   4.956   2.468   1.210 -1.9141  0.7805  0.3865
   47MOL   H19631568   4.929   2.301   1.445  2.4457  0.6440  1.0653
   47MOL   H19731569   4.998   2.457   1.425  1.9261 -2.6235  2.2415
   47MOL   H19831570   4.699   2.394   1.401  1.4246 -0.9704  0.9437
   47MOL   H19931571   4.755   2.553   1.361 -0.1001  0.0238  0.4408
   47MOL   H20031572   4.666   2.452   1.602  0.7323 -0.5554  1.0495
   47MOL   H20131573   4.835   2.420   1.628  2.6625  3.0303  1.4781
   47MOL   H20231574   4.868   2.676   1.555 -0.4210  0.4265  0.2665
   47MOL   H20331575   4.808   2.630   1.711 -0.7780  0.0782  0.7198
   47MOL   H20431576   4.617   2.692   1.469  1.2587  1.3061 -0.3744
   47MOL   H20531577   4.686   2.813   1.564  2.3863 -0.3388  0.5096
   47MOL   N20631578   4.430   2.636   1.646  0.1034  0.1441  0.3732
   47MOL   C20731579   4.314   2.595   1.715 -0.0846  0.1040  0.4726
   47MOL   C20831580   4.215   2.716   1.712  0.0908 -0.4347 -0.2639
   47MOL   C20931581   4.166   2.757   1.573 -0.3764 -0.1727 -0.6612
   47MOL   C21031582   4.091   2.888   1.563  0.2381 -0.1379 -0.3115
   47MOL   C21131583   4.002   2.899   1.432 -0.2272  0.3970 -0.3599
   47MOL   C21231584   3.977   3.040   1.391  0.0779  0.2148 -0.0125
   47MOL   C21331585   3.919   3.043   1.250  0.1976 -0.1810 -0.2745
   47MOL   C21431586   3.793   2.967   1.227 -0.3202  0.6500  0.2052
   47MOL   C21531587   3.743   3.001   1.090  0.0130  0.0872 -0.0034
   47MOL   C21631588   3.598   2.958   1.077  0.1141 -0.1747  0.9487
   47MOL   C21731589   3.574   2.811   1.097  0.1028 -0.3086  0.0480
   47MOL   O21831590   3.650   2.735   1.043 -0.1338  0.4571 -0.2300
   47MOL   H21931591   4.438   2.585   1.559 -0.0100 -0.3920  0.6748
   47MOL   H22031592   4.324   2.573   1.821  2.6406 -2.6173 -0.2832
   47MOL   H22131593   4.262   2.509   1.672 -2.4707  1.7368  0.0033
   47MOL   H22231594   4.256   2.807   1.756 -2.4011  0.2068  0.7975
   47MOL   H22331595   4.142   2.708   1.792 -0.2095  1.4048 -0.3477
   47MOL   H22431596   4.249   2.752   1.503  1.1837 -1.4097  1.2102
   47MOL   H22531597   4.105   2.679   1.529  0.1108 -0.8821 -0.0824
   47MOL   H22631598   4.163   2.970   1.574 -3.1053  2.9356 -0.3723
   47MOL   H22731599   4.025   2.892   1.649  2.3460 -0.5554  1.3832
   47MOL   H22831600   3.906   2.849   1.450 -0.6033  0.5545 -1.8989
   47MOL   H22931601   4.041   2.845   1.346  0.0391 -0.2490  0.1547
   47MOL   H23031602   3.908   3.091   1.457  1.2305 -1.5715  2.6504
   47MOL   H23131603   4.074   3.090   1.389 -0.4382  1.1988 -0.6428
   47MOL   H23231604   3.993   3.008   1.178  1.1675  0.2406  0.5081
   47MOL   H23331605   3.907   3.149   1.229 -0.7911  0.0462  1.3379
   47MOL   H23431606   3.806   2.860   1.239 -0.3585  0.4979 -1.0829
   47MOL   H23531607   3.721   2.991   1.305 -0.1933  0.6233  0.3301
   47MOL   H23631608   3.808   2.944   1.025 -0.5195 -1.5951  0.9156
   47MOL   H23731609   3.751   3.109   1.076 -0.1949 -0.1970 -2.5481
   47MOL   H23831610   3.557   2.981   0.978  1.8934 -0.4549  0.1188
   47MOL   H23931611   3.537   3.012   1.149 -1.8444 -0.0718 -0.7649
   47MOL   N24031612   3.463   2.764   1.147 -0.2130  0.2105  0.4908
   47MOL   C24131613   3.408   2.638   1.151 -0.7370  0.1704  0.6953
   47MOL   C24231614   3.392   2.597   1.301 -0.7953  0.1291  0.0099
   47MOL   C24331615   3.339   2.448   1.312  0.0710  0.2777  0.9600
   47MOL   C24431616   3.301   2.410   1.446 -0.1181 -0.2647  0.5838
   47MOL   C24531617   3.175   2.478   1.507 -0.1141 -0.0222  0.6895
   47MOL   C24631618   3.149   2.417   1.652 -0.8455 -0.9183  0.6417
   47MOL   C24731619   3.018   2.462   1.713  0.4610 -0.5616  0.2578
   47MOL   C24831620   2.999   2.610   1.756  0.4246  0.0213  0.6946
   47MOL   C24931621   3.110   2.647   1.857  0.1233  0.5769  0.0841
   47MOL   C25031622   3.085   2.779   1.936  0.4114  0.2673  0.4026
   47MOL   C25131623   3.043   2.896   1.852 -0.3421 -0.2565  0.4860
   47MOL   O25231624   3.104   2.929   1.756  0.2714 -0.4156  0.5666
   47MOL   H25331625   3.400   2.833   1.185 -1.2701 -0.6460  0.3492
   47MOL   H25431626   3.468   2.563   1.098 -0.3968  1.5745 -0.9480
   47MOL   H25531627   3.308   2.641   1.108  0.2217  0.2742 -1.5526
   47MOL   H25631628   3.317   2.662   1.346 -1.0516 -1.4815  1.9979
   47MOL   H25731629   3.479   2.620   1.362 -0.0566  1.2764 -1.4402
   47MOL   H25831630   3.248   2.443   1.252  0.4692 -2.2133  0.5219
   47MOL   H25931631   3.403   2.371   1.270  0.9842  1.2948  0.4584
   47MOL   H26031632   3.383   2.433   1.515  1.4993 -0.4510 -1.2470
   47MOL   H26131633   3.275   2.304   1.457  0.7257 -0.2464  3.2599
   47MOL   H26231634   3.085   2.461   1.449  0.3037  1.3341 -0.3940
   47MOL   H26331635   3.200   2.583   1.521  2.5245  0.0662 -3.7158
   47MOL   H26431636   3.147   2.308   1.649  0.1384 -1.0429  3.0392
   47MOL   H26531637   3.236   2.448   1.710 -1.8184  0.9931  1.1469
   47MOL   H26631638   2.997   2.399   1.799  0.8644  0.7415  1.3151
   47MOL   H26731639   2.939   2.430   1.645  1.7161  0.6017 -1.8020
   47MOL   H26831640   2.996   2.672   1.666 -0.0805  0.3309  0.9192
   47MOL   H26931641   2.896   2.620   1.791  0.4116 -2.3239  1.4227
   47MOL   H27031642   3.201   2.654   1.799 -0.0388  2.4887  0.0340
   47MOL   H27131643   3.125   2.566   1.929  0.6664 -3.3084 -4.1884
   47MOL   H27231644   3.168   2.814   1.998  0.1856  0.0492  0.8240
   47MOL   H27331645   3.005   2.743   2.000  0.5376  1.0500  0.9967
   47MOL   N27431646   2.933   2.963   1.891  0.3065  0.0857 -0.0180
   47MOL   C27531647   2.877   3.089   1.838  0.4790 -0.2896 -0.2267
   47MOL   C27631648   2.769   3.062   1.742 -0.3434 -0.2951 -0.1578
   47MOL   C27731649   2.704   3.192   1.672  0.1616  0.1535  0.6325
   47MOL   C27831650   2.603   3.145   1.559  0.3278 -0.1580 -0.6314
   47MOL   C27931651   2.532   3.244   1.470  0.0935  0.6207  0.0181
   47MOL   C28031652   2.425   3.178   1.390  0.6954  0.0144  0.1181
   47MOL   C28131653   2.483   3.073   1.279 -0.0567  0.5904  0.9227
   47MOL   C28231654   2.542   3.138   1.157 -0.4192  0.1903 -0.1132
   47MOL   C28331655   2.626   3.035   1.071  0.3584  0.0686  0.2493
   47MOL   C28431656   2.672   3.094   0.940 -0.5821 -0.3021  0.2249
   47MOL   C28531657   2.797   3.183   0.967  0.2519  0.4771  0.5866
   47MOL   O28631658   2.884   3.137   1.043 -0.2019 -0.0519  0.6756
   47MOL   H28731659   2.874   2.918   1.961  0.0182  0.1432 -0.2217
   47MOL   H28831660   2.950   3.153   1.788  0.6733  2.6120  3.4778
   47MOL   H28931661   2.831   3.149   1.917  0.2232 -0.9216  0.1057
   47MOL   H29031662   2.697   2.987   1.776 -1.1230  0.1798 -0.7469
   47MOL   H29131663   2.813   3.005   1.660 -2.1753  0.2865 -1.5794
   47MOL   H29231664   2.662   3.264   1.742  2.4096  2.7115 -0.5584
   47MOL   H29331665   2.786   3.250   1.628 -0.6429 -0.4393 -1.7398
   47MOL   H29431666   2.524   3.087   1.607  0.5524  1.4150  1.7423
   47MOL   H29531667   2.661   3.071   1.505  1.5864  0.2626  0.1186
   47MOL   H29631668   2.614   3.297   1.421  0.1961  1.0603  0.6621
   47MOL   H29731669   2.486   3.325   1.525  0.4778  0.7531  0.1489
   47MOL   H29831670   2.369   3.100   1.441  0.6273  0.0722  0.1308
   47MOL   H29931671   2.352   3.245   1.345  1.9910  1.9460  0.8423
   47MOL   H30031672   2.404   3.006   1.243  1.9990  0.2393 -3.2535
   47MOL   H30131673   2.560   3.008   1.320  0.2898  0.6222  0.3252
   47MOL   H30231674   2.474   3.208   1.108 -0.3310 -1.3544 -2.5312
   47MOL   H30331675   2.611   3.207   1.206  0.9867 -2.2097  1.4234
   47MOL   H30431676   2.565   2.954   1.032 -0.5793  0.4969  0.8199
   47MOL   H30531677   2.707   2.997   1.133 -1.4655 -2.4778  1.1428
   47MOL   H30631678   2.589   3.151   0.900 -0.0708  0.1760 -0.1719
   47MOL   H30731679   2.705   3.010   0.878 -1.6533 -0.7336  0.2302
   47MOL   N30831680   2.797   3.304   0.915 -0.6097  0.1443  0.2935
   47MOL   C30931681   2.910   3.397   0.931  0.1976 -0.2607  0.3376
   47MOL   C31031682   2.963   3.429   0.787 -0.0675 -0.0084 -0.3059
   47MOL   C31131683   2.871   3.514   0.703 -0.8555  0.7539  0.7493
   47MOL   C31231684   2.923   3.568   0.574  0.0630 -0.6460 -0.6397
   47MOL   C31331685   2.947   3.468   0.455  0.3952 -0.2569  0.1438
   47MOL   C31431686   2.815   3.387   0.424  0.0169  0.7768 -0.2650
   47MOL   C31531687   2.852   3.310   0.299  0.7173  0.4025 -0.6274
   47MOL   C31631688   2.827   3.403   0.182  0.2942  0.5503  0.0992
   47MOL   C31731689   2.830   3.339   0.038 -0.0213  0.4641  0.6859
   47MOL   C31831690   2.787   3.425   7.634  1.2397  0.2708  0.7567
   47MOL   C31931691   2.638   3.434   7.595 -0.1917  0.4908  0.2020
   47MOL   O32031692   2.581   3.341   7.536  0.3737  0.3308 -0.3291
   47MOL   H32131693   2.713   3.329   0.866 -1.5363 -0.7074  1.4189
   47MOL   H32231694   2.995   3.349   0.979  0.5076 -0.5010 -0.4299
   47MOL   H32331695   2.895   3.487   0.990  1.4633 -0.2332  0.6388
   47MOL   H32431696   2.978   3.337   0.730  0.0238 -1.6152  2.2185
   47MOL   H32531697   3.054   3.488   0.795 -0.4094  0.2383  1.9300
   47MOL   H32631698   2.782   3.455   0.679  0.6604 -0.5698 -1.8054
   47MOL   H32731699   2.840   3.598   0.765 -3.4849  1.8703 -1.9207
   47MOL   H32831700   3.013   3.628   0.581  0.8448 -2.0750  1.8462
   47MOL   H32931701   2.846   3.639   0.542 -0.5940 -0.6703  0.8290
   47MOL   H33031702   3.030   3.400   0.474 -0.4135 -1.2219  0.2422
   47MOL   H33131703   2.985   3.543   0.385 -0.9096 -0.9817 -1.3810
   47MOL   H33231704   2.793   3.321   0.508  1.4914 -0.4885 -0.8548
   47MOL   H33331705   2.740   3.464   0.408 -0.4922  0.0617 -1.4171
   47MOL   H33431706   2.793   3.218   0.293  1.6384 -0.1798 -0.7925
   47MOL   H33531707   2.955   3.275   0.306  0.9733  1.0962 -0.9354
   47MOL   H33631708   2.727   3.447   0.179  0.0526 -0.0616 -0.7515
   47MOL   H33731709   2.895   3.488   0.191  0.8903 -0.1754  3.0977
   47MOL   H33831710   2.768   3.248   0.038  3.7969 -2.2955  2.8591
   47MOL   H33931711   2.925   3.296   0.006 -0.9134  0.5401 -2.2100
   47MOL   H34031712   2.841   3.387   7.547  0.4966 -1.0707  0.8555
   47MOL   H34131713   2.820   3.524   7.666 -0.1316  0.8661  0.3642
   47MOL   N34231714   2.575   3.541   7.639 -0.6161  0.3235  0.3081
   47MOL   C34331715   2.432   3.573   7.622 -0.2035 -0.1802  0.0605
   47MOL   C34431716   2.342   3.547   0.024 -0.3910  0.3374  0.8777
   47MOL   C34531717   2.372   3.641   0.140  0.1938  0.0730 -0.1559
   47MOL   C34631718   2.255   3.671   0.237 -0.7593  0.2381 -0.0855
   47MOL   C34731719   2.281   3.779   0.339 -0.3954 -0.7343  0.4410
   47MOL   C34831720   2.186   3.769   0.457 -0.1862 -0.3980  0.1651
   47MOL   C34931721   2.177   3.894   0.541 -0.4391 -0.3389 -0.1934
   47MOL   C35031722   2.115   3.860   0.676 -0.1075  0.0138 -0.8233
   47MOL   C35131723   1.961   3.829   0.685 -1.1633  0.1989  0.2304
   47MOL   C35231724   1.928   3.696   0.754 -1.0558  0.2416 -0.0965
   47MOL   C35331725   1.994   3.572   0.690 -0.8686 -0.0474  0.5214
   47MOL   O35431726   2.092   3.518   0.742  0.1125 -0.0952 -0.0641
   47MOL   H35531727   2.639   3.607   7.680  2.1394  0.5666 -4.0777
   47MOL   H35631728   2.420   3.677   7.591 -1.1948  0.1262  1.4589
   47MOL   H35731729   2.386   3.529   7.533 -1.1834  2.3011 -0.7032
   47MOL   H35831730   2.337   3.440   0.047  1.7352  0.0685  0.1843
   47MOL   H35931731   2.247   3.582   7.700  0.8811  1.4061 -1.2620
   47MOL   H36031732   2.454   3.599   0.199  1.3196  1.0941 -0.9621
   47MOL   H36131733   2.411   3.735   0.102 -1.4920  1.1054  0.6347
   47MOL   H36231734   2.226   3.577   0.284 -1.7621  0.7444  0.3300
   47MOL   H36331735   2.172   3.701   0.173 -1.4036 -0.0364  0.6184
   47MOL   H36431736   2.266   3.880   0.301 -0.5959 -1.1581 -0.6011
   47MOL   H36531737   2.384   3.766   0.373 -0.4547 -2.5429 -0.0242
   47MOL   H36631738   2.085   3.753   0.420  0.0581 -0.0091 -0.6680
   47MOL   H36731739   2.223   3.688   0.521 -0.5037  0.0174  0.8854
   47MOL   H36831740   2.123   3.968   0.482 -1.8043  0.5705  2.1594
   47MOL   H36931741   2.277   3.936   0.556  0.1540 -1.3020 -1.3158
   47MOL   H37031742   2.171   3.777   0.718 -1.1714 -0.1458  0.2987
   47MOL   H37131743   2.128   3.945   0.743  0.1900 -0.5533 -0.1538
   47MOL   H37231744   1.909   3.835   0.590 -1.4491 -1.8754  0.2269
   47MOL   H37331745   1.915   3.907   0.745  0.9827 -0.2329  2.5623
   47MOL   H37431746   1.820   3.681   0.759 -0.9072 -0.7623  0.3690
   47MOL   H37531747   1.961   3.707   0.858 -0.9953 -1.2268  0.0519
   47MOL   N37631748   1.936   3.522   0.584  0.1696  0.2958  0.1554
   47MOL   C37731749   2.000   3.435   0.487 -0.2849  0.5911  0.1686
   47MOL   C37831750   1.924   3.459   0.354  0.5202 -0.3067 -0.2586
   47MOL   C37931751   1.986   3.388   0.227 -0.9652 -0.4954 -0.5623
   47MOL   C38031752   1.933   3.445   0.088  0.1830 -1.0558 -0.1477
   47MOL   C38131753   1.962   3.372   7.684 -0.5537  0.1940  0.1926
   47MOL   C38231754   1.943   3.215   7.695  0.2994 -0.6921 -0.1141
   47MOL   C38331755   1.803   3.177   0.039  0.5827  0.7010  0.6239
   47MOL   C38431756   1.809   3.041   0.093  0.1284  0.2571 -0.5212
   47MOL   C38531757   1.669   3.001   0.146  0.0627 -0.6949  0.1237
   47MOL   C38631758   1.578   2.920   0.055 -0.3653 -0.5856 -0.3876
   47MOL   C38731759   1.594   2.765   0.063 -0.1494 -0.2766  0.5281
   47MOL   O38831760   1.578   2.702   0.168 -0.3657 -0.3137 -0.3344
   47MOL   H38931761   1.842   3.553   0.563  0.3164  1.3208  0.9685
   47MOL   H39031762   2.100   3.474   0.467 -0.2301  1.2966  1.7579
   47MOL   H39131763   2.000   3.331   0.519 -1.6639 -0.0266 -1.7081
   47MOL   H39231764   1.921   3.566   0.336 -0.5713 -0.1202  0.9210
   47MOL   H39331765   1.819   3.433   0.368 -0.6757  4.4392  0.5933
   47MOL   H39431766   2.091   3.412   0.211 -1.0439 -0.4324 -0.9844
   47MOL   H39531767   1.974   3.282   0.249 -2.0675 -0.9820 -3.3166
   47MOL   H39631768   1.967   3.548   0.080  0.9530 -1.4719 -2.5692
   47MOL   H39731769   1.825   3.457   0.088  0.1514 -1.1009 -2.2662
   47MOL   H39831770   2.068   3.393   7.669 -0.3753 -0.8999 -0.1254
   47MOL   H39931771   1.926   3.418   7.593  1.9577  1.5287 -0.1668
   47MOL   H40031772   1.946   3.180   7.592 -0.6373  0.0528 -0.3966
   47MOL   H40131773   2.014   3.171   0.050  0.0351 -1.3777 -0.2683
   47MOL   H40231774   1.720   3.178   7.684  0.6046  1.0404  0.6005
   47MOL   H40331775   1.773   3.234   0.127 -0.7902 -1.0123  1.2989
   47MOL   H40431776   1.834   2.971   0.013 -0.3746  2.0249 -2.2794
   47MOL   H40531777   1.886   3.037   0.170 -0.2306  0.8429 -0.1273
   47MOL   H40631778   1.616   3.089   0.183  0.5303 -1.0458  1.6698
   47MOL   H40731779   1.688   2.955   0.243 -3.3038 -1.8617  0.3005
   47MOL   H40831780   1.591   2.954   7.668  1.0575 -1.9019 -0.6761
   47MOL   H40931781   1.473   2.943   0.069 -0.5582 -1.5075 -0.2505
   47MOL   N41031782   1.606   2.683   7.670 -0.3162 -0.7407  0.3275
   47MOL   C41131783   1.570   2.717   7.531 -0.9753 -0.0485  0.9737
   47MOL   C41231784   1.418   2.707   7.508  0.4795  0.2258 -0.1261
   47MOL   C41331785   1.376   2.701   7.361  0.1527  0.0185 -0.5918
   47MOL   C41431786   1.229   2.715   7.336  0.7272  0.2076 -0.1419
   47MOL   C41531787   1.190   2.680   7.190 -0.6071 -0.1664 -0.2202
   47MOL   C41631788   1.055   2.739   7.146  0.4887  0.2800 -0.1657
   47MOL   C41731789   1.010   2.681   7.008  0.0035 -0.9073 -0.2006
   47MOL   C41831790   0.862   2.726   6.971 -0.8321  0.6617  0.2221
   47MOL   C41931791   0.756   2.639   7.039  0.3091 -0.6497  0.0876
   47MOL   C42031792   0.612   2.635   6.978  0.2135  0.2287  0.4773
   47MOL   C42131793   0.533   2.761   6.986  0.0262  1.0751 -0.1698
   47MOL   O42231794   0.557   2.837   7.079  0.8487  0.2729 -0.1206
   47MOL   H42331795   1.628   2.586   7.688 -1.8604 -0.6801  2.6633
   47MOL   H42431796   1.618   2.814   7.518  1.7592 -1.4524  0.2789
   47MOL   H42531797   1.621   2.659   7.454  0.3269  2.3949 -0.0588
   47MOL   H42631798   1.357   2.774   7.568 -2.3332 -0.7785 -1.7850
   47MOL   H42731799   1.397   2.608   7.548 -0.0330  0.3825 -0.0191
   47MOL   H42831800   1.432   2.783   7.316 -0.1493  1.0701  0.8998
   47MOL   H42931801   1.419   2.611   7.319 -0.0164 -0.2458 -0.2034
   47MOL   H43031802   1.188   2.812   7.365 -0.6263 -0.6109  0.6966
   47MOL   H43131803   1.186   2.644   7.406  0.8237  0.1211 -0.1715
   47MOL   H43231804   1.206   2.575   7.165  1.5319 -0.5620  2.5227
   47MOL   H43331805   1.257   2.727   7.118  0.2754 -2.3905 -0.8839
   47MOL   H43431806   0.977   2.698   7.209  0.7461  0.7633  0.4797
   47MOL   H43531807   1.048   2.847   7.154 -5.4972 -0.0463  1.0497
   47MOL   H43631808   1.026   2.575   6.990 -0.2453 -0.6467 -2.0719
   47MOL   H43731809   1.074   2.729   6.935 -1.6952  0.6206 -0.7403
   47MOL   H43831810   0.855   2.833   6.991 -1.6297  0.6162  0.1817
   47MOL   H43931811   0.845   2.723   6.864 -3.3331 -0.6213  0.6191
   47MOL   H44031812   0.763   2.660   7.146  0.5484  2.4917 -0.4840
   47MOL   H44131813   0.789   2.536   7.050 -0.5125 -0.8799  0.4229
   47MOL   H44231814   0.564   2.558   7.038 -1.5147  0.1543 -0.9559
   47MOL   H44331815   0.615   2.597   6.876  1.4816  0.9192  0.2519
   47MOL   N44431816   0.431   2.774   6.898 -0.3889  1.0289  0.3409
   47MOL   C44531817   0.339   2.886   6.910 -0.2766  0.0029 -0.6030
   47MOL   C44631818   0.400   3.023   6.878 -0.3809 -0.2057 -0.0095
   47MOL   C44731819   0.312   3.146   6.916 -0.6119  0.8591 -0.5824
   47MOL   C44831820   0.385   3.282   6.901 -0.2303  0.0746 -0.3418
   47MOL   C44931821   0.514   3.305   6.980  0.1921 -0.5219 -0.0873
   47MOL   C45031822   0.504   3.273   7.133 -0.5796 -0.1533 -0.2180
   47MOL   C45131823   0.637   3.300   7.192 -0.0629  1.4994  0.2913
   47MOL   C45231824   0.658   3.243   7.327  0.2034  0.0976 -0.4146
   47MOL   C45331825   0.793   3.192   7.353 -0.0475 -0.6058  0.2659
   47MOL   C45431826   0.825   3.048   7.312 -0.4592 -1.4506 -0.4884
   47MOL   C45531827   0.751   2.946   7.402 -0.0844  0.0783 -0.0162
   47MOL   O45631828   0.756   2.956   7.523  0.4772 -0.1394 -0.2187
   47MOL   H45731829   0.415   2.708   6.824 -0.8409  1.4521  0.0568
   47MOL   H45831830   0.259   2.870   6.838  0.7499  0.8978 -1.9459
   47MOL   H45931831   0.295   2.889   7.010 -0.8621 -0.8375 -0.8323
   47MOL   H46031832   0.417   3.023   6.770  0.5255 -0.2085  0.1293
   47MOL   H46131833   0.493   3.036   6.934 -0.2816  0.7623 -0.3730
   47MOL   H46231834   0.225   3.141   6.850  0.4255 -0.2559 -1.8921
   47MOL   H46331835   0.278   3.144   7.020 -2.0711  1.7371 -1.0235
   47MOL   H46431836   0.316   3.364   6.922 -2.0215 -1.6445  0.6320
   47MOL   H46531837   0.407   3.298   6.796  0.5761  2.4216  0.1467
   47MOL   H46631838   0.531   3.412   6.970 -0.5489 -0.4841 -0.9807
   47MOL   H46731839   0.594   3.247   6.934  1.8334  3.7066 -2.8566
   47MOL   H46831840   0.423   3.318   7.190  0.8987  0.8894  1.0863
   47MOL   H46931841   0.482   3.168   7.152 -1.4878 -0.0904 -0.8508
   47MOL   H47031842   0.659   3.407   7.188  0.1870  1.4496  0.3376
   47MOL   H47131843   0.701   3.250   7.120 -1.3221  0.1823  0.0604
   47MOL   H47231844   0.638   3.318   7.402 -0.0003 -2.4358  2.1655
   47MOL   H47331845   0.583   3.164   7.340 -1.1567  0.9408 -2.7900
   47MOL   H47431846   0.799   3.206   7.461  0.0077  0.9314  0.0741
   47MOL   H47531847   0.872   3.264   7.329 -0.7458  0.8187  2.0931
   47MOL   H47631848   0.931   3.029   7.328 -0.1758  0.2413 -0.3419
   47MOL   H47731849   0.790   3.044   7.208  1.3954  0.3901 -1.2201
   47MOL   N47831850   0.688   2.841   7.350 -0.6282 -0.2484 -0.1553
   47MOL   C47931851   0.620   2.735   7.428  0.2506  0.4645 -0.5988
   47MOL   C48031852   0.671   2.589   7.412  1.1399  0.4061  1.0234
   47MOL   C48131853   0.829   2.580   7.435  0.0647  0.2929  0.0423
   47MOL   C48231854   0.875   2.430   7.420  0.4275  0.1235 -0.3301
   47MOL   C48331855   1.024   2.408   7.409  0.2817 -0.3030 -0.3557
   47MOL   C48431856   1.062   2.268   7.368  0.1710  0.7314 -0.3767
   47MOL   C48531857   1.211   2.268   7.324 -0.1432 -0.1975 -0.5325
   47MOL   C48631858   1.264   2.124   7.316 -0.0352  0.1809 -0.4525
   47MOL   C48731859   1.421   2.116   7.320  0.1782  0.1532  0.3732
   47MOL   C48831860   1.475   1.975   7.310  0.7324 -0.0492 -0.0170
   47MOL   C48931861   1.515   1.921   7.171  0.4673  0.7858  0.2114
   47MOL   O49031862   1.608   1.965   7.102 -0.1101 -0.1356 -0.6914
   47MOL   H49131863   0.669   2.838   7.251 -2.0913 -1.5167  0.1404
   47MOL   H49231864   0.626   2.759   7.534  0.6001 -0.6955 -0.3539
   47MOL   H49331865   0.516   2.744   7.395  0.2245 -0.3665 -0.7606
   47MOL   H49431866   0.641   2.557   7.312  1.1183 -0.3154  1.2541
   47MOL   H49531867   0.615   2.523   7.478  0.4674  0.7519  0.7987
   47MOL   H49631868   0.879   2.656   7.375 -2.1512  2.4059  0.7956
   47MOL   H49731869   0.855   2.607   7.537 -0.5291 -1.1936  0.6005
   47MOL   H49831870   0.818   2.392   7.336 -0.2572 -1.3382  0.7682
   47MOL   H49931871   0.840   2.380   7.511 -3.4694 -0.1050 -1.8600
   47MOL   H50031872   1.078   2.432   7.501  0.2720  2.7480 -1.0904
   47MOL   H50131873   1.067   2.481   7.341 -0.3162 -0.1644 -0.5870
   47MOL   H50231874   1.053   2.193   7.446 -2.0114  1.6120  0.2356
   47MOL   H50331875   0.999   2.241   7.283  0.1277  0.0106 -0.1163
   47MOL   H50431876   1.268   2.332   7.392 -0.2010 -0.2692 -0.4175
   47MOL   H50531877   1.225   2.321   7.229 -2.3944  1.3787 -0.0204
   47MOL   H50631878   1.230   2.072   7.405  0.3440  0.5205 -0.1095
   47MOL   H50731879   1.222   2.074   7.229 -0.8263  2.0318 -1.1828
   47MOL   H50831880   1.443   2.173   7.411  0.0892 -1.4973  1.4523
   47MOL   H50931881   1.462   2.174   7.238  1.0524  0.0412  0.7175
   47MOL   H51031882   1.396   1.908   7.342  1.0793  0.0465  1.0586
   47MOL   H51131883   1.561   1.963   7.375  0.0817  0.3418  0.9268
   47MOL   N51231884   1.451   1.812   7.131 -0.7319 -0.5865 -0.9206
   47MOL   C51331885   1.479   1.750   7.002  0.3245 -0.1780 -0.1394
   47MOL   C51431886   1.395   1.613   6.985  0.8452 -0.3588 -0.2121
   47MOL   C51531887   1.439   1.494   7.072 -0.2987 -0.0746 -1.5543
   47MOL   C51631888   1.353   1.368   7.048  0.6125  0.3123  0.0323
   47MOL   C51731889   1.349   1.258   7.149 -0.3020  0.3912 -0.3767
   47MOL   C51831890   1.481   1.222   7.222  0.5088 -0.8054 -0.1449
   47MOL   C51931891   1.467   1.108   7.326 -0.3956 -0.1608 -0.8295
   47MOL   C52031892   1.596   1.107   7.418 -0.3188 -0.4452  0.4545
   47MOL   C52131893   1.576   1.210   7.531  0.0118 -0.9068 -0.4439
   47MOL   C52231894   1.706   1.226   7.612  0.2606 -0.1073 -0.3202
   47MOL   C52331895   1.697   1.327   0.010  0.4443  0.0143 -0.1073
   47MOL   O52431896   1.681   1.447   7.703 -0.1425  0.2730  0.0941
   47MOL   H52531897   1.368   1.782   7.180 -0.5013  1.5463  0.8154
   47MOL   H52631898   1.454   1.805   6.911  0.4523 -2.4067 -1.5698
   47MOL   H52731899   1.584   1.724   6.995  0.5216  0.5034  0.2679
   47MOL   H52831900   1.405   1.585   6.880 -1.8793 -0.7472 -0.3986
   47MOL   H52931901   1.288   1.633   6.991  1.3876  2.2153  1.3860
   47MOL   H53031902   1.546   1.474   7.073 -0.1080  0.5632  2.9836
   47MOL   H53131903   1.413   1.508   7.177 -0.3978 -1.6125 -1.3614
   47MOL   H53231904   1.381   1.334   6.948 -0.7376 -3.0637  0.7452
   47MOL   H53331905   1.249   1.395   7.036  0.5800  0.0177 -0.3463
   47MOL   H53431906   1.315   1.162   7.110  2.6884 -1.9446  2.4458
   47MOL   H53531907   1.266   1.282   7.216 -0.0197  1.6516 -0.4674
   47MOL   H53631908   1.567   1.200   7.159  0.4604 -0.8027 -0.2116
   47MOL   H53731909   1.515   1.306   7.281 -0.9829  0.0344 -0.4558
   47MOL   H53831910   1.435   1.009   7.293 -1.2181  0.1536 -0.9797
   47MOL   H53931911   1.388   1.127   7.398 -0.5315 -1.4575 -0.6348
   47MOL   H54031912   1.613   1.007   7.458  1.4172 -0.7730 -1.0384
   47MOL   H54131913   1.679   1.123   7.349 -1.8014  2.0626 -0.8297
   47MOL   H54231914   1.494   1.180   7.597  0.8570 -1.2902  0.4611
   47MOL   H54331915   1.550   1.309   7.493 -0.0367 -0.7352  0.0307
   47MOL   H54431916   1.781   1.261   7.540 -0.4946  2.0692 -0.0852
   47MOL   H54531917   1.734   1.131   7.657 -2.7248 -1.0482 -0.3566
   47MOL   N54631918   1.702   1.281   0.133 -0.4257 -0.4668 -0.0076
   47MOL   C54731919   1.695   1.354   0.262  0.6256 -0.2456 -0.7569
   47MOL   C54831920   1.830   1.404   0.302 -0.4032  0.2016  0.7705
   47MOL   C54931921   1.832   1.482   0.432  0.0868 -0.1320 -0.6383
   47MOL   C55031922   1.953   1.564   0.452  0.0339  0.0583  0.0783
   47MOL   C55131923   1.988   1.607   0.601  0.4921 -0.1826 -0.4510
   47MOL   C55231924   2.118   1.693   0.610  0.0663  0.5358 -0.0802
   47MOL   C55331925   2.154   1.755   0.744  0.1543  1.2889 -0.1376
   47MOL   C55431926   2.275   1.852   0.736 -0.0515  0.7275 -0.7907
   47MOL   C55531927   2.332   1.892   0.872  0.7433  0.0898 -0.1451
   47MOL   C55631928   2.456   1.978   0.866 -0.3683  0.0588  0.5437
   47MOL   C55731929   2.519   1.975   1.006 -0.5167 -0.4975  0.4243
   47MOL   O55831930   2.590   1.877   1.028 -0.4284 -0.8262 -0.4282
   47MOL   H55931931   1.704   1.181   0.146 -0.8257 -0.6918 -1.5900
   47MOL   H56031932   1.630   1.441   0.258  0.0438 -0.6757 -0.6735
   47MOL   H56131933   1.657   1.286   0.338  2.5269  1.8021  2.1697
   47MOL   H56231934   1.876   1.462   0.223  2.0070  1.0672  2.7322
   47MOL   H56331935   1.897   1.318   0.307  1.8052  1.8262 -0.3600
   47MOL   H56431936   1.737   1.529   0.460 -1.0514 -1.8127 -1.5907
   47MOL   H56531937   1.831   1.401   0.505  0.8384 -0.0648 -0.5497
   47MOL   H56631938   1.952   1.655   0.392 -1.5399  0.1873  0.2879
   47MOL   H56731939   2.040   1.504   0.423  0.2030 -0.2207  1.1583
   47MOL   H56831940   2.015   1.522   0.664  1.0351 -1.4979 -2.3929
   47MOL   H56931941   1.909   1.666   0.647  0.3596  0.2820 -1.2696
   47MOL   H57031942   2.198   1.627   0.578 -1.1707  0.3673 -3.0122
   47MOL   H57131943   2.114   1.771   0.534 -2.4586 -2.0805 -2.7884
   47MOL   H57231944   2.172   1.668   0.808 -3.1820  0.5976 -0.0333
   47MOL   H57331945   2.061   1.804   0.774 -0.9494 -0.3489 -0.8226
   47MOL   H57431946   2.355   1.796   0.688 -1.2722  0.0712 -2.0939
   47MOL   H57531947   2.243   1.939   0.679 -1.2991  0.6855 -0.1797
   47MOL   H57631948   2.354   1.811   0.942  0.0274  0.5851  0.6715
   47MOL   H57731949   2.248   1.950   0.911  0.4041 -1.3699  1.3142
   47MOL   H57831950   2.434   2.079   0.830 -0.1477 -0.2905 -0.5857
   47MOL   H57931951   2.524   1.935   0.793 -1.8059  0.4685 -1.0564
   47MOL   N58031952   2.484   2.071   1.097 -0.3335  0.1559 -0.0613
   47MOL   C58131953   2.517   2.073   1.241  0.2146 -0.5925  0.3289
   47MOL   C58231954   2.422   1.978   1.322 -0.0515  0.5025 -0.3617
   47MOL   C58331955   2.452   1.976   1.472  0.3192  0.0105 -0.0057
   47MOL   C58431956   2.364   1.887   1.556 -0.0220 -0.5983 -0.1953
   47MOL   C58531957   2.388   1.914   1.701 -0.4494  0.8117  0.3368
   47MOL   C58631958   2.306   1.827   1.801 -0.2594  0.3062  0.2627
   47MOL   C58731959   2.353   1.823   1.946  0.3312  0.0863 -0.1545
   47MOL   C58831960   2.260   1.738   2.021 -0.7023 -0.4599  0.0250
   47MOL   C58931961   2.289   1.726   2.167  0.8376 -0.3197 -0.0151
   47MOL   C59031962   2.242   1.841   2.254  0.5163 -0.6091 -0.5163
   47MOL   C59131963   2.320   1.841   2.386  0.0799 -0.1711  0.4394
   47MOL   O59231964   2.380   1.745   2.430 -0.0552 -0.5443  0.6346
   47MOL   H59331965   2.426   2.148   1.066  1.3745  0.8271 -1.7030
   47MOL   H59431966   2.620   2.038   1.246 -0.2026 -2.4135 -2.7860
   47MOL   H59531967   2.516   2.178   1.270  0.1583 -0.5959  0.3401
   47MOL   H59631968   2.415   1.877   1.281 -2.1355  1.4548 -2.4340
   47MOL   H59731969   2.321   2.015   1.310  0.3171  2.5057  2.3332
   47MOL   H59831970   2.556   1.975   1.506  0.3756 -1.9669 -0.2212
   47MOL   H59931971   2.428   2.079   1.499  1.0131 -0.3877  2.2790
   47MOL   H60031972   2.387   1.782   1.538  1.8255 -0.0173 -1.4233
   47MOL   H60131973   2.265   1.923   1.530  0.5147  1.1252  0.0916
   47MOL   H60231974   2.386   2.021   1.725 -0.4051  1.0076 -0.4918
   47MOL   H60331975   2.487   1.872   1.712 -0.1744  1.2683 -0.3262
   47MOL   H60431976   2.201   1.844   1.778  0.0818  0.0191 -1.6002
   47MOL   H60531977   2.308   1.723   1.767 -2.7310  1.0849 -2.4601
   47MOL   H60631978   2.347   1.923   1.989 -2.4247 -0.8551  1.8248
   47MOL   H60731979   2.457   1.792   1.960  0.3676  0.7492  1.1099
   47MOL   H60831980   2.154   1.762   2.009 -1.2558 -1.1029  3.2086
   47MOL   H60931981   2.269   1.639   1.976 -0.2777 -0.6831  0.6095
   47MOL   H61031982   2.397   1.713   2.179  0.8420  0.7725  1.2972
   47MOL   H61131983   2.246   1.636   2.210 -0.7620  0.8216  0.8138
   47MOL   H61231984   2.134   1.835   2.258  0.3984  0.2417 -1.8858
   47MOL   H61331985   2.263   1.934   2.200 -2.5056 -0.5858 -1.7488
   47MOL   N61431986   2.318   1.965   2.446  0.2836 -0.0937 -0.8092
   47MOL   C61531987   2.410   1.988   2.557 -0.3519 -0.0222  0.1483
   47MOL   C61631988   2.409   2.129   2.613 -0.3071  0.3472  0.2068
   47MOL   C61731989   2.515   2.143   2.721  0.1847 -0.0796  0.6359
   47MOL   C61831990   2.525   2.294   2.775  0.5776 -0.1064 -0.1962
   47MOL   C61931991   2.534   2.411   2.680  0.4399  0.0460 -0.1065
   47MOL   C62031992   2.664   2.409   2.593  0.5080  0.1090 -0.0084
   47MOL   C62131993   2.673   2.533   2.496 -0.3971 -0.4787 -0.6558
   47MOL   C62231994   2.803   2.533   2.410  0.4107  0.7760  0.0566
   47MOL   C62331995   2.790   2.652   2.313 -0.4853  0.1910 -0.2713
   47MOL   C62431996   2.697   2.620   2.198 -0.0514 -0.8118  0.5896
   47MOL   C62531997   2.695   2.713   2.082  0.0252  0.2764  0.5443
   47MOL   O62631998   2.754   2.822   2.082 -0.0619 -0.6017 -0.1293
   47MOL   H62731999   2.275   2.041   2.395  0.2446  0.0599 -0.5469
   47MOL   H62832000   2.505   1.962   2.512 -1.7566  0.0499 -2.9443
   47MOL   H62932001   2.394   1.907   2.628 -0.2698 -0.7644 -0.6742
   47MOL   H63032002   2.313   2.151   2.660  0.0938  0.8642  0.7873
   47MOL   H63132003   2.421   2.200   2.531  0.8660 -0.4792 -0.3446
   47MOL   H63232004   2.492   2.084   2.810 -2.1828 -0.4305 -0.1663
   47MOL   H63332005   2.617   2.121   2.692  0.4153  1.1826  0.4670
   47MOL   H63432006   2.608   2.300   2.846 -0.6042 -3.0868  1.5189
   47MOL   H63532007   2.445   2.305   2.848  0.0517 -2.4776 -0.3865
   47MOL   H63632008   2.545   2.497   2.747 -0.7154  0.3024 -0.2511
   47MOL   H63732009   2.438   2.431   2.633  0.5897 -0.7622 -0.7640
   47MOL   H63832010   2.743   2.420   2.667 -0.5534  0.9893  1.0095
   47MOL   H63932011   2.683   2.311   2.549  0.9472  0.4037 -0.4820
   47MOL   H64032012   2.684   2.617   2.565 -0.8121 -1.7412  0.9763
   47MOL   H64132013   2.580   2.534   2.440 -0.1199 -0.1444 -1.1179
   47MOL   H64232014   2.887   2.537   2.480  0.7236 -0.6777 -0.2268
   47MOL   H64332015   2.813   2.438   2.358 -2.1108 -0.3758  1.6085
   47MOL   H64432016   2.892   2.673   2.280 -0.1258 -3.6250 -1.9435
   47MOL   H64532017   2.758   2.739   2.369 -1.7732  0.1476 -0.9310
   47MOL   H64632018   2.595   2.617   2.237  0.3162  1.7640  1.7992
   47MOL   H64732019   2.721   2.517   2.171 -1.6385 -0.5319 -2.1296
   47MOL   N64832020   2.647   2.659   1.970 -0.1346  0.5351 -0.3534
   47MOL   C64932021   2.618   2.728   1.846 -0.0013  0.1604  0.4177
   47MOL   C65032022   2.509   2.667   1.759  0.5459 -0.2513 -0.7129
   47MOL   C65132023   2.506   2.728   1.623  0.6371  0.2061  0.9228
   47MOL   C65232024   2.614   2.680   1.520 -0.0948 -0.0543  0.3354
   47MOL   C65332025   2.647   2.527   1.516 -0.2485  0.1052  0.0396
   47MOL   C65432026   2.724   2.483   1.388  0.7677 -0.0147 -0.2276
   47MOL   C65532027   2.780   2.339   1.392 -0.0589 -0.2412  0.5303
   47MOL   C65632028   2.849   2.305   1.270 -0.6681 -0.2645 -0.0779
   47MOL   C65732029   2.917   2.161   1.272  0.8547  0.1700 -0.3103
   47MOL   C65832030   3.031   2.131   1.168  0.1258  0.1957  0.4040
   47MOL   C65932031   2.992   2.130   1.023  0.5355 -0.0638 -0.3325
   47MOL   O66032032   2.954   2.231   0.965 -0.1744  0.3285 -0.6806
   47MOL   H66132033   2.635   2.560   1.956  3.0695  0.1290 -0.6388
   47MOL   H66232034   2.705   2.739   1.782  0.4046 -1.8271  0.5854
   47MOL   H66332035   2.583   2.821   1.890  2.6433 -0.5109  4.1485
   47MOL   H66432036   2.419   2.685   1.818  2.0867 -0.8347  1.9200
   47MOL   H66532037   2.521   2.558   1.753  2.0287 -0.1857  0.8729
   47MOL   H66632038   2.407   2.714   1.580  0.5818  0.8182  0.8485
   47MOL   H66732039   2.506   2.837   1.629 -0.1864  0.1775  1.5492
   47MOL   H66832040   2.713   2.718   1.543  1.0892 -1.7532 -1.7623
   47MOL   H66932041   2.591   2.711   1.418  0.0917 -1.0852 -0.0348
   47MOL   H67032042   2.560   2.462   1.522  0.7363 -1.1807  0.5511
   47MOL   H67132043   2.704   2.503   1.605 -0.5447 -0.6931  0.0213
   47MOL   H67232044   2.664   2.489   1.298  0.4796  1.4041  0.0414
   47MOL   H67332045   2.810   2.548   1.372  1.9446 -1.9802 -2.1319
   47MOL   H67432046   2.704   2.261   1.400 -1.0859  0.7884  0.9012
   47MOL   H67532047   2.848   2.334   1.477 -1.4844  1.8129  1.8351
   47MOL   H67632048   2.787   2.314   1.181  0.8353  0.3486 -1.0861
   47MOL   H67732049   2.928   2.379   1.254 -1.3558  0.3169 -0.8189
   47MOL   H67832050   2.843   2.082   1.282  1.5787 -0.2106  2.2256
   47MOL   H67932051   2.969   2.155   1.368  1.9608  1.2306 -0.8260
   47MOL   H68032052   3.084   2.040   1.197 -0.1757 -0.3613 -0.7407
   47MOL   H68132053   3.102   2.213   1.169 -1.4337  1.5624  3.0147
   47MOL   H68232054   3.005   2.029   0.984 -0.3414 -0.2199 -0.2335
   48MOL     N132055   4.624   3.807   2.152  0.7336  0.3299 -0.0141
   48MOL     C232056   4.655   3.927   2.078 -0.8370 -0.3531  0.0480
   48MOL     C332057   4.789   3.908   2.013  0.8628 -0.2932  0.5404
   48MOL     C432058   4.839   4.021   1.925 -0.1058 -0.3743 -0.3191
   48MOL     C532059   4.991   4.000   1.893 -0.1750  0.5534 -0.3904
   48MOL     C632060   5.042   4.099   1.784 -0.3521 -0.0128  0.5978
   48MOL     C732061   5.194   4.100   1.769 -0.3097  0.3127  0.2802
   48MOL     C832062   5.225   4.206   1.665  0.0658  0.4833 -0.0831
   48MOL     C932063   5.379   4.215   1.626  0.8868  0.0415 -0.0271
   48MOL    C1032064   5.414   4.327   1.536  0.0545 -0.3235  0.0982
   48MOL    C1132065   5.537   4.412   1.571 -0.2650  0.1368  0.0550
   48MOL    C1232066   5.530   4.512   1.686 -0.2205 -0.1657 -0.6006
   48MOL    O1332067   5.629   4.575   1.718 -0.4038  0.2023 -0.9540
   48MOL    H1432068   4.580   3.837   2.238  1.4360  0.0229  0.4538
   48MOL    H1532069   4.657   4.017   2.140  1.2697 -0.1138 -0.3254
   48MOL    H1632070   4.577   3.949   2.005 -0.4510  2.2544  0.3751
   48MOL    H1732071   4.797   3.815   1.957 -3.3322 -1.3481  1.5162
   48MOL    H1832072   4.853   3.909   2.102  1.1699 -2.1003  0.3590
   48MOL    H1932073   4.776   4.031   1.836 -0.4487  0.5599  0.0278
   48MOL    H2032074   4.834   4.109   1.989  0.3684 -1.7185  1.6345
   48MOL    H2132075   5.019   3.896   1.872 -1.9430  0.0050 -0.1347
   48MOL    H2232076   5.038   4.002   1.991 -1.3779  0.9124  0.1842
   48MOL    H2332077   5.010   4.201   1.807 -0.3307 -0.1661  1.3025
   48MOL    H2432078   4.999   4.069   1.688  2.4594  1.8767 -1.3363
   48MOL    H2532079   5.245   4.115   1.864 -2.8864 -1.1679  1.9544
   48MOL    H2632080   5.221   3.996   1.752  1.7855  0.7631  0.7906
   48MOL    H2732081   5.173   4.295   1.702 -0.1543  0.5314 -0.5100
   48MOL    H2832082   5.172   4.188   1.572 -0.3976  0.9070  0.0983
   48MOL    H2932083   5.439   4.230   1.715 -1.2195 -0.3022  1.4894
   48MOL    H3032084   5.408   4.116   1.591 -0.2280  0.0642 -1.0559
   48MOL    H3132085   5.333   4.400   1.531  1.7565  1.7462  1.9513
   48MOL    H3232086   5.426   4.288   1.435  1.3133  1.1585 -0.3597
   48MOL    H3332087   5.536   4.477   1.484 -2.2612  0.3645  0.2275
   48MOL    H3432088   5.634   4.363   1.576  0.8929  1.9848 -3.1313
   48MOL    H3532089   4.557   3.748   2.105 -0.6260 -0.4462  2.8377
   48MOL    N3632090   5.411   4.523   1.751  0.3438 -0.2159 -0.2318
   48MOL    C3732091   5.377   4.607   1.866 -0.2768  0.2967  0.3762
   48MOL    C3832092   5.248   4.552   1.940 -0.5410 -0.3762  0.4412
   48MOL    C3932093   5.263   4.417   2.014 -0.0580 -0.5470  0.5755
   48MOL    C4032094   5.137   4.376   2.095 -0.1392 -0.2070  0.5144
   48MOL    C4132095   5.168   4.249   2.175  0.0372  0.1303  0.1120
   48MOL    C4232096   5.046   4.179   2.235 -0.2637  0.4769 -0.1088
   48MOL    C4332097   5.010   4.245   2.377 -0.3979  0.2615  0.1497
   48MOL    C4432098   4.881   4.195   2.441  0.1099 -0.5465 -0.6357
   48MOL    C4532099   4.758   4.231   2.363 -0.5154  0.1550  0.2439
   48MOL    C4632100   4.628   4.175   2.419  0.4375  0.3343 -0.0393
   48MOL    C4732101   4.579   4.245   2.554 -0.1259  0.3321  0.1133
   48MOL    O4832102   4.578   4.366   2.563  0.1898 -0.2868 -0.0574
   48MOL    H4932103   5.340   4.454   1.731  2.0563 -1.4576 -2.2317
   48MOL    H5032104   5.464   4.611   1.931  0.0792  1.2100 -0.1614
   48MOL    H5132105   5.370   4.712   1.841  1.9769  0.4857  0.4519
   48MOL    H5232106   5.170   4.548   1.863 -0.1943  2.0972 -0.0633
   48MOL    H5332107   5.199   4.626   2.003  2.5089  1.2112  1.0620
   48MOL    H5432108   5.307   4.346   1.945 -0.7998 -1.7389  1.2968
   48MOL    H5532109   5.342   4.424   2.088 -0.0340 -0.6237  0.5572
   48MOL    H5632110   5.058   4.378   2.020 -2.2580  1.1272  2.7178
   48MOL    H5732111   5.107   4.451   2.168 -0.9893  0.2884 -0.3324
   48MOL    H5832112   5.233   4.271   2.260 -0.0269 -0.0277  0.2012
   48MOL    H5932113   5.212   4.177   2.107  0.5610  1.0129 -0.4970
   48MOL    H6032114   4.962   4.183   2.166 -0.1505  1.1549 -0.2074
   48MOL    H6132115   5.073   4.074   2.237  1.3922  0.8135 -2.4695
   48MOL    H6232116   5.007   4.354   2.368  1.5713  0.2582 -0.7505
   48MOL    H6332117   5.092   4.213   2.441  1.0656 -0.6629 -2.1019
   48MOL    H6432118   4.902   4.089   2.455  2.3938 -0.0155  0.0679
   48MOL    H6532119   4.875   4.233   2.543 -1.3997 -2.0026 -0.1616
   48MOL    H6632120   4.759   4.184   2.265  1.3845 -0.1984  0.4144
   48MOL    H6732121   4.756   4.338   2.342 -4.1053  0.2421  0.7731
   48MOL    H6832122   4.628   4.067   2.431  0.4132  0.1978 -1.1728
   48MOL    H6932123   4.549   4.194   2.347 -0.4236 -1.5581  0.3771
   48MOL    N7032124   4.526   4.162   2.649  0.2292  0.1742 -0.2880
   48MOL    C7132125   4.454   4.207   2.769  0.0660 -0.2106 -0.0300
   48MOL    C7232126   4.319   4.139   2.797 -0.3234 -0.2691  0.1785
   48MOL    C7332127   4.261   4.165   2.935  0.4889 -0.1228  0.4059
   48MOL    C7432128   4.106   4.127   2.935 -0.2463 -0.3049  0.2692
   48MOL    C7532129   4.024   4.176   3.062 -0.2057  0.1180 -0.0116
   48MOL    C7632130   3.879   4.146   3.042 -0.0092 -0.4174  0.5184
   48MOL    C7732131   3.791   4.139   3.172  0.0937 -0.0439 -0.9319
   48MOL    C7832132   3.815   4.260   3.266 -0.1693  0.3681  0.5996
   48MOL    C7932133   3.726   4.256   3.387  0.2585  0.4591 -0.2143
   48MOL    C8032134   3.694   4.395   3.443 -0.3958  0.4922  0.2030
   48MOL    C8132135   3.591   4.402   3.558 -0.5581  0.2970 -0.2007
   48MOL    O8232136   3.550   4.299   3.613 -0.2495 -0.1444 -0.0625
   48MOL    H8332137   4.541   4.062   2.641 -0.7208 -0.1032  1.1501
   48MOL    H8432138   4.520   4.171   2.848  0.1626 -2.1132 -0.9473
   48MOL    H8532139   4.436   4.314   2.773 -1.5225 -0.5050  1.1150
   48MOL    H8632140   4.335   4.031   2.807  1.2814 -0.2152 -1.4254
   48MOL    H8732141   4.242   4.159   2.723 -0.4216 -3.0938 -0.5691
   48MOL    H8832142   4.311   4.117   3.019  2.0287  1.4749  0.4288
   48MOL    H8932143   4.256   4.271   2.961  0.2215 -0.0267 -0.0349
   48MOL    H9032144   4.101   4.019   2.917  0.0456 -0.3310  0.3506
   48MOL    H9132145   4.062   4.179   2.850 -1.6734  2.4649  2.6156
   48MOL    H9232146   4.042   4.282   3.081  0.0171 -0.1342  1.2069
   48MOL    H9332147   4.072   4.133   3.150  0.3583 -0.1444 -0.4473
   48MOL    H9432148   3.836   4.223   2.977 -0.5898 -2.1028 -1.1295
   48MOL    H9532149   3.861   4.054   2.986  0.6762 -1.2493  1.6452
   48MOL    H9632150   3.804   4.049   3.231  1.9381 -1.5006 -3.4699
   48MOL    H9732151   3.684   4.142   3.156 -0.0225 -0.5892 -0.2794
   48MOL    H9832152   3.916   4.253   3.307 -0.7907  1.7453  2.4543
   48MOL    H9932153   3.813   4.354   3.210 -2.9512  1.2501  2.0893
   48MOL   H10032154   3.770   4.204   3.473  0.5927  0.1548 -0.5707
   48MOL   H10132155   3.626   4.214   3.374 -0.5025  2.3352 -0.5813
   48MOL   H10232156   3.651   4.450   3.359  0.2447 -1.4906 -1.4821
   48MOL   H10332157   3.794   4.427   3.473 -0.2407 -0.0588  0.2836
   48MOL   N10432158   3.564   4.525   3.609 -0.3885 -0.1701  0.7588
   48MOL   C10532159   3.450   4.545   3.698  0.1579 -0.7884 -0.4026
   48MOL   C10632160   3.334   4.602   3.606  0.1714  0.3645 -0.1062
   48MOL   C10732161   3.383   4.733   3.533  0.4006  0.5154 -0.2515
   48MOL   C10832162   3.408   4.719   3.384  0.7031  0.5202  0.2565
   48MOL   C10932163   3.419   4.856   3.313  0.3091  0.0881  0.6559
   48MOL   C11032164   3.548   4.931   3.334 -0.5703 -0.3230  0.0296
   48MOL   C11132165   3.552   5.058   3.247  0.5155 -0.0590  0.6201
   48MOL   C11232166   3.687   5.143   3.232 -0.5540  0.4204  0.4748
   48MOL   C11332167   3.787   5.073   3.138  0.1212  0.4886 -0.1556
   48MOL   C11432168   3.911   5.156   3.114  0.3751 -0.4772 -0.0483
   48MOL   C11532169   4.023   5.132   3.210  0.8377  0.7586  0.1862
   48MOL   O11632170   4.043   5.025   3.268 -0.2088 -0.0830  0.2740
   48MOL   H11732171   3.605   4.601   3.557  1.2681  0.2240  2.5861
   48MOL   H11832172   3.415   4.455   3.749 -3.1739  1.5119  1.5248
   48MOL   H11932173   3.477   4.615   3.776 -0.9374 -1.3802  0.5177
   48MOL   H12032174   3.254   4.627   3.676 -0.4323  1.2570 -1.0964
   48MOL   H12132175   3.284   4.532   3.538  0.8847 -2.0836  1.8130
   48MOL   H12232176   3.309   4.813   3.531  0.8287  0.8741 -2.8195
   48MOL   H12332177   3.474   4.774   3.576  0.9808  0.2109 -1.1785
   48MOL   H12432178   3.321   4.671   3.340  1.8239 -2.1568  0.9039
   48MOL   H12532179   3.493   4.656   3.361 -0.2275 -0.9521  0.7806
   48MOL   H12632180   3.330   4.906   3.352  2.1891  1.5733  3.1828
   48MOL   H12732181   3.410   4.847   3.205 -2.2896  0.3370  0.8143
   48MOL   H12832182   3.553   4.960   3.439  1.5316  1.3392 -0.4905
   48MOL   H12932183   3.632   4.863   3.319  1.0088  1.0895  2.1293
   48MOL   H13032184   3.465   5.114   3.281  0.7106 -0.3604  1.6345
   48MOL   H13132185   3.525   5.028   3.146 -0.8077 -0.9260  1.2274
   48MOL   H13232186   3.667   5.242   3.190 -0.8927 -0.9305 -2.7259
   48MOL   H13332187   3.739   5.182   3.319 -0.5675  1.9776 -0.1962
   48MOL   H13432188   3.740   5.064   3.040  0.3713 -1.6569 -0.1033
   48MOL   H13532189   3.809   4.970   3.167  0.1351  0.7770  0.8871
   48MOL   H13632190   3.875   5.259   3.108 -0.8984 -0.9392 -0.7019
   48MOL   H13732191   3.952   5.129   3.017  1.2996  0.7916 -0.0131
   48MOL   N13832192   4.104   5.238   3.233  0.3851  0.0939 -0.5220
   48MOL   C13932193   4.215   5.243   3.334  0.1811  0.1545  0.9009
   48MOL   C14032194   4.218   5.393   3.389  0.4081  0.0548  0.2499
   48MOL   C14132195   4.090   5.443   3.470 -0.0555 -0.1306 -1.0243
   48MOL   C14232196   4.059   5.368   3.602 -0.5995 -0.2031 -0.5251
   48MOL   C14332197   3.949   5.424   3.689 -0.1550 -0.0566  0.5192
   48MOL   C14432198   3.915   5.360   3.824  0.2250  0.2991 -0.2910
   48MOL   C14532199   3.824   5.447   3.909 -0.7745  0.1882 -0.1731
   48MOL   C14632200   3.778   5.373   4.036  0.0739  0.0834  0.3579
   48MOL   C14732201   3.705   5.465   4.130  0.4569  0.5335  0.1088
   48MOL   C14832202   3.778   5.585   4.194 -0.3305 -0.1921  0.2346
   48MOL   C14932203   3.700   5.663   4.302 -0.3177  0.2833  0.7569
   48MOL   O15032204   3.588   5.628   4.330  0.5229 -0.3008 -0.3270
   48MOL   H15132205   4.080   5.329   3.196  0.2803  0.2365 -0.1071
   48MOL   H15232206   4.203   5.174   3.417 -0.9373  1.1867  1.6190
   48MOL   H15332207   4.310   5.222   3.284 -0.1692  0.8839 -0.0986
   48MOL   H15432208   4.242   5.460   3.306  0.7115 -0.3495  0.0093
   48MOL   H15532209   4.300   5.381   3.460  1.2561 -1.0130 -0.8925
   48MOL   H15632210   4.116   5.545   3.497 -1.1266  0.8986 -3.6905
   48MOL   H15732211   3.999   5.449   3.411 -1.0255  0.7995  0.5298
   48MOL   H15832212   4.156   5.349   3.647  0.1282  0.2028 -1.8871
   48MOL   H15932213   4.016   5.270   3.580  1.3354 -0.9829 -0.9646
   48MOL   H16032214   3.856   5.460   3.646 -1.0103 -3.5267 -0.7501
   48MOL   H16132215   3.981   5.523   3.722 -0.1692  0.1994 -0.2387
   48MOL   H16232216   3.860   5.267   3.808  2.0732 -1.0279  1.0232
   48MOL   H16332217   4.002   5.333   3.883  2.2897  0.4892 -3.1297
   48MOL   H16432218   3.738   5.476   3.848 -1.8116 -2.7568 -0.1573
   48MOL   H16532219   3.886   5.535   3.931 -0.7034  0.5982 -1.9457
   48MOL   H16632220   3.700   5.305   4.003 -2.0241  2.5423  0.0875
   48MOL   H16732221   3.850   5.307   4.084  1.0381  2.4790  2.2953
   48MOL   H16832222   3.653   5.404   4.204  0.8175  0.4834  0.3233
   48MOL   H16932223   3.621   5.504   4.073  1.9278  0.1945 -2.3472
   48MOL   H17032224   3.801   5.654   4.113  1.0956 -1.9905 -0.9268
   48MOL   H17132225   3.873   5.552   4.237  0.0103  0.5902  0.0983
   48MOL   N17232226   3.757   5.773   4.343 -0.4538  0.3346 -0.4230
   48MOL   C17332227   3.703   5.859   4.450 -0.5215 -0.1343 -0.6513
   48MOL   C17432228   3.811   5.909   4.545 -0.2072  0.2664 -0.0382
   48MOL   C17532229   3.742   5.945   4.675  0.2855 -0.3464  0.2068
   48MOL   C17632230   3.831   6.020   4.776  0.1577 -0.1377  0.0467
   48MOL   C17732231   3.932   5.922   4.841 -0.0633  0.5617  0.2112
   48MOL   C17832232   3.974   5.980   4.982  0.0484 -0.0775 -0.5633
   48MOL   C17932233   4.031   5.866   5.084 -1.1724 -0.1901 -0.5722
   48MOL   C18032234   4.047   5.920   5.231  0.5013  0.3462 -0.3992
   48MOL   C18132235   4.103   5.810   5.329  0.3787  0.5249  0.0592
   48MOL   C18232236   4.185   5.863   5.449  0.0276 -0.0415  0.4305
   48MOL   C18332237   4.331   5.842   5.435  0.1243 -0.5354  0.2929
   48MOL   O18432238   4.389   5.836   5.326 -0.1044 -0.4552 -0.0945
   48MOL   H18532239   3.855   5.781   4.320 -0.3048  0.3907  0.2359
   48MOL   H18632240   3.654   5.942   4.399  0.2374  1.3994  1.0389
   48MOL   H18732241   3.616   5.815   4.499  0.1935  0.2797  1.0048
   48MOL   H18832242   3.863   5.992   4.498 -1.5912  1.5779  0.6867
   48MOL   H18932243   3.882   5.828   4.560  0.3941  0.7260 -0.3662
   48MOL   H19032244   3.654   6.008   4.665  0.4541 -0.2739 -0.9481
   48MOL   H19132245   3.702   5.855   4.721 -0.6519  2.0675  4.3281
   48MOL   H19232246   3.764   6.064   4.850  0.2850  0.2510 -0.0662
   48MOL   H19332247   3.875   6.106   4.725 -0.4966 -0.9130 -1.8823
   48MOL   H19432248   4.024   5.904   4.786 -0.5741 -1.4697 -0.0238
   48MOL   H19532249   3.895   5.821   4.860 -1.6796  1.0249 -0.3400
   48MOL   H19632250   4.050   6.057   4.968  0.0973 -0.2054 -1.0217
   48MOL   H19732251   3.894   6.030   5.037  0.7191 -1.1560  1.4480
   48MOL   H19832252   4.125   5.824   5.049  0.5612  3.9845 -1.2983
   48MOL   H19932253   3.967   5.779   5.093 -2.5957  0.7979 -1.0623
   48MOL   H20032254   4.098   6.015   5.221  2.4389 -0.6236 -0.0428
   48MOL   H20132255   3.947   5.945   5.265  0.8705 -0.3797  1.2874
   48MOL   H20232256   4.153   5.723   5.287  0.1076  0.9287 -1.1411
   48MOL   H20332257   4.017   5.754   5.367 -0.2963  1.3371 -0.2349
   48MOL   H20432258   4.161   5.816   5.544 -0.8275  1.6158  1.0379
   48MOL   H20532259   4.174   5.971   5.454  1.7628  0.1915 -0.4827
   48MOL   N20632260   4.393   5.834   5.555  0.4071  0.6313 -0.2498
   48MOL   C20732261   4.539   5.822   5.568 -0.2846 -0.5735  1.0783
   48MOL   C20832262   4.592   5.901   5.682 -0.3732  0.0049 -0.3751
   48MOL   C20932263   4.748   5.895   5.696 -0.0648 -0.5483  0.0151
   48MOL   C21032264   4.823   5.980   5.598 -0.4842 -0.2925 -0.6755
   48MOL   C21132265   4.979   5.980   5.619  0.0957 -0.4785  0.6331
   48MOL   C21232266   5.046   5.845   5.593  0.1316 -0.3820 -0.2042
   48MOL   C21332267   5.202   5.856   5.595  0.4806 -0.5876 -0.2693
   48MOL   C21432268   5.277   5.891   5.468  0.4392 -0.0957 -0.0063
   48MOL   C21532269   5.427   5.867   5.487  0.1162 -0.0497  0.2838
   48MOL   C21632270   5.502   5.928   5.611  0.8129 -0.0688 -0.2479
   48MOL   C21732271   5.513   6.079   5.619  0.2205  0.3005  0.2475
   48MOL   O21832272   5.403   6.130   5.602  0.0578  0.0404 -0.6115
   48MOL   H21932273   4.344   5.827   5.643  0.1540  2.5997 -0.2120
   48MOL   H22032274   4.582   5.849   5.472  0.6392  0.8690  1.8864
   48MOL   H22132275   4.555   5.714   5.577 -3.9610 -0.9250  5.5556
   48MOL   H22232276   4.550   5.864   5.775 -0.7016  2.1263  0.3451
   48MOL   H22332277   4.557   6.004   5.691  1.6039  0.6768 -0.0918
   48MOL   H22432278   4.766   5.917   5.802  0.2558 -1.8828  0.2513
   48MOL   H22532279   4.792   5.795   5.686  1.8786  0.3448 -0.5572
   48MOL   H22632280   4.781   6.080   5.595  1.3484  0.4451 -2.5243
   48MOL   H22732281   4.805   5.936   5.500 -1.7104  1.1700 -1.1089
   48MOL   H22832282   5.001   6.014   5.720  1.2140 -0.4279  0.3830
   48MOL   H22932283   5.023   6.062   5.562 -0.3053 -1.1322 -0.6558
   48MOL   H23032284   5.014   5.783   5.676 -1.2763 -0.2471 -0.6236
   48MOL   H23132285   5.012   5.802   5.499 -0.4272 -1.8622  0.6722
   48MOL   H23232286   5.232   5.757   5.629 -0.4824 -1.2676 -1.3599
   48MOL   H23332287   5.224   5.922   5.679 -0.4337 -1.3295  0.5615
   48MOL   H23432288   5.240   5.820   5.395  0.8822  0.7748 -1.0937
   48MOL   H23532289   5.248   5.988   5.428  2.4455  0.0491 -1.1777
   48MOL   H23632290   5.487   5.911   5.408 -0.4495 -0.2569 -0.2589
   48MOL   H23732291   5.445   5.759   5.485  0.7509  0.0099  1.5939
   48MOL   H23832292   5.605   5.894   5.614  1.6591  2.2480 -1.4893
   48MOL   H23932293   5.451   5.895   5.701  1.3630 -1.2266 -0.3591
   48MOL   N24032294   5.625   6.148   5.635 -0.1410  0.4505 -0.4997
   48MOL   C24132295   5.636   6.295   5.635 -0.4731  0.0567 -0.1808
   48MOL   C24232296   5.745   6.330   5.530  0.6628 -0.6561  0.2850
   48MOL   C24332297   5.769   6.487   5.520  0.1638  0.0831  0.6778
   48MOL   C24432298   5.899   6.522   5.446 -0.1516 -0.7541  0.5407
   48MOL   C24532299   5.944   6.664   5.470 -0.3518 -0.2334  0.0785
   48MOL   C24632300   6.083   6.688   5.412  0.0329 -0.0380  0.0138
   48MOL   C24732301   6.126   6.834   5.422  0.2401 -0.6689  0.1485
   48MOL   C24832302   6.262   6.872   5.371 -0.0738 -0.0677 -0.0336
   48MOL   C24932303   6.266   7.023   5.332 -0.5188  0.3851 -0.1695
   48MOL   C25032304   6.251   7.127   5.440  0.7488 -1.0976 -0.0531
   48MOL   C25132305   6.375   7.150   5.528  1.0186 -0.5006  0.1158
   48MOL   O25232306   6.474   7.191   5.467 -0.2855 -0.2125  0.5569
   48MOL   H25332307   5.703   6.085   5.640 -1.8372 -1.6401  0.4421
   48MOL   H25432308   5.651   6.329   5.737  0.0366 -1.2352  0.1969
   48MOL   H25532309   5.543   6.340   5.602 -0.5396  2.1571  2.7351
   48MOL   H25632310   5.716   6.279   5.438 -0.9700  1.2208 -0.2703
   48MOL   H25732311   5.840   6.280   5.550  1.5366  0.6112 -0.6074
   48MOL   H25832312   5.684   6.549   5.490  0.4242  0.7120  1.2311
   48MOL   H25932313   5.792   6.512   5.623 -2.1106  0.2621  1.1767
   48MOL   H26032314   5.899   6.493   5.341 -0.2201 -0.7789  0.5485
   48MOL   H26132315   5.971   6.453   5.488 -0.7687 -1.6203  0.1797
   48MOL   H26232316   5.949   6.688   5.576 -0.9256 -0.0648  0.0714
   48MOL   H26332317   5.876   6.735   5.421 -2.4763 -1.7712  0.7502
   48MOL   H26432318   6.139   6.607   5.458  1.2297  0.7153 -0.0724
   48MOL   H26532319   6.100   6.659   5.308  0.1571 -0.2423  0.0902
   48MOL   H26632320   6.116   6.876   5.523 -1.0699 -1.1108  0.2013
   48MOL   H26732321   6.061   6.899   5.364  1.4272  2.1147  1.8139
   48MOL   H26832322   6.340   6.857   5.445 -0.1360 -0.7171 -0.0982
   48MOL   H26932323   6.286   6.808   5.287  1.8435 -0.3266  0.6719
   48MOL   H27032324   6.194   7.044   5.252  0.8099  2.4616 -0.8598
   48MOL   H27132325   6.363   7.042   5.287 -0.0024 -2.9145 -0.6211
   48MOL   H27232326   6.159   7.119   5.497  1.0659  1.3396  0.8789
   48MOL   H27332327   6.240   7.219   5.381 -1.8103 -1.9010 -0.8895
   48MOL   N27432328   6.376   7.127   5.661 -0.4470 -0.8740  0.0316
   48MOL   C27532329   6.274   7.078   5.757  0.1967  0.2444  0.3881
   48MOL   C27632330   6.197   7.187   5.822 -1.1473 -0.3052 -0.6018
   48MOL   C27732331   6.117   7.276   5.725  0.2480 -0.5401 -0.1522
   48MOL   C27832332   6.085   7.415   5.773 -1.1360 -0.6406  0.2362
   48MOL   C27932333   6.001   7.482   5.668  0.3740  0.2329 -0.7717
   48MOL   C28032334   5.955   7.631   5.696 -0.3335  0.5039  0.8179
   48MOL   C28132335   6.054   0.022   5.639 -0.3521  0.1207  0.2615
   48MOL   C28232336   6.015   0.156   5.692  0.6636 -0.2929 -1.4720
   48MOL   C28332337   5.894   0.228   5.623 -0.3832  0.0671  0.3100
   48MOL   C28432338   5.890   0.373   5.656  0.4429 -0.2948 -0.4482
   48MOL   C28532339   5.848   0.416   5.798 -0.6255  0.0637  0.1408
   48MOL   O28632340   5.749   0.369   5.845  0.2562  0.3892  0.2487
   48MOL   H28732341   6.471   7.122   5.695 -0.4147 -1.0110 -0.0833
   48MOL   H28832342   6.325   7.019   5.832 -0.9059 -1.0470  0.1365
   48MOL   H28932343   6.203   7.007   5.714  0.8843 -0.8663  1.0701
   48MOL   H29032344   6.265   7.254   5.875 -0.4771 -1.8005  0.4685
   48MOL   H29132345   6.143   7.145   5.907 -0.2415  2.0448  1.2042
   48MOL   H29232346   6.175   7.295   5.635  0.1832  2.6266  0.4146
   48MOL   H29332347   6.028   7.219   5.697 -0.4524  1.0426 -1.2503
   48MOL   H29432348   6.175   7.473   5.795 -1.5563 -0.5865  1.8741
   48MOL   H29532349   6.032   7.405   5.868  1.1180  0.1441  1.6249
   48MOL   H29632350   5.909   7.425   5.660  0.4648 -0.0655  0.1748
   48MOL   H29732351   6.048   7.468   5.571 -0.3979 -0.1883 -1.0855
   48MOL   H29832352   5.856   7.648   5.654  0.1115 -1.0423 -0.9480
   48MOL   H29932353   5.946   7.637   5.804  0.0845 -1.4232  0.9774
   48MOL   H30032354   6.052   0.009   5.531  2.6096 -0.8976  0.2868
   48MOL   H30132355   6.157   7.715   5.668  0.3549  1.6841 -0.9607
   48MOL   H30232356   6.002   0.143   5.799  1.9814  0.6125 -1.1874
   48MOL   H30332357   6.105   0.218   5.688  0.0502  0.5697 -1.9629
   48MOL   H30432358   5.799   0.179   5.647  0.8278 -1.1647  2.8493
   48MOL   H30532359   5.897   0.229   5.514 -1.7181 -3.0417  0.2002
   48MOL   H30632360   5.813   0.410   5.589  0.5886  1.0039  0.0769
   48MOL   H30732361   5.987   0.412   5.625  0.6234 -1.4084 -1.3145
   48MOL   N30832362   5.917   0.512   5.862  0.5774 -0.2914  0.2920
   48MOL   C30932363   5.896   0.559   5.997 -0.3449 -0.3854 -0.9682
   48MOL   C31032364   5.806   0.680   5.998  0.6289 -0.3073 -0.7788
   48MOL   C31132365   5.746   0.736   6.132 -0.3910  0.3570  0.2448
   48MOL   C31232366   5.618   0.663   6.178  0.4861  0.1172  0.1952
   48MOL   C31332367   5.558   0.717   6.310  0.5537  0.0107 -0.3521
   48MOL   C31432368   5.437   0.630   6.343 -0.1005 -0.7209 -0.3093
   48MOL   C31532369   5.362   0.680   6.461 -0.2426 -0.7530 -0.2434
   48MOL   C31632370   5.221   0.612   6.475 -0.3780 -0.4131 -0.0115
   48MOL   C31732371   5.157   0.621   6.615 -0.5130  0.1862 -0.3854
   48MOL   C31832372   5.020   0.553   6.626 -0.1741 -0.4959  0.2206
   48MOL   C31932373   4.892   0.630   6.599  0.5575 -0.1565 -0.1782
   48MOL   O32032374   4.883   0.733   6.530  0.8375  0.1798 -0.6403
   48MOL   H32132375   5.991   0.563   5.816  0.4108 -1.8102 -1.6989
   48MOL   H32232376   5.997   0.578   6.031 -0.3153 -0.8443 -0.7949
   48MOL   H32332377   5.858   0.476   6.056 -1.1529 -0.7387 -1.9556
   48MOL   H32432378   5.722   0.665   5.929  0.6187 -0.9759 -0.6201
   48MOL   H32532379   5.857   0.767   5.956 -1.9509  1.1240 -1.1281
   48MOL   H32632380   5.825   0.736   6.208 -0.6375  1.3865  0.4983
   48MOL   H32732381   5.731   0.843   6.118 -0.0738  0.2582 -0.8983
   48MOL   H32832382   5.633   0.556   6.188 -2.8261 -0.3450  0.7559
   48MOL   H32932383   5.542   0.675   6.100 -1.2990  2.7062  2.2005
   48MOL   H33032384   5.517   0.817   6.302  0.9765  0.3035  0.9920
   48MOL   H33132385   5.632   0.721   6.390 -1.2815 -0.1685  1.4109
   48MOL   H33232386   5.372   0.648   6.258 -0.9474 -0.6807  0.3402
   48MOL   H33332387   5.454   0.522   6.352 -1.0345 -0.7436  1.3550
   48MOL   H33432388   5.339   0.786   6.453 -2.0691 -0.8877  2.4750
   48MOL   H33532389   5.427   0.666   6.548  2.3553 -1.7098 -2.2602
   48MOL   H33632390   5.159   0.654   6.396 -0.4532 -0.6867 -0.0990
   48MOL   H33732391   5.228   0.508   6.444  0.6118 -0.0419 -1.0696
   48MOL   H33832392   5.150   0.723   6.654  2.7067  0.1125  0.5608
   48MOL   H33932393   5.228   0.568   6.679 -1.2006  0.5938  0.7410
   48MOL   H34032394   5.018   0.536   6.734  0.3194 -3.3161 -0.1800
   48MOL   H34132395   5.021   0.456   6.576 -2.0132  0.5806 -1.9936
   48MOL   N34232396   4.786   0.592   6.662  0.4946 -0.7989 -0.2180
   48MOL   C34332397   4.647   0.642   6.647  0.2962  0.1752  0.5520
   48MOL   C34432398   4.546   0.577   6.743  0.1765  0.8061  0.1955
   48MOL   C34532399   4.399   0.599   6.699 -0.9429 -0.3808  0.2032
   48MOL   C34632400   4.309   0.528   6.801 -0.3634 -0.1025  0.5192
   48MOL   C34732401   4.288   0.617   6.928 -0.1009  0.3438  0.5018
   48MOL   C34832402   4.200   0.563   7.031 -0.6609 -0.4385 -0.7024
   48MOL   C34932403   4.221   0.642   7.162 -0.3167 -0.4810 -0.5267
   48MOL   C35032404   4.149   0.582   7.285 -0.7427 -0.0350  0.2614
   48MOL   C35132405   4.161   0.685   7.400 -0.3318 -0.8131 -0.2241
   48MOL   C35232406   4.127   0.631   7.539 -0.0970  0.1764  0.9418
   48MOL   C35332407   4.195   0.708   7.649  0.5990  0.5458  0.3382
   48MOL   O35432408   4.310   0.685   7.692 -0.2633 -0.2231  0.8729
   48MOL   H35532409   4.814   0.526   6.734  2.7695  0.9351  0.5473
   48MOL   H35632410   4.637   0.751   6.652  1.8161  0.3102  0.8822
   48MOL   H35732411   4.616   0.608   6.548 -1.8213 -1.0012  1.5890
   48MOL   H35832412   4.564   0.613   6.845  1.4106  2.7417 -0.6752
   48MOL   H35932413   4.556   0.468   6.742 -0.9762  0.6787 -2.3396
   48MOL   H36032414   4.376   0.705   6.682 -0.2496 -0.4006 -0.9205
   48MOL   H36132415   4.392   0.542   6.607  1.3131 -0.8366  0.2880
   48MOL   H36232416   4.335   0.428   6.837 -0.2868  0.8731  3.3457
   48MOL   H36332417   4.208   0.527   6.759  0.5291 -0.0465 -1.6587
   48MOL   H36432418   4.242   0.712   6.901 -2.4676 -1.1071 -0.7701
   48MOL   H36532419   4.384   0.633   6.977  0.6374 -2.1991 -0.0317
   48MOL   H36632420   4.097   0.559   6.998 -0.5993 -1.1508 -0.8181
   48MOL   H36732421   4.225   0.462   7.064  1.7822 -0.3449 -2.1480
   48MOL   H36832422   4.169   0.738   7.154 -3.7034 -2.1771  0.0167
   48MOL   H36932423   4.328   0.651   7.179 -0.6568  1.7870  0.6402
   48MOL   H37032424   4.044   0.580   7.255 -0.9620  3.4688  0.6262
   48MOL   H37132425   4.170   0.478   7.309  1.4006  0.3187  0.0525
   48MOL   H37232426   4.107   0.773   7.366 -0.3898 -0.3098  1.1377
   48MOL   H37332427   4.262   0.724   7.409 -0.5994 -0.2146  0.2221
   48MOL   H37432428   4.139   0.524   7.554  1.0821  0.2008  0.2512
   48MOL   H37532429   4.019   0.641   7.552 -0.1089  0.6925  0.4884
   48MOL   N37632430   4.119   0.811   7.701 -0.2913  0.1072 -0.0364
   48MOL   C37732431   4.177   0.910   0.077 -0.2353  0.0182 -0.9365
   48MOL   C37832432   4.102   1.045   0.054 -0.2502  0.1129  0.2062
   48MOL   C37932433   4.120   1.139   0.178 -0.3660  0.0515 -0.2666
   48MOL   C38032434   4.028   1.262   0.161 -0.7126  0.4461 -0.0140
   48MOL   C38132435   4.054   1.364   0.274  0.4672  0.1997  0.2584
   48MOL   C38232436   3.981   1.490   0.248  0.4446  0.6908  0.0440
   48MOL   C38332437   4.035   1.585   0.137  0.3468 -0.1845  0.3573
   48MOL   C38432438   3.924   1.688   0.097 -0.1039 -0.4609 -0.6782
   48MOL   C38532439   3.973   1.767   7.689  0.8312  0.3849 -0.1775
   48MOL   C38632440   4.044   1.901   0.011  0.4978  0.2728  0.1353
   48MOL   C38732441   4.084   1.975   7.600 -0.2733 -0.2981  0.2158
   48MOL   O38832442   4.027   1.955   7.488 -0.2800 -0.6026 -0.3296
   48MOL   H38932443   4.027   0.833   7.667 -0.4680 -1.0944 -0.3488
   48MOL   H39032444   4.153   0.875   0.178 -0.9713  2.7509 -0.1331
   48MOL   H39132445   4.285   0.914   0.066  0.0596 -3.4447  0.0771
   48MOL   H39232446   3.998   1.022   0.032 -0.1259  0.5373 -0.8603
   48MOL   H39332447   4.140   1.096   7.681 -1.5333  1.0437  0.1845
   48MOL   H39432448   4.091   1.081   0.265  1.5045 -1.6330 -0.7291
   48MOL   H39532449   4.223   1.175   0.190  0.0722 -0.1980 -3.0467
   48MOL   H39632450   3.922   1.235   0.164 -0.4720 -0.6018 -0.9187
   48MOL   H39732451   4.051   1.310   0.066 -0.4670 -0.6629 -0.5159
   48MOL   H39832452   4.157   1.397   0.263  0.5828 -0.8550 -1.9515
   48MOL   H39932453   4.028   1.320   0.371 -0.5832 -0.9034 -0.5121
   48MOL   H40032454   3.880   1.465   0.215  0.0845  0.1243  1.5226
   48MOL   H40132455   3.961   1.551   0.336 -2.3619  0.2791 -0.2385
   48MOL   H40232456   4.049   1.522   0.048 -2.0071 -0.9612  0.5078
   48MOL   H40332457   4.131   1.628   0.167  1.8918 -2.4305 -1.1776
   48MOL   H40432458   3.830   1.647   0.060 -0.6470  1.1827 -1.1627
   48MOL   H40532459   3.911   1.745   0.188  1.5264 -1.7575  0.3884
   48MOL   H40632460   3.880   1.791   7.639 -0.7472 -2.7110  1.1060
   48MOL   H40732461   4.035   1.704   7.625 -1.2652  0.1859 -2.0731
   48MOL   H40832462   4.128   1.875   0.076 -0.3536 -1.6556  0.4980
   48MOL   H40932463   3.977   1.969   0.062  1.9458  0.6576  1.5584
   48MOL   N41032464   4.176   2.073   7.606 -0.1506 -0.2415  0.0562
   48MOL   C41132465   4.220   2.151   7.491  0.6176 -0.1101 -0.0561
   48MOL   C41232466   4.326   2.074   7.395  0.1016  0.7043  0.2256
   48MOL   C41332467   4.358   2.133   7.260  0.1893  0.0678  0.6495
   48MOL   C41432468   4.409   2.280   7.274  0.2844  0.5369 -0.1412
   48MOL   C41532469   4.550   2.288   7.341 -0.0927  0.0801  0.0715
   48MOL   C41632470   4.624   2.419   7.328  0.1619 -0.0247 -0.3531
   48MOL   C41732471   4.752   2.405   7.399  0.5712 -0.0140 -0.1452
   48MOL   C41832472   4.819   2.539   7.423 -0.6996 -0.3977  0.5109
   48MOL   C41932473   4.963   2.524   7.463 -0.3143  0.4313 -0.3696
   48MOL   C42032474   4.985   2.480   7.610 -0.1984  0.3472 -0.7063
   48MOL   C42132475   5.129   2.493   7.665 -0.1962 -0.0311  0.5997
   48MOL   O42232476   5.218   2.494   7.581 -0.0141 -0.1838 -0.2808
   48MOL   H42332477   4.226   2.083   7.694  2.6720  0.0548 -1.5019
   48MOL   H42432478   4.139   2.183   7.425  2.3193  1.3997 -1.4529
   48MOL   H42532479   4.275   2.238   7.525  1.8634 -1.0207  0.2801
   48MOL   H42632480   4.287   1.974   7.374  0.4966  1.0292 -2.1728
   48MOL   H42732481   4.418   2.053   7.448 -0.4865 -0.4430  0.8289
   48MOL   H42832482   4.427   2.067   7.209 -0.6427 -0.1686 -0.1850
   48MOL   H42932483   4.269   2.141   7.197  0.6668  4.8551  0.3809
   48MOL   H43032484   4.334   2.351   7.307 -0.3357 -0.4037  0.4742
   48MOL   H43132485   4.416   2.322   7.173 -0.6466  1.2465  0.0879
   48MOL   H43232486   4.610   2.207   7.301  0.4599 -1.2005  3.3592
   48MOL   H43332487   4.548   2.274   7.449  0.1533  1.4579  0.2732
   48MOL   H43432488   4.644   2.437   7.222  2.4399 -0.1804  0.0168
   48MOL   H43532489   4.568   2.508   7.357  1.1024  0.1087  1.1331
   48MOL   H43632490   4.828   2.344   7.351  3.1723  2.9607 -0.0373
   48MOL   H43732491   4.737   2.368   7.501 -1.1436  0.4759 -0.2145
   48MOL   H43832492   4.825   2.598   7.331 -1.6354 -1.0736  0.0086
   48MOL   H43932493   4.774   2.604   7.498 -0.2096  0.3962  0.1324
   48MOL   H44032494   4.997   2.628   7.464 -0.5274  0.5001  0.4739
   48MOL   H44132495   5.012   2.458   7.392 -2.0084 -2.1548  0.7789
   48MOL   H44232496   4.965   2.373   7.619 -0.0203  0.2063 -1.8756
   48MOL   H44332497   4.912   2.539   7.665 -0.3854 -0.1580 -0.4108
   48MOL   N44432498   5.144   2.489   0.083 -0.1433 -0.5258  0.0241
   48MOL   C44532499   5.267   2.500   0.150 -0.4415 -0.4622 -0.5478
   48MOL   C44632500   5.247   2.539   0.303  0.6398 -0.6544  0.1865
   48MOL   C44732501   5.366   2.514   0.390  0.0720  0.2189 -0.6475
   48MOL   C44832502   5.322   2.521   0.539  0.3041 -0.3837 -0.0110
   48MOL   C44932503   5.271   2.382   0.581 -0.2983  0.4033  0.9856
   48MOL   C45032504   5.171   2.394   0.699 -0.0333  0.0267  0.0604
   48MOL   C45132505   5.048   2.489   0.680  0.3256 -0.4080 -0.6191
   48MOL   C45232506   4.963   2.457   0.564  0.3734  0.6961 -0.7711
   48MOL   C45332507   4.866   2.572   0.535 -0.2924 -0.7379 -0.2881
   48MOL   C45432508   4.754   2.548   0.437 -0.5117 -0.1231  1.6074
   48MOL   C45532509   4.779   2.472   0.310  0.1592 -0.5532  0.5903
   48MOL   O45632510   4.879   2.490   0.246 -0.7178  0.2737 -0.6755
   48MOL   H45732511   5.058   2.478   0.134  0.0510  0.9805  0.7113
   48MOL   H45832512   5.307   2.399   0.144 -3.9560 -2.2095  2.7402
   48MOL   H45932513   5.335   2.572   0.105 -0.8763  0.3111  0.0400
   48MOL   H46032514   5.157   2.486   0.333 -1.1580  1.5974 -1.0671
   48MOL   H46132515   5.216   2.643   0.316  1.1538 -0.7758  2.6667
   48MOL   H46232516   5.417   2.421   0.366 -2.4266 -0.4821 -3.4373
   48MOL   H46332517   5.437   2.594   0.368  0.5200 -0.5411 -2.0148
   48MOL   H46432518   5.249   2.601   0.545 -0.0154 -0.6544 -0.2317
   48MOL   H46532519   5.406   2.544   0.604 -1.2018  2.6292  0.9297
   48MOL   H46632520   5.349   2.306   0.595  1.2302  1.4624 -1.5080
   48MOL   H46732521   5.213   2.329   0.506  0.9863  0.6687 -0.2045
   48MOL   H46832522   5.126   2.297   0.722 -0.0995  0.0846  0.1733
   48MOL   H46932523   5.225   2.420   0.789  1.6659 -2.0700 -0.3096
   48MOL   H47032524   5.077   2.594   0.668 -1.5678  0.0537 -1.3008
   48MOL   H47132525   4.978   2.493   0.763  0.8610  1.9328 -0.2363
   48MOL   H47232526   5.023   2.436   0.476 -0.9982 -1.7362 -1.1469
   48MOL   H47332527   4.906   2.367   0.587 -0.4117  1.1398 -0.9681
   48MOL   H47432528   4.916   2.664   0.503 -0.7157  0.1587  1.5706
   48MOL   H47532529   4.829   2.603   0.632  0.2142  1.6870 -0.8187
   48MOL   H47632530   4.711   2.643   0.407 -0.2435 -0.1385  1.1679
   48MOL   H47732531   4.681   2.484   0.487  1.3142 -2.6293  1.1810
   48MOL   N47832532   4.680   2.388   0.268  1.1234 -0.0878  0.4759
   48MOL   C47932533   4.682   2.309   0.150 -0.2278 -0.0235  0.3729
   48MOL   C48032534   4.602   2.373   0.036  0.0176  0.4456  0.0309
   48MOL   C48132535   4.465   2.415   0.081  0.1190 -0.3297 -1.0604
   48MOL   C48232536   4.381   2.475   7.692 -0.8454 -0.3119 -0.5889
   48MOL   C48332537   4.428   2.610   7.637  0.4761  0.7055  0.3026
   48MOL   C48432538   4.404   2.745   7.701 -0.4920  0.6753  0.5051
   48MOL   C48532539   4.507   2.783   0.100  0.2231 -0.5757  0.1642
   48MOL   C48632540   4.648   2.765   0.046  0.4796  0.2744  0.1422
   48MOL   C48732541   4.746   2.843   0.131 -0.0904 -0.1087  0.3313
   48MOL   C48832542   4.893   2.804   0.119 -0.6556 -0.3386  0.0518
   48MOL   C48932543   4.957   2.850   7.704 -0.3838 -0.0869 -0.0682
   48MOL   O49032544   4.892   2.889   7.610 -0.0072  1.0434 -0.2771
   48MOL   H49132545   4.596   2.378   0.323  2.2936 -0.5122  2.2517
   48MOL   H49232546   4.783   2.278   0.122  0.3915  0.0456  2.5049
   48MOL   H49332547   4.629   2.218   0.176 -1.5231  0.0686 -1.7891
   48MOL   H49432548   4.598   2.317   7.658  0.2340 -0.0761  0.3326
   48MOL   H49532549   4.655   2.463   0.002 -0.5475  0.5322 -0.6401
   48MOL   H49632550   4.403   2.333   0.117  0.7444 -0.9673 -1.4050
   48MOL   H49732551   4.460   2.486   0.164 -0.3068 -0.2663 -1.1406
   48MOL   H49832552   4.276   2.483   0.007 -0.1678 -0.6659  1.9121
   48MOL   H49932553   4.379   2.412   7.603  1.5949  2.3467 -2.6364
   48MOL   H50032554   4.369   2.621   7.546  1.2820 -1.1008 -0.4568
   48MOL   H50132555   4.531   2.606   7.604 -0.2496  0.6401 -2.0352
   48MOL   H50232556   4.392   2.826   7.628  1.5695  0.5932  0.0384
   48MOL   H50332557   4.314   2.736   0.046  0.6186 -1.1579  1.8966
   48MOL   H50432558   4.489   2.725   0.190  0.4055 -3.0402 -1.3405
   48MOL   H50532559   4.489   2.888   0.122 -3.3955 -0.7421 -1.5897
   48MOL   H50632560   4.680   2.661   0.056 -0.3465  0.1217  1.4044
   48MOL   H50732561   4.665   2.787   7.657 -0.2775  1.7801  0.3266
   48MOL   H50832562   4.711   2.851   0.234  0.1508  1.0922  0.3347
   48MOL   H50932563   4.731   2.948   0.104 -2.2346 -0.4884 -0.0030
   48MOL   H51032564   4.899   2.696   0.132  1.9648  0.0574  2.7554
   48MOL   H51132565   4.949   2.854   0.198 -1.5371 -1.2878  1.3109
   48MOL   N51232566   5.095   2.851   7.700 -0.1708  0.1771 -0.1218
   48MOL   C51332567   5.166   2.875   7.572  0.3469  0.2639 -0.1268
   48MOL   C51432568   5.312   2.827   7.579 -0.4976 -0.1425 -0.0687
   48MOL   C51532569   5.397   2.872   7.460  0.2296 -0.0811  0.1683
   48MOL   C51632570   5.339   2.869   7.322  0.5156 -0.5988 -0.0768
   48MOL   C51732571   5.313   2.726   7.258 -0.0121  0.2423 -0.2935
   48MOL   C51832572   5.229   2.740   7.127 -0.0822  0.0694 -0.0717
   48MOL   C51932573   5.079   2.774   7.149 -0.0832 -0.3119  0.5464
   48MOL   C52032574   5.000   2.823   7.028 -0.2073 -0.1328 -0.0185
   48MOL   C52132575   4.860   2.857   7.052 -0.7447  0.1031  0.2762
   48MOL   C52232576   4.790   2.906   6.928 -0.4022 -0.1494  0.2676
   48MOL   C52332577   4.763   2.791   6.834 -0.1649  0.2312  0.3410
   48MOL   O52432578   4.842   2.757   6.751 -0.8145 -0.3555  0.0089
   48MOL   H52532579   5.155   2.826   0.062 -1.8860 -1.3205  0.7355
   48MOL   H52632580   5.111   2.823   7.494 -0.4068 -0.4595  0.8721
   48MOL   H52732581   5.156   2.981   7.551  2.4495  0.9789  2.1607
   48MOL   H52832582   5.315   2.718   7.582  0.6885 -0.1066  0.0278
   48MOL   H52932583   5.353   2.851   7.677 -1.4054  1.1369  0.0086
   48MOL   H53032584   5.448   2.968   7.474  1.8792 -0.8423 -0.4847
   48MOL   H53132585   5.476   2.799   7.478  0.2273 -0.3521 -0.9016
   48MOL   H53232586   5.409   2.907   7.247 -0.6740  0.6893 -0.5532
   48MOL   H53332587   5.250   2.930   7.333  0.5622 -0.3343 -1.1256
   48MOL   H53432588   5.258   2.663   7.327 -0.5715  1.3837  0.3159
   48MOL   H53532589   5.412   2.683   7.243  0.7085  1.1157  1.7817
   48MOL   H53632590   5.273   2.814   7.061 -0.9719 -2.1110 -3.2237
   48MOL   H53732591   5.236   2.645   7.074 -2.5090 -0.2991  0.2096
   48MOL   H53832592   5.072   2.855   7.221  0.9269 -0.3180  0.6598
   48MOL   H53932593   5.042   2.681   7.192  0.9293 -0.7249  0.5503
   48MOL   H54032594   5.046   2.910   6.980  1.4928 -1.2873 -0.5620
   48MOL   H54132595   4.998   2.749   6.948  1.0511 -0.8271  0.5808
   48MOL   H54232596   4.857   2.936   7.128 -1.1236  0.8748 -0.5249
   48MOL   H54332597   4.801   2.776   7.095  0.4327 -0.6063  0.5774
   48MOL   H54432598   4.848   2.984   6.879  1.7203 -2.2303 -0.6022
   48MOL   H54532599   4.699   2.959   6.955  0.6114  0.4761  2.4935
   48MOL   N54632600   4.647   2.732   6.854  0.3096  0.5289 -0.2702
   48MOL   C54732601   4.611   2.614   6.773  0.6437  0.1232 -0.5518
   48MOL   C54832602   4.649   2.485   6.847 -0.4463  0.9324  0.7022
   48MOL   C54932603   4.614   2.359   6.771  0.2422  0.3390  0.1373
   48MOL   C55032604   4.679   2.228   6.804  0.0508  0.3987  0.7139
   48MOL   C55132605   4.636   2.157   6.940  0.3695 -0.8713 -0.6823
   48MOL   C55232606   4.724   2.044   6.999 -0.5612  0.2389  0.4691
   48MOL   C55332607   4.880   2.071   6.999 -0.5502  0.4330  0.2446
   48MOL   C55432608   4.920   2.196   7.089  0.3559 -0.0446 -0.1278
   48MOL   C55532609   5.066   2.224   7.070 -0.0671  0.3044  0.9548
   48MOL   C55632610   5.100   2.320   6.950  0.2202  0.3963 -0.5411
   48MOL   C55732611   5.241   2.306   6.908 -0.1990  0.0105  0.2482
   48MOL   O55832612   5.328   2.347   6.980 -0.3021  0.2320  0.2390
   48MOL   H55932613   4.581   2.783   6.912 -0.3070 -0.6968  0.1138
   48MOL   H56032614   4.505   2.615   6.749  0.0734 -2.9315  1.5166
   48MOL   H56132615   4.662   2.607   6.677 -0.7197  0.9038 -1.3386
   48MOL   H56232616   4.601   2.483   6.944 -0.6255  0.4340  0.6011
   48MOL   H56332617   4.758   2.490   6.859 -0.4426  1.0889  0.6100
   48MOL   H56432618   4.507   2.343   6.782 -0.0020  3.0065  2.5394
   48MOL   H56532619   4.624   2.388   6.667  0.8267  0.2109  0.1538
   48MOL   H56632620   4.783   2.250   6.823 -0.1766  1.8587  0.3507
   48MOL   H56732621   4.666   2.149   6.729  1.4417  1.0734 -0.2524
   48MOL   H56832622   4.529   2.137   6.934 -0.2935  2.2736 -0.0717
   48MOL   H56932623   4.632   2.244   7.005  1.4730 -0.2220 -1.4776
   48MOL   H57032624   4.685   2.010   7.095 -0.6764  1.5735  0.9077
   48MOL   H57132625   4.710   1.952   6.942 -0.7185  1.7498 -2.0184
   48MOL   H57232626   4.917   2.086   6.898  0.1090 -0.0460  0.4111
   48MOL   H57332627   4.938   1.993   7.049 -0.6741  1.1411  1.5172
   48MOL   H57432628   4.847   2.272   7.061 -0.4798 -1.1555 -1.0264
   48MOL   H57532629   4.894   2.176   7.193  0.1230 -1.4193 -0.4445
   48MOL   H57632630   5.128   2.135   7.064 -0.9375 -0.2894  0.7305
   48MOL   H57732631   5.092   2.284   7.157  1.7808  0.8803  0.0449
   48MOL   H57832632   5.101   2.424   6.984  2.2652  0.5943 -1.1603
   48MOL   H57932633   5.012   2.317   6.886 -0.4746 -1.8124  0.4749
   48MOL   N58032634   5.271   2.244   6.793 -0.0582  0.9145 -0.5811
   48MOL   C58132635   5.401   2.203   6.737 -0.0293  0.0116  0.9249
   48MOL   C58232636   5.417   2.050   6.740 -0.0390 -0.2905 -0.5970
   48MOL   C58332637   5.532   2.002   6.652 -0.7545 -0.2389 -0.9242
   48MOL   C58432638   5.563   1.852   6.681  0.1133 -0.2978 -0.4321
   48MOL   C58532639   5.663   1.789   6.579  0.3221 -0.4776  0.0706
   48MOL   C58632640   5.802   1.845   6.561  0.3111 -0.2450  0.2795
   48MOL   C58732641   5.871   1.753   6.462 -0.5371 -0.2011 -0.2656
   48MOL   C58832642   6.009   1.796   6.420 -0.2660 -0.5612  0.2034
   48MOL   C58932643   6.018   1.925   6.336  0.1363 -0.0706  0.3728
   48MOL   C59032644   5.932   1.932   6.209 -0.0436 -0.1772 -0.1276
   48MOL   C59132645   5.964   2.055   6.123 -0.1683  0.1959  0.0468
   48MOL   O59232646   6.024   2.148   6.181 -0.2470  0.1325 -0.6212
   48MOL   H59332647   5.189   2.219   6.740 -1.0412  2.8908 -0.0320
   48MOL   H59432648   5.409   2.246   6.638 -0.0494 -0.2052  0.8301
   48MOL   H59532649   5.484   2.255   6.787  1.9043  0.9129 -3.0441
   48MOL   H59632650   5.332   1.989   6.707  0.5976 -0.6794 -1.5544
   48MOL   H59732651   5.431   2.014   6.842  0.9007 -1.7317 -1.2180
   48MOL   H59832652   5.502   2.005   6.547 -1.2442 -0.8874 -0.8062
   48MOL   H59932653   5.620   2.065   6.663  0.0246 -1.1306 -1.9882
   48MOL   H60032654   5.475   1.788   6.671  0.2749 -1.1119  2.8512
   48MOL   H60132655   5.618   1.846   6.774 -1.8829  2.5280  0.9887
   48MOL   H60232656   5.614   1.779   6.482 -0.2013  2.2120  0.0440
   48MOL   H60332657   5.672   1.686   6.616 -0.0845 -0.4293  0.3131
   48MOL   H60432658   5.804   1.947   6.521 -0.0939 -0.7494 -1.0558
   48MOL   H60532659   5.856   1.847   6.655  0.1287 -1.5119  0.4198
   48MOL   H60632660   5.816   1.743   6.368  1.1859 -1.9197 -1.1241
   48MOL   H60732661   5.878   1.655   6.510  1.5073  0.0940  0.0849
   48MOL   H60832662   6.070   1.809   6.509  1.4897 -0.3512 -1.0018
   48MOL   H60932663   6.063   1.717   6.367  1.2567 -0.0072  0.9159
   48MOL   H61032664   6.116   1.937   6.292 -1.3291 -0.1093 -3.0194
   48MOL   H61132665   6.007   2.012   6.401 -0.8684  0.1972 -0.1389
   48MOL   H61232666   5.824   1.917   6.216 -0.5455  2.6750 -1.2725
   48MOL   H61332667   5.963   1.841   6.158  1.2295  1.4234 -2.2472
   48MOL   N61432668   5.924   2.064   6.002  0.9200  0.0602 -1.0814
   48MOL   C61532669   5.957   2.179   5.913 -0.2079  0.1617 -0.6963
   48MOL   C61632670   6.022   2.125   5.782  0.3774  0.6019 -0.2483
   48MOL   C61732671   6.046   2.239   5.682  0.0243  0.4385 -0.4985
   48MOL   C61832672   6.101   2.208   5.545 -0.0981  0.2152  0.3723
   48MOL   C61932673   6.234   2.126   5.557  0.1504  0.4429  0.4731
   48MOL   C62032674   6.220   1.987   5.495 -0.2651 -0.0588  0.4248
   48MOL   C62132675   6.341   1.905   5.520 -0.4822 -0.6454  0.4428
   48MOL   C62232676   6.326   1.751   5.497  0.5870 -0.2796  0.0008
   48MOL   C62332677   6.248   1.684   5.608 -1.2203 -0.1466  0.4166
   48MOL   C62432678   6.206   1.540   5.584  0.7235 -0.3472 -0.4775
   48MOL   C62532679   6.308   1.433   5.542  0.4860 -0.4865  0.7421
   48MOL   O62632680   6.306   1.398   5.426 -0.1408  0.0274  0.5676
   48MOL   H62732681   5.870   1.988   5.964  1.5306 -0.3333 -1.1792
   48MOL   H62832682   6.013   2.256   5.965 -0.4107 -1.8338  2.6394
   48MOL   H62932683   5.862   2.228   5.894 -1.2921 -0.3484  2.9449
   48MOL   H63032684   5.954   2.049   5.745  0.0051  1.5682 -1.5984
   48MOL   H63132685   6.112   2.066   5.800 -0.4105 -0.7383 -0.6503
   48MOL   H63232686   5.960   2.305   5.672  0.9108  1.4993 -1.2145
   48MOL   H63332687   6.127   2.294   5.730 -0.3772  0.1990  0.4780
   48MOL   H63432688   6.129   2.300   5.494  0.9004  0.4953  1.4221
   48MOL   H63532689   6.027   2.156   5.484 -1.3874  0.7702  1.4198
   48MOL   H63632690   6.263   2.111   5.661  0.2424  0.2394  0.4180
   48MOL   H63732691   6.308   2.191   5.510 -1.5492  0.6688 -2.0024
   48MOL   H63832692   6.136   1.930   5.536 -1.0532 -0.0560 -1.1465
   48MOL   H63932693   6.217   2.005   5.387 -2.8885  2.4922  0.8628
   48MOL   H64032694   6.401   1.929   5.608 -0.1739 -1.6660  0.5228
   48MOL   H64132695   6.415   1.944   5.449  0.5471 -1.2040  1.1849
   48MOL   H64232696   6.267   1.742   5.406 -1.7447  0.8761  1.3415
   48MOL   H64332697   6.417   1.700   5.467  0.7338 -0.0653  0.0774
   48MOL   H64432698   6.166   1.743   5.650 -0.2235  1.4980  0.1034
   48MOL   H64532699   6.320   1.678   5.690  0.5398 -2.1328 -1.1940
   48MOL   H64632700   6.125   1.529   5.512  0.2803  0.1603 -0.0606
   48MOL   H64732701   6.169   1.495   5.676  1.1040  1.1304  0.4178
   48MOL   N64832702   6.386   1.378   5.637 -0.5354 -0.2408  0.3580
   48MOL   C64932703   6.510   1.310   5.609  0.1785  0.3392 -0.0940
   48MOL   C65032704   6.484   1.159   5.625  0.3318  0.4185  0.9006
   48MOL   C65132705   6.607   1.085   5.574  0.9607  0.0890  0.2371
   48MOL   C65232706   6.591   0.938   5.597 -0.4859 -1.1842  0.1440
   48MOL   C65332707   6.719   0.860   5.565 -0.1008 -0.4595  0.0301
   48MOL   C65432708   6.703   0.710   5.578 -0.0661  0.2935  0.3843
   48MOL   C65532709   6.836   0.633   5.556 -0.2549 -0.6546  0.1996
   48MOL   C65632710   6.821   0.484   5.526 -0.1724  0.6377  0.6140
   48MOL   C65732711   6.956   0.413   5.503 -0.0987  0.1888  0.0172
   48MOL   C65832712   6.931   0.269   5.451  0.5769 -0.3363 -0.1234
   48MOL   C65932713   6.919   0.265   5.298  0.2126 -0.3567 -0.0863
   48MOL   O66032714   7.011   0.235   5.227  0.1796  0.2800  0.4749
   48MOL   H66132715   6.372   1.420   5.728 -2.1598  0.7398 -0.3083
   48MOL   H66232716   6.580   1.358   5.677 -1.0893  0.6572  1.0144
   48MOL   H66332717   6.549   1.323   5.508  0.4091 -3.6440 -0.5760
   48MOL   H66432718   6.397   1.126   5.568 -0.8376  3.9221  0.4866
   48MOL   H66532719   6.470   1.140   5.731 -0.0647  2.1346  1.1823
   48MOL   H66632720   6.621   1.108   5.468  1.5363 -0.1702  0.2555
   48MOL   H66732721   6.690   1.126   5.633  1.2411  0.7917 -0.6195
   48MOL   H66832722   6.509   0.896   5.538  0.1646 -1.1193 -0.8108
   48MOL   H66932723   6.559   0.928   5.701 -1.4169  3.2667  0.4075
   48MOL   H67032724   6.793   0.882   5.643  1.0661 -0.4642 -1.0503
   48MOL   H67132725   6.771   0.894   5.475  0.8716 -0.7742  0.4576
   48MOL   H67232726   6.658   0.685   5.674 -0.0755  1.5085  0.7020
   48MOL   H67332727   6.627   0.688   5.503 -0.2284 -0.5496  0.7834
   48MOL   H67432728   6.890   0.638   5.651 -0.5066 -0.1649  0.3163
   48MOL   H67532729   6.891   0.687   5.479  0.8279 -0.9277  0.7707
   48MOL   H67632730   6.775   0.429   5.607 -0.5040 -1.5552 -1.0170
   48MOL   H67732731   6.767   0.475   5.432  0.9946  0.4812 -0.0577
   48MOL   H67832732   7.004   0.399   5.599 -0.6017 -0.8089  0.1219
   48MOL   H67932733   7.025   0.483   5.455  0.2645  0.5189  1.0063
   48MOL   H68032734   6.848   0.216   5.497  1.2582 -0.7298  0.6588
   48MOL   H68132735   7.020   0.207   5.465  0.9489  0.0908 -0.5538
   48MOL   H68232736   6.821   0.300   5.265  0.3716 -0.2050 -0.3983
   49MOL     N132737   7.298   0.633   3.713 -0.1458  0.0872 -0.4605
   49MOL     C232738   7.405   0.704   3.648 -0.6411  0.5014  0.2740
   49MOL     C332739   7.498   0.620   3.563  0.0803 -0.4737 -0.9076
   49MOL     C432740   7.589   0.528   3.640  0.0268 -0.4176  0.5140
   49MOL     C532741   7.697   0.459   3.549 -0.5242  0.1288  0.3074
   49MOL     C632742   7.642   0.345   3.462  0.8159 -0.3437  0.2557
   49MOL     C732743   7.592   0.397   3.324 -0.0038  0.4617 -0.5147
   49MOL     C832744   7.568   0.292   3.210  0.0700 -0.2201  0.1625
   49MOL     C932745   7.546   0.344   3.069 -0.1934  0.4220  0.7023
   49MOL    C1032746   7.440   0.455   3.047 -0.2651 -0.3777 -0.3627
   49MOL    C1132747   7.420   0.492   2.899  0.2073  0.5314  0.5087
   49MOL    C1232748   7.528   0.579   2.838 -0.3450 -0.6427  0.3088
   49MOL    O1332749   7.531   0.697   2.857  0.1424 -0.4821  0.8421
   49MOL    H1432750   7.230   0.692   3.757 -1.2569 -0.3369 -1.5738
   49MOL    H1532751   7.468   0.743   3.727 -0.5032 -2.9919  1.9753
   49MOL    H1632752   7.355   0.776   3.582  0.2854 -0.5845 -1.6469
   49MOL    H1732753   7.559   0.693   3.510 -2.9416  2.8886 -0.0204
   49MOL    H1832754   7.427   0.568   3.499 -2.0563  0.6286  0.5049
   49MOL    H1932755   7.640   0.592   3.712  0.5346  1.4411 -1.4233
   49MOL    H2032756   7.527   0.453   3.687  0.9209 -1.1487  0.5517
   49MOL    H2132757   0.066   0.416   3.603 -0.4211 -1.9306 -1.4634
   49MOL    H2232758   0.033   0.536   3.492 -1.4793 -1.2163 -2.4575
   49MOL    H2332759   7.559   0.298   3.514 -1.7395  2.0116 -1.4916
   49MOL    H2432760   0.004   0.271   3.444  0.6713 -1.2609  3.2683
   49MOL    H2532761   7.499   0.453   3.341  0.1573  0.8560 -0.9110
   49MOL    H2632762   7.673   0.459   3.285  1.2092 -1.2283 -0.7065
   49MOL    H2732763   7.485   0.226   3.234 -0.3064 -0.3624 -1.4820
   49MOL    H2832764   7.653   0.224   3.213  0.5959  0.4123 -0.2579
   49MOL    H2932765   7.644   0.376   3.033  0.2102 -1.9382 -0.3785
   49MOL    H3032766   7.538   0.251   3.013 -0.8751 -0.6979  2.5991
   49MOL    H3132767   7.451   0.546   3.105 -1.0260 -0.8198  0.4900
   49MOL    H3232768   7.342   0.418   3.077  0.5451 -1.6416  0.8026
   49MOL    H3332769   7.326   0.546   2.894 -0.0729  0.2765  2.8878
   49MOL    H3432770   7.394   0.407   2.835  0.1936 -1.0118  2.5194
   49MOL    H3532771   7.254   0.593   3.631 -0.3043 -0.6694 -0.0166
   49MOL    N3632772   7.626   0.517   2.778 -0.0048 -0.5622 -0.4317
   49MOL    C3732773   0.025   0.583   2.726  0.1033  0.3756 -0.3224
   49MOL    C3832774   0.151   0.503   2.753  0.3641 -0.2305  0.5843
   49MOL    C3932775   0.280   0.583   2.709 -0.5537  0.1203 -0.1735
   49MOL    C4032776   0.408   0.512   2.746  0.4955  0.3202  0.2017
   49MOL    C4132777   0.523   0.611   2.731  0.3209 -0.7372 -0.2324
   49MOL    C4232778   0.643   0.561   2.799  0.7399 -0.6788  0.5900
   49MOL    C4332779   0.768   0.640   2.750  0.6504 -0.3305  0.6159
   49MOL    C4432780   0.886   0.588   2.840 -0.1064 -0.2922 -0.4513
   49MOL    C4532781   0.889   0.638   2.986 -0.3187 -0.0977 -0.7401
   49MOL    C4632782   1.028   0.671   3.056 -0.4019 -0.6517  0.2178
   49MOL    C4732783   1.100   0.557   3.118 -0.2140  0.6311 -0.2706
   49MOL    O4832784   1.099   0.453   3.063 -0.0526  0.0498 -0.9458
   49MOL    H4932785   7.624   0.417   2.772  0.0942 -0.4897 -1.8624
   49MOL    H5032786   0.012   0.604   2.620 -0.6921  1.5954  0.0098
   49MOL    H5132787   0.024   0.686   2.761 -1.9281  0.1859  0.2146
   49MOL    H5232788   0.154   0.409   2.699  0.8084 -0.2142  0.5829
   49MOL    H5332789   0.152   0.477   2.859  1.6768 -0.5778  0.4871
   49MOL    H5432790   0.278   0.595   2.600 -1.6805  2.2270  0.0574
   49MOL    H5532791   0.272   0.686   2.744  0.3255  0.4985 -1.0398
   49MOL    H5632792   0.425   0.418   2.692 -0.1026  0.0292  0.5117
   49MOL    H5732793   0.401   0.489   2.852  1.7306  0.2564  0.2772
   49MOL    H5832794   0.511   0.716   2.756  1.7364 -0.5486 -0.3586
   49MOL    H5932795   0.546   0.608   2.624  2.3317 -1.4819  0.2002
   49MOL    H6032796   0.637   0.563   2.908 -0.0733 -0.7126  0.5462
   49MOL    H6132797   0.658   0.453   2.790 -4.3396 -1.3946 -1.0394
   49MOL    H6232798   0.755   0.748   2.755 -1.5478 -0.4471 -1.6640
   49MOL    H6332799   0.796   0.606   2.650  1.4422  2.4663 -0.1564
   49MOL    H6432800   0.899   0.479   2.839 -0.5882 -0.3537 -0.3037
   49MOL    H6532801   0.977   0.620   2.790  0.9407  1.6509  2.6111
   49MOL    H6632802   0.842   0.553   3.036  1.7094  0.3139  1.9723
   49MOL    H6732803   0.834   0.731   2.995 -0.0372  0.0582 -0.6325
   49MOL    H6832804   1.024   0.766   3.109 -0.2012 -0.0484 -0.8361
   49MOL    H6932805   1.092   0.694   2.971 -0.5397  0.8708  0.5272
   49MOL    N7032806   1.141   0.578   3.246 -0.3202  0.2917 -0.0890
   49MOL    C7132807   1.196   0.472   3.330  0.0534  0.0310  0.0859
   49MOL    C7232808   1.352   0.484   3.337  0.0402  0.0051  0.0900
   49MOL    C7332809   1.413   0.379   3.434  0.0569  0.4450 -0.2865
   49MOL    C7432810   1.566   0.379   3.439 -0.2142  0.0949 -0.1892
   49MOL    C7532811   1.624   0.280   3.553 -0.1497  0.2338 -0.0246
   49MOL    C7632812   1.563   0.136   3.549 -0.2487  0.2088  0.1276
   49MOL    C7732813   1.643   0.032   3.619 -1.1061 -0.2271 -0.1540
   49MOL    C7832814   1.768   7.699   3.546  0.5748  0.1712 -0.5669
   49MOL    C7932815   1.737   7.599   3.427  0.5037 -0.1167  0.4982
   49MOL    C8032816   1.864   7.542   3.353  0.4507  0.1737 -0.1934
   49MOL    C8132817   1.835   7.494   3.212 -0.7255 -0.0424  0.4388
   49MOL    O8232818   1.724   7.447   3.172 -0.0127 -0.6889 -0.3426
   49MOL    H8332819   1.115   0.667   3.286 -1.6291 -0.0517 -0.1438
   49MOL    H8432820   1.153   0.494   3.428 -2.2753  0.5253 -1.0082
   49MOL    H8532821   1.172   0.373   3.291  1.6641  0.6420 -2.5413
   49MOL    H8632822   1.379   0.583   3.374 -0.5744  1.3732 -2.9337
   49MOL    H8732823   1.398   0.466   3.240  3.1821 -0.0215  1.5189
   49MOL    H8832824   1.360   0.389   3.529 -0.0479  2.9082 -0.5747
   49MOL    H8932825   1.388   0.286   3.383  0.9877  2.0925 -3.8662
   49MOL    H9032826   1.609   0.477   3.460 -0.8419  0.5023 -0.7788
   49MOL    H9132827   1.613   0.350   3.346 -2.4197  1.4580 -1.7880
   49MOL    H9232828   1.607   0.324   3.651 -2.0108  3.3787 -1.6508
   49MOL    H9332829   1.729   0.280   3.524  0.0552 -0.6804  0.7066
   49MOL    H9432830   1.461   0.147   3.587  0.3669  0.2185  1.8181
   49MOL    H9532831   1.549   0.121   3.442  1.9535  1.4132 -0.3523
   49MOL    H9632832   1.576   7.666   3.647 -0.4857 -0.6670  0.0566
   49MOL    H9732833   1.662   0.053   3.724  1.4546 -0.0421 -0.6397
   49MOL    H9832834   1.827   0.067   3.508  0.5420  0.9048  0.9561
   49MOL    H9932835   1.823   7.634   3.614 -1.2242 -0.6684  0.1411
   49MOL   H10032836   1.664   7.647   3.362  0.0860 -3.2002 -1.3848
   49MOL   H10132837   1.678   7.521   3.476 -0.6398  0.4745  0.0792
   49MOL   H10232838   1.901   7.461   3.415 -0.6879  0.8264  1.3732
   49MOL   H10332839   1.938   7.622   3.358  0.9795 -0.4198  1.5836
   49MOL   N10432840   1.936   7.491   3.127 -0.5981  0.0166  0.4510
   49MOL   C10532841   1.907   7.487   2.983 -0.0690  0.2213  0.0638
   49MOL   C10632842   2.030   7.524   2.888 -0.2689 -0.5242  0.0533
   49MOL   C10732843   2.092   7.658   2.928  0.6083 -0.2299  0.2427
   49MOL   C10832844   2.220   7.696   2.857  0.1358  0.4233  0.5297
   49MOL   C10932845   2.267   0.121   2.919 -0.3874  0.1087 -0.7576
   49MOL   C11032846   2.422   0.149   2.916 -0.0560  0.4387  0.3432
   49MOL   C11132847   2.453   0.261   3.020  0.4497  0.1782 -0.3996
   49MOL   C11232848   2.598   0.306   3.039  0.2361 -0.5915  0.2719
   49MOL   C11332849   2.611   0.419   3.140  0.4847  0.9731 -0.4803
   49MOL   C11432850   2.742   0.449   3.209  0.3597 -0.5256 -0.1639
   49MOL   C11532851   2.813   0.335   3.280 -0.4385 -0.6592 -0.2339
   49MOL   O11632852   2.849   0.237   3.220  0.1662  0.4704  0.1487
   49MOL   H11732853   2.030   7.510   3.157 -0.0749 -0.0741 -1.0993
   49MOL   H11832854   1.876   7.385   2.962 -1.7472  0.7504 -0.1329
   49MOL   H11932855   1.827   7.554   2.950  1.5096 -0.0011 -4.5776
   49MOL   H12032856   1.992   7.516   2.787  0.5040 -2.2696 -0.1215
   49MOL   H12132857   2.105   7.445   2.894  3.1678  2.6472 -0.2231
   49MOL   H12232858   2.020   0.015   2.891  2.2369  0.4740 -1.6488
   49MOL   H12332859   2.102   7.664   3.037  2.2862 -0.0686  0.1044
   49MOL   H12432860   2.202   7.702   2.749  0.6275 -1.5046  0.3153
   49MOL   H12532861   2.299   7.624   2.875 -0.0026  0.7818  2.6362
   49MOL   H12632862   2.229   0.124   3.021  0.9027  1.7188 -0.2982
   49MOL   H12732863   2.231   0.199   2.852  0.8864  0.7087 -0.7749
   49MOL   H12832864   2.482   0.067   2.954 -0.0047  1.4634  2.5167
   49MOL   H12932865   2.458   0.185   2.819  2.5575  0.7013  1.3664
   49MOL   H13032866   2.412   0.238   3.118  1.4353  1.1938  0.2484
   49MOL   H13132867   2.403   0.353   2.991 -0.3566  1.6206  5.0296
   49MOL   H13232868   2.653   0.217   3.072 -0.8675 -1.8447 -1.1579
   49MOL   H13332869   2.646   0.332   2.944  0.4692 -3.1389 -0.3496
   49MOL   H13432870   2.532   0.401   3.214 -1.2051 -0.8455 -2.6476
   49MOL   H13532871   2.567   0.508   3.095  0.2167  0.8618 -0.4430
   49MOL   H13632872   2.720   0.522   3.287  2.3697  0.8533 -0.8460
   49MOL   H13732873   2.816   0.492   3.142  0.6383 -0.4834  0.1714
   49MOL   N13832874   2.825   0.351   3.414 -0.7861  0.2641  0.2345
   49MOL   C13932875   2.885   0.247   3.490  0.8808 -0.2031  0.2537
   49MOL   C14032876   2.908   0.299   3.637 -0.2429 -0.7808 -0.0732
   49MOL   C14132877   3.001   0.426   3.628  0.4081  0.0452  0.1853
   49MOL   C14232878   3.040   0.488   3.762  0.0290  0.1606  0.3119
   49MOL   C14332879   2.937   0.529   3.873  0.3999  0.7914 -0.3706
   49MOL   C14432880   3.015   0.598   3.985  0.8270 -0.5038  0.4505
   49MOL   C14532881   2.913   0.645   4.098 -0.8399 -0.0488 -0.6660
   49MOL   C14632882   2.972   0.708   4.223  0.2637  0.3308  0.3231
   49MOL   C14732883   3.099   0.801   4.204  0.2217  0.0033 -0.2189
   49MOL   C14832884   3.108   0.892   4.333  0.2379 -0.7316  0.2907
   49MOL   C14932885   3.212   1.001   4.329 -0.3302  0.1016 -0.4157
   49MOL   O15032886   3.298   0.995   4.241  0.4281  1.0131  0.3321
   49MOL   H15132887   2.781   0.433   3.455  1.6572  1.8919 -0.3271
   49MOL   H15232888   2.810   0.169   3.490  0.0796  0.5675 -0.2190
   49MOL   H15332889   2.977   0.209   3.446 -0.1995 -2.0936 -0.4043
   49MOL   H15432890   2.951   0.225   3.704 -0.2183  0.6199  1.4868
   49MOL   H15532891   2.815   0.334   3.682  0.4345  0.4580  0.3949
   49MOL   H15632892   3.097   0.402   3.585  0.3424 -0.4776  0.3219
   49MOL   H15732893   2.955   0.507   3.571 -0.1955 -0.3126  0.1576
   49MOL   H15832894   3.098   0.578   3.741 -2.0499  0.9448 -2.3010
   49MOL   H15932895   3.116   0.424   3.807 -0.7593 -0.4350  0.8299
   49MOL   H16032896   2.904   0.435   3.917 -0.3212  1.8999  1.5539
   49MOL   H16132897   2.846   0.581   3.844 -0.5303  0.2424  1.4591
   49MOL   H16232898   3.105   0.546   4.017  1.6179 -1.5962 -3.3525
   49MOL   H16332899   3.043   0.696   3.946  0.3050 -1.1327 -1.5781
   49MOL   H16432900   2.842   0.568   4.128  0.6739 -1.2057  0.0135
   49MOL   H16532901   2.847   0.719   4.053  0.5326 -0.6574 -3.7942
   49MOL   H16632902   2.894   0.769   4.270  3.1555  2.0973  3.1048
   49MOL   H16732903   2.982   0.630   4.299 -0.1193 -0.4349 -0.4141
   49MOL   H16832904   3.085   0.862   4.115  0.8680 -1.0117 -1.0161
   49MOL   H16932905   3.187   0.737   4.197  0.4316  0.3880 -1.0988
   49MOL   H17032906   3.155   0.828   4.408  0.5134  2.2289  2.7384
   49MOL   H17132907   3.012   0.913   4.381  0.3580 -2.2408  1.2360
   49MOL   N17232908   3.202   1.091   4.421 -0.2309 -0.7854 -0.3332
   49MOL   C17332909   3.303   1.202   4.441  0.1342 -0.2519  0.2513
   49MOL   C17432910   3.239   1.343   4.429  0.5231  0.2375  0.0148
   49MOL   C17532911   3.345   1.456   4.467  0.6054  0.2839 -0.2017
   49MOL   C17632912   3.323   1.591   4.400  0.1161  0.1886 -0.5862
   49MOL   C17732913   3.305   1.588   4.244 -0.1158 -0.1108 -0.1334
   49MOL   C17832914   3.362   1.710   4.174  0.6439  0.5267  0.4326
   49MOL   C17932915   3.348   1.710   4.026 -0.2987  1.0718  0.6682
   49MOL   C18032916   3.391   1.841   3.948 -0.0257  0.3233 -1.0051
   49MOL   C18132917   3.387   1.816   3.807 -0.3557  0.8607  0.5830
   49MOL   C18232918   3.445   1.912   3.703  0.4757  0.5649  0.3669
   49MOL   C18332919   3.356   2.034   3.667 -0.6915  0.4762 -0.7176
   49MOL   O18432920   3.252   2.018   3.604  0.2818 -0.9145  0.1079
   49MOL   H18532921   3.130   1.073   4.490  2.4663  0.1749  2.8691
   49MOL   H18632922   3.327   1.189   4.546  0.3522  0.1383  0.2515
   49MOL   H18732923   3.389   1.186   4.376 -1.2699 -1.1007 -1.4514
   49MOL   H18832924   3.150   1.351   4.492  0.3336 -2.0830  0.0910
   49MOL   H18932925   3.214   1.367   4.326  3.0644 -1.4452 -1.0438
   49MOL   H19032926   3.350   1.477   4.574 -1.2983  0.3467 -0.1132
   49MOL   H19132927   3.449   1.435   4.441  0.9081  0.4897  0.8296
   49MOL   H19232928   3.414   1.645   4.424  0.0407 -0.7966  2.0040
   49MOL   H19332929   3.237   1.648   4.435 -0.8379 -2.5218  1.6406
   49MOL   H19432930   3.201   1.562   4.224 -0.5204  0.3371  1.3459
   49MOL   H19532931   3.361   1.504   4.203  0.3459 -0.6913  1.6569
   49MOL   H19632932   3.309   1.798   4.213 -0.8393 -1.0212  2.0109
   49MOL   H19732933   3.466   1.724   4.202  0.8902  1.3782 -0.8739
   49MOL   H19832934   3.244   1.693   4.000  0.2753 -0.0892 -0.9337
   49MOL   H19932935   3.406   1.626   3.987 -0.7319  1.5931 -1.1540
   49MOL   H20032936   3.336   1.928   3.983 -0.5625  0.4736 -2.1953
   49MOL   H20132937   3.491   1.871   3.979 -0.3899 -0.5972  1.1423
   49MOL   H20232938   3.286   1.786   3.777  0.3037 -0.9212  0.0446
   49MOL   H20332939   3.447   1.726   3.792 -1.3026  0.6806 -2.5148
   49MOL   H20432940   3.476   1.871   3.607 -1.4363  1.3001 -0.5964
   49MOL   H20532941   3.541   1.939   3.748  1.4323 -0.1530 -1.2327
   49MOL   N20632942   3.394   2.150   3.716  0.0149 -0.3337 -0.6701
   49MOL   C20732943   3.318   2.276   3.696 -0.6627  0.4910 -0.7787
   49MOL   C20832944   3.333   2.368   3.814  0.5605  0.6590 -0.8441
   49MOL   C20932945   3.256   2.497   3.797  0.5751 -0.1578  0.1004
   49MOL   C21032946   3.243   2.563   3.935  0.3011 -0.0826  0.2946
   49MOL   C21132947   3.196   2.707   3.930 -0.5132 -0.2133  0.0711
   49MOL   C21232948   3.228   2.777   4.065  0.0731  0.5926  0.0828
   49MOL   C21332949   3.143   2.901   4.106 -0.2192  0.4621  0.2554
   49MOL   C21432950   2.988   2.897   4.103  0.8623 -0.4552  0.1917
   49MOL   C21532951   2.922   3.031   4.137  0.3300  0.6020 -0.2341
   49MOL   C21632952   2.803   3.072   4.048  0.1224  0.2560 -0.3235
   49MOL   C21732953   2.679   2.986   4.062  0.1301 -0.5486  0.6362
   49MOL   O21832954   2.675   2.875   4.111 -0.1998  0.3135  0.1037
   49MOL   H21932955   3.487   2.158   3.754 -0.4043 -0.2087  0.3471
   49MOL   H22032956   3.209   2.268   3.689 -0.6152 -1.9614  0.8248
   49MOL   H22132957   3.348   2.329   3.605  1.8269  3.8940  1.8754
   49MOL   H22232958   3.438   2.397   3.823  1.3452 -1.9653 -0.9393
   49MOL   H22332959   3.303   2.311   3.902  2.8253 -0.1528 -0.5691
   49MOL   H22432960   3.294   2.569   3.724  0.1214  0.0414  0.0619
   49MOL   H22532961   3.161   2.467   3.754 -0.2868  0.4908  1.5331
   49MOL   H22632962   3.344   2.571   3.976  0.9324 -2.1384 -0.7422
   49MOL   H22732963   3.187   2.501   4.005  1.1217 -0.9427  0.2079
   49MOL   H22832964   3.089   2.691   3.921 -0.4537 -0.4737 -0.1829
   49MOL   H22932965   3.234   2.764   3.845  1.0372 -0.1799  0.7649
   49MOL   H23032966   3.217   2.700   4.141 -2.0249 -0.6912 -1.4690
   49MOL   H23132967   3.332   2.807   4.070 -0.6110  3.0636  0.4099
   49MOL   H23232968   3.176   2.983   4.041  0.2286  0.7269  0.8170
   49MOL   H23332969   3.172   2.938   4.204  0.2946 -2.7446  1.3624
   49MOL   H23432970   2.960   2.878   3.999  1.2441  3.6104 -0.7390
   49MOL   H23532971   2.947   2.812   4.158 -0.5413 -0.4786 -0.8439
   49MOL   H23632972   3.001   3.103   4.154  1.9467 -0.5451 -2.6044
   49MOL   H23732973   2.883   3.013   4.237  1.7920  1.8733  0.5711
   49MOL   H23832974   2.830   3.076   3.942  0.7151  0.4921 -0.1661
   49MOL   H23932975   2.777   3.175   4.071 -1.3738  0.1092 -1.3076
   49MOL   N24032976   2.564   3.036   4.004  0.5020  0.3873  0.3891
   49MOL   C24132977   2.428   2.987   4.010  0.3386  0.0734 -0.3392
   49MOL   C24232978   2.414   2.838   3.974 -0.4560  0.2074 -0.5624
   49MOL   C24332979   2.273   2.783   3.964  0.3099 -0.4460 -0.4826
   49MOL   C24432980   2.256   2.637   3.935 -0.2864 -0.0973 -0.2743
   49MOL   C24532981   2.111   2.583   3.943  0.2121  0.2700  0.1988
   49MOL   C24632982   2.074   2.482   3.826 -0.5615 -0.1581 -0.5007
   49MOL   C24732983   2.149   2.346   3.819  0.0549  0.4868  0.2737
   49MOL   C24832984   2.103   2.260   3.697  0.4911  1.0452  0.2462
   49MOL   C24932985   2.199   2.136   3.676 -0.0259  0.3451  0.6406
   49MOL   C25032986   2.162   2.050   3.552  0.8932  0.3206  0.2986
   49MOL   C25132987   2.249   1.923   3.534 -0.0199  0.3375 -0.2481
   49MOL   O25232988   2.328   1.921   3.439  0.2080  0.6629 -0.4819
   49MOL   H25332989   2.568   3.130   3.967 -0.8546  0.4518  0.3922
   49MOL   H25432990   2.373   3.040   3.933 -1.0601 -0.8691  0.0049
   49MOL   H25532991   2.393   3.012   4.110  0.4874 -1.8714  0.2164
   49MOL   H25632992   2.481   2.776   4.034  0.2924  0.4480 -1.1404
   49MOL   H25732993   2.451   2.837   3.871  0.9543  0.4428 -0.0711
   49MOL   H25832994   2.207   2.792   4.051 -0.7168 -2.1158 -1.0594
   49MOL   H25932995   2.217   2.837   3.887  1.4089  1.0896 -0.2415
   49MOL   H26032996   2.312   2.568   3.999 -2.1212 -1.3891 -0.0275
   49MOL   H26132997   2.293   2.615   3.835  0.1178  0.4223 -0.2399
   49MOL   H26232998   2.039   2.665   3.934 -2.3746 -1.9646  0.0801
   49MOL   H26332999   2.104   2.521   4.032  1.5677  0.6137  0.5553
   49MOL   H26433000   1.968   2.461   3.819 -0.9419  1.5439  0.0567
   49MOL   H26533001   2.106   2.546   3.743 -0.2861 -1.0879 -1.1334
   49MOL   H26633002   2.128   2.286   3.908 -0.1528  1.2791  0.7671
   49MOL   H26733003   2.255   2.369   3.820  0.2439 -0.3837  0.4009
   49MOL   H26833004   2.002   2.222   3.711  0.9277 -0.2245 -0.0206
   49MOL   H26933005   2.100   2.319   3.606  2.5959  0.1280 -0.4463
   49MOL   H27033006   2.189   2.078   3.768  0.6785  0.5772  0.8636
   49MOL   H27133007   2.301   2.172   3.668  0.5409 -1.2767  0.3975
   49MOL   H27233008   2.151   2.112   3.463 -0.5721  0.4426  0.5461
   49MOL   H27333009   2.057   2.021   3.556  0.3870  2.2221  2.0734
   49MOL   N27433010   2.244   1.820   3.622 -0.0063 -0.2477  0.5502
   49MOL   C27533011   2.327   1.703   3.616  0.5903 -0.3205 -0.4619
   49MOL   C27633012   2.365   1.645   3.756  0.5784  0.1822  0.1239
   49MOL   C27733013   2.447   1.509   3.759  0.2890  0.6937  0.3849
   49MOL   C27833014   2.577   1.507   3.676  0.6851  0.3654  0.1727
   49MOL   C27933015   2.654   1.383   3.704 -0.7921  0.8745 -0.1254
   49MOL   C28033016   2.777   1.356   3.621  0.4818 -1.1484 -0.0553
   49MOL   C28133017   2.874   1.473   3.655  0.1436 -0.4835 -0.6047
   49MOL   C28233018   3.016   1.447   3.588  0.1856 -0.0608 -0.3422
   49MOL   C28333019   3.113   1.567   3.606  0.2165 -0.2545 -0.5846
   49MOL   C28433020   3.263   1.530   3.585 -0.0102 -0.5878  0.1186
   49MOL   C28533021   3.336   1.456   3.705 -0.4113  0.5492 -0.0148
   49MOL   O28633022   3.461   1.457   3.711 -0.0092  0.2433  0.2889
   49MOL   H28733023   2.192   1.835   3.707 -1.5204 -0.9639 -0.2223
   49MOL   H28833024   2.417   1.719   3.556  0.7769 -1.3316 -0.4522
   49MOL   H28933025   2.271   1.630   3.557  0.6544 -1.3774  0.7742
   49MOL   H29033026   2.289   1.646   3.834  0.2637  2.3815 -0.2032
   49MOL   H29133027   2.433   1.719   3.798  0.2373  0.8195 -0.4380
   49MOL   H29233028   2.476   1.480   3.860  0.1481 -0.4997  0.0917
   49MOL   H29333029   2.377   1.430   3.732 -1.0983  2.5363 -1.5876
   49MOL   H29433030   2.644   1.583   3.715  2.4880 -0.6107 -0.9583
   49MOL   H29533031   2.565   1.530   3.570 -0.4835  0.8284  0.3990
   49MOL   H29633032   2.595   1.295   3.678  1.3528 -0.2460 -1.3346
   49MOL   H29733033   2.671   1.379   3.812  0.2783  2.3281 -0.2190
   49MOL   H29833034   2.818   1.257   3.638 -0.8900 -1.3876  1.9802
   49MOL   H29933035   2.754   1.367   3.515  2.3648  0.3036 -0.3483
   49MOL   H30033036   2.892   1.462   3.762 -1.0155  0.8952 -0.2459
   49MOL   H30133037   2.840   1.574   3.633  0.0057 -1.0046 -2.9051
   49MOL   H30233038   3.053   1.359   3.641  0.6781  0.3950  0.0863
   49MOL   H30333039   3.018   1.413   3.485  1.1524  0.5469 -0.5273
   49MOL   H30433040   3.097   1.613   3.704  0.7699 -0.7289 -0.2683
   49MOL   H30533041   3.076   1.642   3.536 -3.3094 -1.1450  0.2189
   49MOL   H30633042   3.328   1.613   3.557 -0.5691 -0.1379  0.1565
   49MOL   H30733043   3.266   1.458   3.503  0.1949 -0.2075 -0.2095
   49MOL   N30833044   3.270   1.400   3.802  0.1860  0.0171  0.0428
   49MOL   C30933045   3.325   1.335   3.923  0.6716  0.7074  0.5176
   49MOL   C31033046   3.234   1.229   3.984  0.6800  0.0585 -0.1221
   49MOL   C31133047   3.088   1.282   3.984  0.7513 -0.0369 -0.6171
   49MOL   C31233048   2.992   1.174   4.040 -0.0169  0.1890 -1.2260
   49MOL   C31333049   2.857   1.181   3.971 -0.3577  0.1385  0.1088
   49MOL   C31433050   2.765   1.079   4.026  0.2281 -0.0608  0.2292
   49MOL   C31533051   2.621   1.071   3.965 -0.3557 -0.3132  0.0248
   49MOL   C31633052   2.545   0.958   4.046  0.1635 -0.3024  0.5621
   49MOL   C31733053   2.394   0.972   4.015  0.0976 -0.3822 -0.1224
   49MOL   C31833054   2.299   0.908   4.116 -0.0864  0.4864  0.2647
   49MOL   C31933055   2.156   0.901   4.070 -0.2560  0.1061  0.8220
   49MOL   O32033056   2.115   0.964   3.975 -0.0143  0.3508 -0.3194
   49MOL   H32133057   3.171   1.379   3.792  0.0724  0.5649 -0.0190
   49MOL   H32233058   3.350   1.418   3.989 -1.1118  2.6747 -1.1878
   49MOL   H32333059   3.422   1.291   3.900 -0.1132 -0.0993 -1.3402
   49MOL   H32433060   3.262   1.213   4.088 -0.1741 -0.2524  0.0663
   49MOL   H32533061   3.242   1.131   3.938 -2.0071 -0.3564  0.2194
   49MOL   H32633062   3.074   1.372   4.044 -0.0561 -0.9504  0.5949
   49MOL   H32733063   3.054   1.299   3.882  1.0775  1.0352 -0.5560
   49MOL   H32833064   2.980   1.194   4.147  0.4490 -0.2849 -1.0855
   49MOL   H32933065   3.037   1.075   4.043  2.1158  1.1012 -2.4694
   49MOL   H33033066   2.863   1.163   3.864 -0.0994  0.4148  0.0778
   49MOL   H33133067   2.813   1.280   3.977 -0.7525 -0.0034 -0.4233
   49MOL   H33233068   2.816   0.986   4.001  1.0544  0.9580 -2.0828
   49MOL   H33333069   2.759   1.098   4.133 -1.4198 -1.7912  0.4760
   49MOL   H33433070   2.609   1.068   3.856  1.9481  1.4315 -0.3197
   49MOL   H33533071   2.569   1.163   3.993  0.6390  0.1602  0.3189
   49MOL   H33633072   2.569   0.853   4.026 -1.4272 -0.2379 -1.9269
   49MOL   H33733073   2.560   0.974   4.152 -2.5972 -0.5919  1.0222
   49MOL   H33833074   2.374   0.944   3.911 -0.6216 -0.7607  0.1156
   49MOL   H33933075   2.367   1.078   4.011  3.8813  0.5887 -1.8349
   49MOL   H34033076   2.301   0.966   4.208  3.0850  2.2812 -0.8427
   49MOL   H34133077   2.340   0.811   4.145 -1.5634 -0.4136 -0.6347
   49MOL   N34233078   2.084   0.811   4.132 -0.1573 -0.4261 -0.3318
   49MOL   C34333079   1.939   0.803   4.123  0.7234 -0.9365  0.0692
   49MOL   C34433080   1.892   0.654   4.109 -0.3207  0.4342 -0.5638
   49MOL   C34533081   1.744   0.638   4.071  0.6030  0.1997  0.4959
   49MOL   C34633082   1.705   0.713   3.948 -0.3958 -0.2422  0.1250
   49MOL   C34733083   1.571   0.666   3.875 -0.9673 -0.1312 -0.1780
   49MOL   C34833084   1.503   0.790   3.807  0.3858 -0.6625  0.0232
   49MOL   C34933085   1.370   0.765   3.731 -0.4331 -0.2549 -0.1227
   49MOL   C35033086   1.245   0.756   3.821 -0.0446  0.2439 -0.3167
   49MOL   C35133087   1.118   0.693   3.757  0.2557  0.3771 -0.6088
   49MOL   C35233088   1.054   0.773   3.643 -0.1146  0.2039  0.4659
   49MOL   C35333089   0.933   0.696   3.575  0.3633 -0.2874 -0.5233
   49MOL   O35433090   0.880   0.602   3.641  0.2362  0.3051 -0.4456
   49MOL   H35533091   2.128   0.771   4.214 -0.4438  0.8855  0.4717
   49MOL   H35633092   1.910   0.847   4.218 -2.2346  0.6846 -1.5223
   49MOL   H35733093   1.895   0.870   4.050 -0.9375  0.2720  2.1075
   49MOL   H35833094   1.885   0.604   4.206 -0.6853  2.1679  0.3166
   49MOL   H35933095   1.944   0.593   4.035  0.3903 -2.0465  1.8584
   49MOL   H36033096   1.718   0.533   4.058  2.2587 -0.2660  0.9248
   49MOL   H36133097   1.670   0.675   4.142 -1.2925 -0.4951 -1.0596
   49MOL   H36233098   1.785   0.727   3.875 -0.8040  1.8516  0.0420
   49MOL   H36333099   1.690   0.815   3.985 -1.7339 -0.4334  0.1485
   49MOL   H36433100   1.501   0.614   3.939  1.2411 -2.5465  0.3515
   49MOL   H36533101   1.600   0.614   3.784 -0.3945  0.8568 -0.5766
   49MOL   H36633102   1.493   0.855   3.893  2.7099  0.5227 -0.5655
   49MOL   H36733103   1.576   0.830   3.736  0.7831 -2.5462 -0.6713
   49MOL   H36833104   1.371   0.685   3.658  1.5928 -0.4338  0.0856
   49MOL   H36933105   1.370   0.854   3.667 -0.5385 -1.3814 -1.7265
   49MOL   H37033106   1.269   0.696   3.908 -0.1922 -0.4972 -0.7840
   49MOL   H37133107   1.228   0.859   3.853 -0.9299  0.4475 -1.3722
   49MOL   H37233108   1.055   0.673   3.844  2.7406 -0.0169  1.1760
   49MOL   H37333109   1.149   0.596   3.717  2.0684  0.0962  1.3491
   49MOL   H37433110   1.130   0.789   3.567 -0.2867 -0.9183  0.0457
   49MOL   H37533111   1.023   0.873   3.674  0.3400  0.0788  1.3407
   49MOL   N37633112   0.892   0.741   3.460 -0.2573  0.2580  0.0478
   49MOL   C37733113   0.787   0.680   3.380 -0.6369  0.4787 -0.6346
   49MOL   C37833114   0.720   0.783   3.289  0.8737 -0.3255 -0.0836
   49MOL   C37933115   0.590   0.720   3.225 -0.3788 -0.5125 -0.3105
   49MOL   C38033116   0.521   0.814   3.131  0.8031  0.4915  0.0991
   49MOL   C38133117   0.405   0.750   3.065 -0.4945  0.1082 -0.2792
   49MOL   C38233118   0.274   0.796   3.142 -0.0093 -0.5802 -0.7345
   49MOL   C38333119   0.143   0.750   3.082  0.3771  0.6952  0.2048
   49MOL   C38433120   0.022   0.781   3.177  0.3373  0.7460  0.3945
   49MOL   C38533121   7.686   0.927   3.195  0.5633  0.1443 -0.2960
   49MOL   C38633122   7.593   0.981   3.083  0.0760  0.1905  0.3853
   49MOL   C38733123   7.655   1.044   2.960 -0.6288 -0.0846 -0.3734
   49MOL   O38833124   7.712   1.151   2.972  0.1790 -0.1413  0.3853
   49MOL   H38933125   0.944   0.824   3.434  0.0071  0.3608  0.8935
   49MOL   H39033126   0.829   0.604   3.315 -1.3270 -0.9804  0.5875
   49MOL   H39133127   0.703   0.639   3.435 -0.7116 -1.1070 -1.9055
   49MOL   H39233128   0.783   0.838   3.219 -0.5127  0.8384 -0.4590
   49MOL   H39333129   0.671   0.859   3.351 -0.5820 -1.6252  0.4077
   49MOL   H39433130   0.624   0.630   3.173  2.6697  0.8766 -0.8528
   49MOL   H39533131   0.522   0.690   3.304 -0.4205 -0.5023 -0.3425
   49MOL   H39633132   0.594   0.836   3.054 -0.1796 -0.8226 -1.2526
   49MOL   H39733133   0.505   0.907   3.185  0.9926 -0.9255  2.6816
   49MOL   H39833134   0.416   0.642   3.062  0.9599  0.2436  0.0421
   49MOL   H39933135   0.404   0.786   2.962 -1.9675  0.5650 -0.1250
   49MOL   H40033136   0.287   0.779   3.249  0.3121  1.9249 -0.3468
   49MOL   H40133137   0.278   0.905   3.142  0.7075 -0.6030 -1.0551
   49MOL   H40233138   0.141   0.641   3.073  0.9849  0.5485  1.6628
   49MOL   H40333139   0.125   0.802   2.988  0.0902  0.3425  0.0606
   49MOL   H40433140   7.647   0.728   3.147  0.3815 -0.5228  2.3834
   49MOL   H40533141   0.040   0.734   3.274  0.2774 -0.3709 -0.1266
   49MOL   H40633142   0.049   1.002   3.206 -0.2021  0.8531  0.3975
   49MOL   H40733143   7.633   0.948   3.288  1.5054  0.6765  0.1366
   49MOL   H40833144   7.545   1.072   3.119  0.1713 -0.1599  1.4150
   49MOL   H40933145   7.522   0.900   3.070  0.9219  0.0697 -4.3413
   49MOL   N41033146   7.648   0.983   2.842 -0.6564 -0.4852 -0.3410
   49MOL   C41133147   7.683   1.042   2.717  0.7132 -0.0885  0.8119
   49MOL   C41233148   7.643   0.947   2.605  0.1907  0.1834 -0.5914
   49MOL   C41333149   7.660   1.006   2.466  0.0947  0.0979 -0.2445
   49MOL   C41433150   7.630   0.907   2.349 -0.4951  0.0641 -0.5252
   49MOL   C41533151   7.674   0.978   2.218  0.3449 -0.0960  0.3932
   49MOL   C41633152   0.107   0.994   2.200  0.2598  0.2596  0.9501
   49MOL   C41733153   0.156   1.031   2.052 -0.9925  0.6455  0.5845
   49MOL   C41833154   0.307   1.032   2.033 -0.0674  0.3176  0.0338
   49MOL   C41933155   0.382   1.115   2.135  0.3981  0.9450 -0.0696
   49MOL   C42033156   0.538   1.129   2.107 -0.8349  0.4331 -0.0550
   49MOL   C42133157   0.609   1.231   2.195  0.5459 -0.2279 -0.7485
   49MOL   O42233158   0.562   1.275   2.299 -0.2517  0.9777  0.2129
   49MOL   H42333159   7.609   0.891   2.826  1.6445 -1.1443 -2.4959
   49MOL   H42433160   7.644   1.143   2.703  1.9708  0.5673  1.9809
   49MOL   H42533161   0.075   1.057   2.707  0.7675 -1.6919 -1.3374
   49MOL   H42633162   7.538   0.918   2.614 -0.4229  1.5238 -2.9265
   49MOL   H42733163   7.705   0.857   2.607 -0.0104  0.0668  1.0090
   49MOL   H42833164   7.601   1.097   2.457 -0.4394 -0.3712 -1.6897
   49MOL   H42933165   0.049   1.027   2.444 -0.4893  1.0210 -2.3419
   49MOL   H43033166   7.525   0.878   2.342 -0.6561  0.2952  0.6908
   49MOL   H43133167   7.672   0.808   2.361 -3.3813 -1.2082 -0.5537
   49MOL   H43233168   7.620   1.070   2.195 -1.2466 -1.2958 -0.7327
   49MOL   H43333169   7.649   0.925   2.126  1.2820  0.9781 -0.4833
   49MOL   H43433170   0.150   1.063   2.271  2.4208 -1.2321  1.1458
   49MOL   H43533171   0.161   0.900   2.217  0.6466  0.1576 -0.7607
   49MOL   H43633172   0.116   1.124   2.012 -1.3396 -0.6100 -2.0803
   49MOL   H43733173   0.109   0.955   1.990  3.5193 -0.1086 -2.1708
   49MOL   H43833174   0.336   0.927   2.037  1.2390  0.7195  1.8035
   49MOL   H43933175   0.322   1.064   1.930 -2.0495 -2.0034 -1.0016
   49MOL   H44033176   0.372   1.070   2.234  0.7424  1.3826  0.1650
   49MOL   H44133177   0.339   1.214   2.148  0.5247  1.1227 -0.9612
   49MOL   H44233178   0.553   1.160   2.003  0.6943 -0.7553 -0.2055
   49MOL   H44333179   0.589   1.033   2.111 -2.6706 -0.5375  0.3811
   49MOL   N44433180   0.723   1.278   2.144  0.1320 -0.2583  1.0946
   49MOL   C44533181   0.805   1.384   2.189  0.7194 -0.6009 -0.3688
   49MOL   C44633182   0.885   1.370   2.319 -0.4956  0.0375 -0.7619
   49MOL   C44733183   0.966   1.488   2.365 -0.2572 -0.7172 -0.3219
   49MOL   C44833184   1.048   1.461   2.486 -0.1614  0.4046  0.3858
   49MOL   C44933185   1.087   1.592   2.550  0.6581 -0.2438 -0.5424
   49MOL   C45033186   1.168   1.565   2.678 -0.1401  0.1906  0.1425
   49MOL   C45133187   1.096   1.484   2.791  0.0429 -0.4319 -0.0545
   49MOL   C45233188   1.205   1.442   2.895 -0.1099 -0.3086 -0.2798
   49MOL   C45333189   1.288   1.315   2.863  0.1926 -0.3234 -0.2425
   49MOL   C45433190   1.381   1.267   2.979 -0.1147  0.2741 -0.2056
   49MOL   C45533191   1.471   1.155   2.930 -0.2872 -0.5309  0.4229
   49MOL   O45633192   1.419   1.063   2.870  0.1153 -0.2498 -0.1624
   49MOL   H45733193   0.760   1.248   2.055 -0.3435 -0.4449  0.9578
   49MOL   H45833194   0.877   1.390   2.107  2.0056  1.2900  0.8440
   49MOL   H45933195   0.758   1.482   2.196 -0.4075 -1.0755 -1.1257
   49MOL   H46033196   0.956   1.290   2.301 -1.5892 -0.8844 -0.9907
   49MOL   H46133197   0.830   1.322   2.400 -0.1639  1.8627  0.5836
   49MOL   H46233198   1.031   1.525   2.285 -0.7563 -1.1628 -0.9310
   49MOL   H46333199   0.894   1.568   2.383  1.0084  0.6390 -1.1379
   49MOL   H46433200   1.137   1.403   2.460 -0.6577  0.1601 -0.7918
   49MOL   H46533201   0.990   1.397   2.553 -0.3086  0.6912  0.5316
   49MOL   H46633202   0.994   1.642   2.577 -0.4631 -1.9420 -1.2040
   49MOL   H46733203   1.143   1.654   2.481 -0.1064  0.9640 -0.0923
   49MOL   H46833204   1.261   1.516   2.648 -0.9501 -0.9263 -0.6308
   49MOL   H46933205   1.198   1.665   2.711  0.1837 -0.6508  2.4930
   49MOL   H47033206   1.046   1.390   2.764 -2.4776  0.5520  1.0223
   49MOL   H47133207   1.027   1.554   2.838 -2.5813 -2.3178 -0.9176
   49MOL   H47233208   1.280   1.519   2.911  0.5392 -0.3406 -2.8891
   49MOL   H47333209   1.148   1.418   2.984  0.3898 -1.0750 -0.1511
   49MOL   H47433210   1.334   1.330   2.766  0.3273  1.0017  0.0245
   49MOL   H47533211   1.219   1.233   2.841  0.3001 -0.3850 -0.3495
   49MOL   H47633212   1.320   1.232   3.062 -0.2158 -0.2490 -0.4960
   49MOL   H47733213   1.445   1.345   3.019  0.1337 -0.0598  0.0527
   49MOL   N47833214   1.599   1.161   2.957  0.4060  0.1703 -1.2050
   49MOL   C47933215   1.702   1.081   2.905  0.1030 -0.4701  0.6561
   49MOL   C48033216   1.783   1.153   2.790  1.0753 -0.1455 -0.1098
   49MOL   C48133217   1.834   1.043   2.700  0.4707 -0.0103 -0.9693
   49MOL   C48233218   1.926   1.109   2.589 -0.0943  0.6668 -0.0195
   49MOL   C48333219   1.990   0.999   2.497 -0.2767  0.0296 -0.4709
   49MOL   C48433220   1.899   0.949   2.387  0.1967  0.2921  0.3269
   49MOL   C48533221   1.873   1.049   2.277 -0.0641  0.0354  0.6363
   49MOL   C48633222   1.795   0.987   2.161 -0.7859 -1.0298 -0.2074
   49MOL   C48733223   1.778   1.080   2.038  0.3212 -0.2277  0.1473
   49MOL   C48833224   1.687   1.044   1.922 -0.3638  0.1265 -0.4827
   49MOL   C48933225   1.659   1.161   1.829  0.0367  0.1741  0.0844
   49MOL   O49033226   1.744   1.251   1.806 -0.3287  0.4832 -0.5144
   49MOL   H49133227   1.635   1.244   3.002  0.3115  0.3442 -1.4495
   49MOL   H49233228   1.757   1.039   2.989 -0.9237 -1.4763  0.8440
   49MOL   H49333229   1.654   0.992   2.866 -0.6889 -0.5129  1.6930
   49MOL   H49433230   1.859   1.218   2.832  0.9210  0.5813 -0.9116
   49MOL   H49533231   1.725   1.222   2.728 -0.3703 -1.3171 -0.0932
   49MOL   H49633232   1.884   0.967   2.760  0.3464  1.0092  0.4484
   49MOL   H49733233   1.747   0.992   2.658  1.4862 -2.5225 -0.1411
   49MOL   H49833234   2.008   1.157   2.643  1.4454  0.7634 -2.3610
   49MOL   H49933235   1.874   1.186   2.534 -0.3466 -0.4564 -1.3740
   49MOL   H50033236   2.019   0.907   2.549  0.6357 -0.3459 -1.6413
   49MOL   H50133237   2.085   1.034   2.457 -0.6569 -0.5184 -1.8794
   49MOL   H50233238   1.945   0.860   2.345  1.6131  0.1993  2.0409
   49MOL   H50333239   1.804   0.920   2.432  1.5990 -0.8809  2.5589
   49MOL   H50433240   1.963   1.094   2.234  0.1560 -2.0967 -1.1881
   49MOL   H50533241   1.809   1.129   2.314  0.6895  1.2007 -0.5237
   49MOL   H50633242   1.833   0.890   2.128 -1.3982 -1.1321 -0.6092
   49MOL   H50733243   1.693   0.962   2.188 -0.5163 -2.2165 -0.2720
   49MOL   H50833244   1.878   1.107   2.003  0.3461  2.7567  2.3144
   49MOL   H50933245   1.749   1.175   2.083  1.2895  0.2624 -0.2327
   49MOL   H51033246   1.587   1.019   1.959 -1.0894  0.9388 -1.8583
   49MOL   H51133247   1.747   0.964   1.879  0.3797 -0.4067  1.5086
   49MOL   N51233248   1.538   1.162   1.773 -1.1482 -0.2724  0.4954
   49MOL   C51333249   1.493   1.275   1.694 -0.4221  0.5615 -0.1892
   49MOL   C51433250   1.375   1.233   1.609 -0.0834 -0.0801  0.4335
   49MOL   C51533251   1.310   1.362   1.544  0.7800  0.4586 -0.8450
   49MOL   C51633252   1.182   1.327   1.461  0.2679  0.5979  0.3620
   49MOL   C51733253   1.088   1.445   1.432 -0.1651  0.0533 -0.4040
   49MOL   C51833254   1.135   1.546   1.322 -0.4852 -0.5636  0.0556
   49MOL   C51933255   1.068   1.533   1.190  0.6640 -0.6176  0.6833
   49MOL   C52033256   1.123   1.637   1.093  0.6518  0.0069  0.3329
   49MOL   C52133257   1.033   1.670   0.972 -0.7669 -0.0977 -0.6216
   49MOL   C52233258   1.068   1.811   0.917  0.1619  0.0330  0.1602
   49MOL   C52333259   0.989   1.846   0.785 -0.1693  0.7275 -0.9522
   49MOL   O52433260   0.885   1.787   0.765  0.4860 -0.0180 -0.0186
   49MOL   H52533261   1.497   1.071   1.755  0.8591 -1.5904  2.3070
   49MOL   H52633262   1.469   1.361   1.755 -1.5652  2.1289 -2.7482
   49MOL   H52733263   1.568   1.306   1.621  0.9144 -1.7218  0.1466
   49MOL   H52833264   1.302   1.181   1.670 -1.9390  1.6523 -0.2138
   49MOL   H52933265   1.402   1.163   1.530 -1.3785  1.0399 -1.0310
   49MOL   H53033266   1.284   1.438   1.618 -1.3308  0.8884 -2.0143
   49MOL   H53133267   1.378   1.423   1.484  1.3777  1.1441  0.5001
   49MOL   H53233268   1.126   1.253   1.518 -0.6419  1.5554  0.7276
   49MOL   H53333269   1.206   1.274   1.369 -1.1459  1.4461 -0.5174
   49MOL   H53433270   1.064   1.491   1.528 -0.8544 -0.0683 -0.5201
   49MOL   H53533271   0.997   1.392   1.405  0.0364 -2.4537  3.4218
   49MOL   H53633272   1.123   1.647   1.363 -0.9968  0.5552 -2.7130
   49MOL   H53733273   1.243   1.544   1.309 -0.5102  0.3166 -0.3239
   49MOL   H53833274   0.960   1.544   1.207  0.4110 -1.2854 -0.4555
   49MOL   H53933275   1.083   1.433   1.151 -0.1335  0.1002 -1.5554
   49MOL   H54033276   1.162   1.725   1.145  0.1028  1.8579 -2.2987
   49MOL   H54133277   1.211   1.589   1.050 -1.2577 -3.5570  0.3103
   49MOL   H54233278   0.931   1.675   1.010 -0.7921 -1.5633 -0.4733
   49MOL   H54333279   1.031   1.591   0.897  2.9089 -1.1127  0.2633
   49MOL   H54433280   1.172   1.815   0.886 -0.0198  1.0403 -0.3345
   49MOL   H54533281   1.058   1.892   0.990 -2.5647 -1.3918  1.4393
   49MOL   N54633282   1.045   1.937   0.701  0.0164 -0.6511  0.5228
   49MOL   C54733283   0.992   1.998   0.580  0.2150 -0.3034 -0.0987
   49MOL   C54833284   0.860   1.951   0.521 -0.2666  0.5873  0.0315
   49MOL   C54933285   0.813   2.053   0.413 -0.0161 -0.3273 -0.0514
   49MOL   C55033286   0.887   2.034   0.282 -0.2531  0.5771  0.5672
   49MOL   C55133287   0.853   2.138   0.170 -0.0666  0.1846 -0.0485
   49MOL   C55233288   0.912   2.274   0.196  0.3907  0.5304 -0.0106
   49MOL   C55333289   0.937   2.331   0.056 -0.1135 -0.2321  0.3740
   49MOL   C55433290   1.000   2.474   0.066 -0.2057 -0.2881 -0.5300
   49MOL   C55533291   1.152   2.465   0.092 -0.7898 -0.4033  0.1541
   49MOL   C55633292   1.230   2.591   0.068 -0.1984  0.1488 -0.0290
   49MOL   C55733293   1.210   2.703   0.171 -0.1483 -0.2580 -0.4896
   49MOL   O55833294   1.097   2.734   0.199  0.0052 -0.0644 -0.5513
   49MOL   H55933295   1.126   1.981   0.742 -0.0914 -1.0517  1.1758
   49MOL   H56033296   0.974   2.105   0.583 -0.7555 -0.4063 -1.7559
   49MOL   H56133297   1.073   1.991   0.507  1.3004  1.1089  0.9575
   49MOL   H56233298   0.777   1.944   0.592 -3.4632 -1.1218 -3.6743
   49MOL   H56333299   0.868   1.851   0.477 -2.6116  0.7944 -0.9465
   49MOL   H56433300   0.706   2.041   0.394  0.4112 -1.9836 -1.5268
   49MOL   H56533301   0.800   2.157   0.444 -2.0995 -0.6766  0.3702
   49MOL   H56633302   0.884   1.933   0.241  1.3914  0.3058  1.0819
   49MOL   H56733303   0.993   2.048   0.301  0.3134 -0.9977 -1.3401
   49MOL   H56833304   0.745   2.151   0.159 -0.5587 -1.9224  1.8501
   49MOL   H56933305   0.893   2.088   0.083 -0.9871  0.2233 -0.4999
   49MOL   H57033306   0.864   2.335   0.273 -0.1327 -3.3634  2.8895
   49MOL   H57133307   1.008   2.258   0.245  0.4838 -0.0363 -0.3771
   49MOL   H57233308   0.841   2.341   0.006  2.3272  1.0788 -4.2907
   49MOL   H57333309   0.994   2.269   7.703 -0.1029 -0.4014  0.5321
   49MOL   H57433310   0.979   2.527   7.688  0.2527 -0.6499 -0.8404
   49MOL   H57533311   0.947   2.533   0.140  1.0932 -0.4256  0.5221
   49MOL   H57633312   1.186   2.401   0.011 -1.1382  0.4737 -0.6864
   49MOL   H57733313   1.169   2.422   0.191  0.3669  0.2401  0.2405
   49MOL   H57833314   1.206   2.638   7.688  1.3162 -0.0612 -0.5242
   49MOL   H57933315   1.336   2.567   0.064 -0.4187 -1.5339  3.1442
   49MOL   N58033316   1.310   2.758   0.233 -0.0253 -0.0559 -0.4305
   49MOL   C58133317   1.295   2.866   0.323  0.0735  0.0100  0.8755
   49MOL   C58233318   1.331   2.831   0.462 -0.3760  0.5487  0.7188
   49MOL   C58333319   1.340   2.958   0.548  0.0030 -0.7473 -0.2254
   49MOL   C58433320   1.363   2.920   0.693 -0.5846  0.2948  0.6307
   49MOL   C58533321   1.364   3.047   0.774  0.6660  0.3808 -0.1571
   49MOL   C58633322   1.407   3.028   0.929  0.1037 -0.5433 -0.1570
   49MOL   C58733323   1.398   3.158   1.012 -0.1285  0.3034  0.5548
   49MOL   C58833324   1.261   3.227   0.984  0.0430  0.3409  0.3228
   49MOL   C58933325   1.245   3.334   1.091  0.4912 -0.2645  0.8519
   49MOL   C59033326   1.121   3.418   1.069  1.2132  0.7644  0.0776
   49MOL   C59133327   1.082   3.530   1.163  0.2283  0.5044  0.6007
   49MOL   O59233328   1.145   3.541   1.269 -0.0599 -0.2534 -0.0324
   49MOL   H59333329   1.400   2.718   0.210 -0.4377 -2.1505  1.4333
   49MOL   H59433330   1.362   2.945   0.289  2.8180 -2.3981  0.4888
   49MOL   H59533331   1.195   2.910   0.321  0.1061  0.0951  1.1122
   49MOL   H59633332   1.423   2.774   0.472 -0.0325  1.2531  1.6525
   49MOL   H59733333   1.252   2.763   0.493  0.1919  0.1826  1.3665
   49MOL   H59833334   1.414   3.028   0.509  0.1286 -0.7428  0.0173
   49MOL   H59933335   1.241   3.004   0.543 -0.0930 -0.4131  3.4380
   49MOL   H60033336   1.456   2.864   0.702 -0.0638  0.9096 -0.7537
   49MOL   H60133337   1.284   2.853   0.728 -1.1091  0.4714 -0.1813
   49MOL   H60233338   1.262   3.084   0.762 -0.2644 -2.5291 -1.5610
   49MOL   H60333339   1.434   3.116   0.727  2.0019 -1.2862 -0.6674
   49MOL   H60433340   1.344   2.951   0.973 -0.5885  0.1943  0.1739
   49MOL   H60533341   1.513   3.003   0.932  0.1032 -0.3532  2.4400
   49MOL   H60633342   1.485   3.218   0.984 -0.5129 -0.1191 -1.6227
   49MOL   H60733343   1.400   3.151   1.120 -0.0336 -1.1503  0.4701
   49MOL   H60833344   1.253   3.282   0.890  2.4546  0.4548  0.1529
   49MOL   H60933345   1.175   3.161   0.991  1.7162 -1.7582  1.5003
   49MOL   H61033346   1.330   3.403   1.087  0.7011 -0.4267  2.1640
   49MOL   H61133347   1.241   3.296   1.193  1.0637  1.4301  1.5197
   49MOL   H61233348   1.034   3.353   1.060  0.5463  1.6979 -0.3810
   49MOL   H61333349   1.116   3.466   0.971  0.5844 -0.3033 -0.4134
   49MOL   N61433350   0.975   3.604   1.129  0.3927 -0.2818  0.0554
   49MOL   C61533351   0.914   3.701   1.212 -0.6982 -0.2575 -0.2073
   49MOL   C61633352   0.879   3.831   1.144  0.3099  0.4540  0.3188
   49MOL   C61733353   0.828   3.940   1.245 -0.2052  0.4599 -0.5260
   49MOL   C61833354   0.823   4.080   1.184 -0.6850  0.1173 -0.0823
   49MOL   C61933355   0.746   4.098   1.052 -0.4101  0.3404 -0.3128
   49MOL   C62033356   0.603   4.027   1.054  0.0569  0.0389 -0.5549
   49MOL   C62133357   0.508   4.062   0.935 -0.1180  0.0635 -0.4237
   49MOL   C62233358   0.551   4.024   0.797  0.1560 -0.1386 -0.5159
   49MOL   C62333359   0.427   4.045   0.701  0.1122  0.1195  0.0866
   49MOL   C62433360   0.433   3.979   0.563  0.1749  0.4647  0.3201
   49MOL   C62533361   0.442   3.829   0.574  0.3934  0.4417 -0.4368
   49MOL   O62633362   0.334   3.763   0.588 -0.2471  0.2652 -0.0726
   49MOL   H62733363   0.931   3.579   1.042  0.0880 -2.9934  0.9271
   49MOL   H62833364   0.971   3.718   1.303  0.6172 -3.5170 -0.3921
   49MOL   H62933365   0.822   3.656   1.249 -0.1691 -0.0548  1.3871
   49MOL   H63033366   0.805   3.807   1.068 -1.5161 -0.2290  2.2809
   49MOL   H63133367   0.971   3.876   1.106 -0.4837  1.2671 -0.6736
   49MOL   H63233368   0.725   3.914   1.271 -0.2258  1.4204  0.3601
   49MOL   H63333369   0.887   3.945   1.336 -2.2767 -0.9777  0.9462
   49MOL   H63433370   0.927   4.103   1.162 -0.2363 -1.3617  0.4026
   49MOL   H63533371   0.780   4.150   1.256  1.5476 -0.3817  1.8177
   49MOL   H63633372   0.810   4.063   0.971 -0.1670  0.6668 -0.2633
   49MOL   H63733373   0.737   4.207   1.047 -0.0476  0.4268  0.7358
   49MOL   H63833374   0.615   3.919   1.061  1.3026  0.2432  0.6222
   49MOL   H63933375   0.546   4.050   1.144  0.5205 -0.7145 -0.0672
   49MOL   H64033376   0.482   4.168   0.938 -1.6530 -0.3213  2.1553
   49MOL   H64133377   0.418   4.005   0.961  0.2958 -0.6244 -0.4884
   49MOL   H64233378   0.629   4.094   0.768  0.4268 -0.3714 -0.3538
   49MOL   H64333379   0.597   3.926   0.793  0.8662  0.0600  1.9691
   49MOL   H64433380   0.412   4.152   0.693  0.6670  0.3833  2.2368
   49MOL   H64533381   0.336   4.008   0.747 -1.1005  0.1319 -2.2236
   49MOL   H64633382   0.520   4.018   0.510  0.7678 -0.7611  0.3867
   49MOL   H64733383   0.343   4.009   0.509 -0.0593 -0.6542  0.0813
   49MOL   N64833384   0.557   3.767   0.550 -0.3181  0.5519 -0.2701
   49MOL   C64933385   0.569   3.622   0.550  0.6573 -0.2255  0.2944
   49MOL   C65033386   0.521   3.557   0.416  0.1830  0.8638 -0.1698
   49MOL   C65133387   0.519   3.406   0.417 -0.1025  0.8551  0.1614
   49MOL   C65233388   0.416   3.332   0.498 -0.3445  0.6682 -0.4893
   49MOL   C65333389   0.433   3.180   0.496 -0.7077  0.6441 -0.7759
   49MOL   C65433390   0.334   3.119   0.597  0.5208  0.9721 -0.0543
   49MOL   C65533391   0.346   2.967   0.615  0.0470 -0.2367 -0.4431
   49MOL   C65633392   0.309   2.885   0.486  0.5545  0.2285 -0.3817
   49MOL   C65733393   0.299   2.731   0.514  0.0652  0.3802 -0.0853
   49MOL   C65833394   0.243   2.648   0.388 -0.0854  0.2688  0.1500
   49MOL   C65933395   0.097   2.667   0.372 -0.0893  0.1307 -0.5699
   49MOL   O66033396   0.016   2.645   0.463 -0.4223 -0.1416 -0.5781
   49MOL   H66133397   0.639   3.821   0.524  0.6867 -0.0763  1.4826
   49MOL   H66233398   0.522   3.570   0.633  0.9650 -2.9045 -1.1195
   49MOL   H66333399   0.672   3.585   0.549  1.0389  0.7903 -2.0718
   49MOL   H66433400   0.583   3.593   0.333  2.4652 -3.0530 -0.2673
   49MOL   H66533401   0.426   3.609   0.404  0.3157  0.8676 -1.2784
   49MOL   H66633402   0.519   3.388   0.310 -1.3989  1.1448  0.1008
   49MOL   H66733403   0.622   3.378   0.437  0.1956  0.8505 -1.3530
   49MOL   H66833404   0.315   3.351   0.462 -1.1973 -4.8170 -1.3792
   49MOL   H66933405   0.421   3.374   0.599  0.0974 -0.0147 -0.2298
   49MOL   H67033406   0.535   3.151   0.523 -0.7204  0.8527 -0.5027
   49MOL   H67133407   0.434   3.128   0.400  1.5976 -3.1540  1.1342
   49MOL   H67233408   0.365   3.153   0.695 -1.9433 -1.2962  1.6006
   49MOL   H67333409   0.231   3.147   0.572 -0.1655 -1.7820 -0.5654
   49MOL   H67433410   0.285   2.930   0.698  2.4954 -2.2023  0.5585
   49MOL   H67533411   0.450   2.937   0.633  0.6265  1.0282 -1.6424
   49MOL   H67633412   0.207   2.917   0.466  0.6337  1.1062  0.5756
   49MOL   H67733413   0.355   2.908   0.390  1.3309 -2.8450 -0.8089
   49MOL   H67833414   0.241   2.703   0.602  0.9010 -0.8881  0.0897
   49MOL   H67933415   0.399   2.698   0.544 -0.1626 -0.9325 -0.7072
   49MOL   H68033416   0.255   2.539   0.390  1.6576  0.3545 -2.4220
   49MOL   H68133417   0.305   2.674   0.302  0.8067 -2.8208 -0.2005
   49MOL   H68233418   0.063   2.700   0.274  0.0338  1.0115 -0.3198
   50MOL     N133419   5.754   6.385   2.148  0.1281  0.0366  0.1619
   50MOL     C233420   5.761   6.238   2.118  0.1466  0.5367  0.4820
   50MOL     C333421   5.736   6.161   2.246 -0.3034 -0.4983 -0.0194
   50MOL     C433422   5.604   6.189   2.315  0.0446  0.3347  0.1279
   50MOL     C533423   5.596   6.119   2.447  0.2560 -0.3279  0.1864
   50MOL     C633424   5.464   6.145   2.521  0.2099 -0.0398 -0.0464
   50MOL     C733425   5.463   6.060   2.644  0.4878  0.2324 -0.3758
   50MOL     C833426   5.325   6.044   2.708  0.6464 -0.4561  0.1791
   50MOL     C933427   5.233   5.946   2.627  0.6139  0.9455  0.1100
   50MOL    C1033428   5.102   5.918   2.699  0.7320  0.1322  0.3601
   50MOL    C1133429   4.982   5.855   2.615 -0.4095  0.0119  0.3288
   50MOL    C1233430   5.017   5.718   2.555  0.9481  0.8555 -0.3824
   50MOL    O1333431   5.110   5.653   2.594  0.2536 -0.0380 -0.2161
   50MOL    H1433432   5.656   6.392   2.172  0.3573  0.3691  1.0214
   50MOL    H1533433   5.861   6.205   2.088 -0.3408 -1.2956  0.8655
   50MOL    H1633434   5.691   6.227   2.035  1.4657  1.2542 -0.7569
   50MOL    H1733435   5.810   6.191   2.321 -0.3177  1.5291 -0.7691
   50MOL    H1833436   5.747   6.055   2.227  1.2861 -0.0039 -2.0310
   50MOL    H1933437   5.577   6.293   2.337 -1.7834 -0.1142  0.1010
   50MOL    H2033438   5.532   6.156   2.240  1.0486  0.2492 -0.8123
   50MOL    H2133439   5.680   6.154   2.507 -0.0177 -0.8590  0.8969
   50MOL    H2233440   5.615   6.012   2.437 -1.1191 -0.4850 -0.9423
   50MOL    H2333441   5.383   6.121   2.453 -0.6434  3.7445 -0.4599
   50MOL    H2433442   5.452   6.249   2.551  1.7172 -0.1721  1.1117
   50MOL    H2533443   5.507   5.965   2.611  1.9788  0.6811  0.2491
   50MOL    H2633444   5.535   6.099   2.717  0.3245 -1.1346  0.5326
   50MOL    H2733445   5.270   6.137   2.724 -1.0005 -1.5025  0.6517
   50MOL    H2833446   5.331   6.000   2.807 -1.3244  1.4535  1.1974
   50MOL    H2933447   5.223   5.985   2.526 -1.4119 -1.5416 -0.6849
   50MOL    H3033448   5.277   5.848   2.610  1.5864  1.1778  1.2339
   50MOL    H3133449   5.061   6.004   2.752 -1.1266 -0.0962 -0.6718
   50MOL    H3233450   5.121   5.843   2.776 -1.1454  0.2264  0.9328
   50MOL    H3333451   4.949   5.917   2.531  0.6848  0.2083  0.0359
   50MOL    H3433452   4.891   5.843   2.674 -0.5583 -0.4003  0.0231
   50MOL    H3533453   5.800   6.406   2.235  0.4901 -1.7436  0.4072
   50MOL    N3633454   4.939   5.670   2.454 -0.0628 -0.0357 -0.5826
   50MOL    C3733455   4.964   5.551   2.372 -0.4434  0.1310  0.2972
   50MOL    C3833456   4.829   5.490   2.335 -0.0531  0.0720  0.2289
   50MOL    C3933457   4.740   5.436   2.449 -0.5733 -0.1840 -0.1116
   50MOL    C4033458   4.604   5.385   2.397 -0.3736  0.1588  0.4118
   50MOL    C4133459   4.610   5.256   2.313 -0.8421  0.3800  0.0995
   50MOL    C4233460   4.631   5.134   2.396  1.0703  0.0988  0.9685
   50MOL    C4333461   4.664   5.001   2.316  0.3951 -0.1596 -0.7934
   50MOL    C4433462   4.708   4.891   2.404  0.4035  0.2627 -0.5245
   50MOL    C4533463   4.757   4.772   2.327 -0.1798  0.4505 -1.0002
   50MOL    C4633464   4.804   4.662   2.421 -0.0960 -0.1162  1.1933
   50MOL    C4733465   4.940   4.698   2.489 -0.3275  0.0793 -0.3845
   50MOL    O4833466   5.036   4.712   2.416  0.5950  0.3916 -0.2207
   50MOL    H4933467   4.868   5.732   2.416 -1.0760  0.4937  2.0371
   50MOL    H5033468   5.019   5.578   2.282 -2.1919  0.1576 -0.7765
   50MOL    H5133469   5.026   5.480   2.427 -1.2532 -0.8081 -0.0047
   50MOL    H5233470   4.857   5.402   2.278 -0.1192  1.4479 -2.0090
   50MOL    H5333471   4.770   5.560   2.275 -1.9710  0.3914  2.4451
   50MOL    H5433472   4.793   5.358   2.504 -0.0423  0.5363  0.3964
   50MOL    H5533473   4.724   5.518   2.518 -1.4200 -0.5408  0.1142
   50MOL    H5633474   4.562   5.468   2.339  0.9326 -0.2513 -1.1458
   50MOL    H5733475   4.545   5.363   2.486  0.1155 -1.3409  0.3666
   50MOL    H5833476   4.680   5.262   2.229 -0.8101  0.2326  0.1153
   50MOL    H5933477   4.512   5.244   2.267 -0.6236 -1.3195  0.0246
   50MOL    H6033478   4.717   5.150   2.462  0.1502 -0.7973  2.4267
   50MOL    H6133479   4.544   5.108   2.456 -1.9883  1.7898 -2.5648
   50MOL    H6233480   4.747   5.029   2.251 -0.0440 -1.1301 -1.7766
   50MOL    H6333481   4.576   4.975   2.257 -0.8668  0.8220  0.6082
   50MOL    H6433482   4.775   4.918   2.485 -2.0357 -1.3376  2.1467
   50MOL    H6533483   4.621   4.858   2.462  0.5138  1.8238  0.5694
   50MOL    H6633484   4.840   4.808   2.266  0.0591 -0.0109 -0.9574
   50MOL    H6733485   4.679   4.734   2.262 -0.8078 -1.3639  0.7632
   50MOL    H6833486   4.827   4.571   2.365 -1.2102 -1.0608  2.2510
   50MOL    H6933487   4.730   4.645   2.499 -1.4694  1.2704  0.2227
   50MOL    N7033488   4.941   4.728   2.621  0.3411  0.3876  0.1398
   50MOL    C7133489   5.056   4.735   2.703 -0.4599  0.8329 -0.1293
   50MOL    C7233490   5.079   4.603   2.796  0.3662  0.0237  0.6126
   50MOL    C7333491   5.131   4.497   2.710 -0.4520  0.0296 -0.0795
   50MOL    C7433492   5.168   4.367   2.794  0.2425  1.3409  0.4647
   50MOL    C7533493   5.038   4.309   2.842 -0.1954 -0.4307 -0.1708
   50MOL    C7633494   5.060   4.173   2.917 -0.2370 -0.2516  0.6819
   50MOL    C7733495   4.934   4.124   2.983 -0.3249 -0.8057 -0.8020
   50MOL    C7833496   4.812   4.117   2.893 -0.8802 -0.3657  0.2217
   50MOL    C7933497   4.818   4.025   2.769 -0.0308  0.2009 -0.6424
   50MOL    C8033498   4.854   3.884   2.810  0.3331  0.1577 -0.5877
   50MOL    C8133499   4.811   3.794   2.693 -0.5778 -0.7342  0.0696
   50MOL    O8233500   4.692   3.784   2.657  0.3950 -0.7082 -0.5581
   50MOL    H8333501   4.856   4.725   2.676 -0.2606 -3.8131 -0.8215
   50MOL    H8433502   5.153   4.753   2.657  0.9641  0.1632  2.5065
   50MOL    H8533503   5.034   4.815   2.774 -0.8315  0.5594  0.0661
   50MOL    H8633504   4.991   4.576   2.854 -0.1532 -0.3870 -0.3560
   50MOL    H8733505   5.152   4.622   2.874  1.5028  0.5089 -0.5437
   50MOL    H8833506   5.053   4.475   2.637  0.6363  0.9630 -1.5313
   50MOL    H8933507   5.228   4.517   2.664 -0.2728 -0.2917  0.1494
   50MOL    H9033508   5.219   4.395   2.886 -0.0984 -0.8420  1.3515
   50MOL    H9133509   5.221   4.283   2.749  0.5974  1.8827 -0.1353
   50MOL    H9233510   4.970   4.279   2.762 -0.1906  0.5214 -0.5409
   50MOL    H9333511   4.988   4.370   2.916 -0.1028 -1.7271  0.9764
   50MOL    H9433512   5.105   4.105   2.845 -1.7010  2.3239 -2.7541
   50MOL    H9533513   5.137   4.180   2.994 -1.6093  1.8275  1.9194
   50MOL    H9633514   4.914   4.190   3.067 -0.4817 -1.4401 -0.3331
   50MOL    H9733515   4.946   4.022   3.020 -0.6119 -1.0051 -1.2539
   50MOL    H9833516   4.747   4.065   2.963 -0.3095  0.3422  1.2811
   50MOL    H9933517   4.774   4.218   2.875  1.3909  0.6219  0.7923
   50MOL   H10033518   4.889   4.068   2.698  1.0590  1.3678  1.1282
   50MOL   H10133519   4.715   4.025   2.733 -0.6022  2.2034  0.9241
   50MOL   H10233520   4.804   3.864   2.905  1.1762  1.8566  0.2497
   50MOL   H10333521   4.962   3.884   2.825  0.4048  0.1204 -1.0949
   50MOL   N10433522   4.910   3.751   2.615 -0.2989  0.2836  0.1653
   50MOL   C10533523   4.894   3.674   2.485  0.3363 -0.6009 -0.4626
   50MOL   C10633524   4.962   3.748   2.368  0.1396  0.0486  0.7081
   50MOL   C10733525   4.961   3.662   2.240 -1.4527 -0.6255 -1.1027
   50MOL   C10833526   5.043   3.529   2.233  1.3338  0.3725 -0.3727
   50MOL   C10933527   5.038   3.447   2.104 -0.5149  0.2976 -0.1120
   50MOL   C11033528   5.172   3.376   2.077  0.3684 -0.3852  1.3619
   50MOL   C11133529   5.207   3.251   2.153  0.2969 -1.5540  0.4620
   50MOL   C11233530   5.337   3.193   2.111  0.7125 -0.3268  0.0697
   50MOL   C11333531   5.368   3.083   2.216  0.3545 -0.3564 -0.0229
   50MOL   C11433532   5.490   3.002   2.170  0.3356  0.2134  0.2954
   50MOL   C11533533   5.511   2.864   2.232  0.2303  0.1063  0.0551
   50MOL   O11633534   5.461   2.835   2.340 -0.5953  0.0680  0.3009
   50MOL   H11733535   5.005   3.746   2.648 -0.0799 -0.4924 -0.5504
   50MOL   H11833536   4.940   3.577   2.499 -0.7186 -0.8039  1.7239
   50MOL   H11933537   4.788   3.666   2.459 -0.2425 -1.0485  1.9742
   50MOL   H12033538   5.063   3.781   2.391 -0.0611  1.7706 -0.6889
   50MOL   H12133539   4.905   3.840   2.353 -3.1690 -1.8713  1.2304
   50MOL   H12233540   4.858   3.643   2.210 -2.0565 -0.8479  1.0389
   50MOL   H12333541   4.997   3.719   2.155  1.4703  1.3152  1.3197
   50MOL   H12433542   4.992   3.469   2.308  1.1704  0.6133 -0.2927
   50MOL   H12533543   5.144   3.550   2.268  0.7819 -0.5354  1.8756
   50MOL   H12633544   5.023   3.495   2.008 -1.5905  1.1051  0.4406
   50MOL   H12733545   4.961   3.371   2.119  3.2826 -3.2480  2.5865
   50MOL   H12833546   5.155   3.333   1.978  1.2225  2.3230  0.0085
   50MOL   H12933547   5.243   3.458   2.075 -1.3526  1.1132 -1.0184
   50MOL   H13033548   5.128   3.177   2.152 -0.0660 -1.2374  3.0050
   50MOL   H13133549   5.220   3.282   2.257 -0.9726 -0.9479  0.4467
   50MOL   H13233550   5.336   3.177   2.003  1.1911  0.4341 -0.0499
   50MOL   H13333551   5.410   3.272   2.123 -0.1181  0.5319 -0.4955
   50MOL   H13433552   5.285   3.013   2.224 -0.5417  0.3351 -2.7257
   50MOL   H13533553   5.396   3.121   2.314 -2.0162 -1.5840  1.1705
   50MOL   H13633554   5.572   3.071   2.190 -0.0039  0.0032  2.5935
   50MOL   H13733555   5.492   2.989   2.062 -1.1264 -1.3774  0.4465
   50MOL   N13833556   5.596   2.776   2.165  0.1107  0.3469 -0.9284
   50MOL   C13933557   5.647   2.655   2.229 -0.3080  0.3592 -0.0325
   50MOL   C14033558   5.767   2.686   2.317  0.6676 -0.4107  0.0450
   50MOL   C14133559   5.824   2.567   2.402 -0.1946 -0.6930  0.5713
   50MOL   C14233560   5.971   2.579   2.452  0.1706  0.5199  0.1079
   50MOL   C14333561   6.023   2.465   2.534 -0.3300  0.9932 -0.2584
   50MOL   C14433562   5.967   2.468   2.676  0.7188  0.2559 -0.2221
   50MOL   C14533563   6.002   2.342   2.750 -1.3255  0.1205  0.2294
   50MOL   C14633564   5.932   2.343   2.881 -0.0327 -0.1353 -0.0690
   50MOL   C14733565   5.946   2.214   2.969  0.0001 -0.2390 -0.8328
   50MOL   C14833566   5.841   2.099   2.929  0.4393 -0.3275 -0.0681
   50MOL   C14933567   5.867   1.966   3.001 -0.4524 -0.6654 -0.1024
   50MOL   O15033568   5.977   1.947   3.059 -0.0711 -0.4251  0.0133
   50MOL   H15133569   5.640   2.813   2.082 -1.5521  1.8270 -1.2024
   50MOL   H15233570   5.571   2.605   2.289 -1.2498 -0.0282 -1.5127
   50MOL   H15333571   5.660   2.582   2.149 -1.1341 -1.2099  1.2414
   50MOL   H15433572   5.741   2.767   2.385  1.3368  2.6952 -3.2169
   50MOL   H15533573   5.840   2.740   2.255 -2.0113 -1.3527 -4.1319
   50MOL   H15633574   5.764   2.557   2.492  1.4862  0.7138  1.8955
   50MOL   H15733575   5.799   2.484   2.337 -0.5822  1.5493 -2.2115
   50MOL   H15833576   5.979   2.678   2.495 -1.9556  0.2083  1.3065
   50MOL   H15933577   6.026   2.575   2.358 -0.2839 -3.6333 -0.0898
   50MOL   H16033578   6.132   2.465   2.525 -0.1464 -0.7184  1.4950
   50MOL   H16133579   5.977   2.381   2.482  1.0380 -0.5389  0.9343
   50MOL   H16233580   5.980   2.563   2.728  2.5512 -0.6746  1.0604
   50MOL   H16333581   5.858   2.465   2.679  0.7238  0.0481 -0.2895
   50MOL   H16433582   6.110   2.343   2.768 -1.2851  0.8089 -0.0340
   50MOL   H16533583   5.980   2.252   2.692  1.1916 -0.3238 -0.1024
   50MOL   H16633584   5.970   2.426   2.940  1.4169 -0.0236 -1.1147
   50MOL   H16733585   5.824   2.347   2.873  0.1793  1.7027 -2.6596
   50MOL   H16833586   5.928   2.236   3.074 -0.0448  1.1404 -1.1304
   50MOL   H16933587   6.047   2.174   2.959  0.8459  0.9888  2.1332
   50MOL   H17033588   5.859   2.094   2.821  4.3112 -1.7580  0.5437
   50MOL   H17133589   5.747   2.151   2.943  0.4502 -0.4255  0.3590
   50MOL   N17233590   5.771   1.874   3.006  0.2410 -0.1490  0.7683
   50MOL   C17333591   5.789   1.743   3.073  0.3496 -0.6973  0.2796
   50MOL   C17433592   5.884   1.649   2.995  0.0971 -0.3256  0.2297
   50MOL   C17533593   5.837   1.608   2.860 -0.2011  0.6187 -0.2909
   50MOL   C17633594   5.944   1.537   2.778  0.4758 -0.5043 -0.2123
   50MOL   C17733595   5.887   1.485   2.649  0.1943 -0.4823 -0.1131
   50MOL   C17833596   5.994   1.446   2.543  0.1209  0.9976  0.5794
   50MOL   C17933597   6.069   1.564   2.474 -0.4124 -0.4551 -0.0341
   50MOL   C18033598   6.165   1.521   2.354 -0.2890 -0.3582 -0.0382
   50MOL   C18133599   6.259   1.626   2.300 -0.4277 -0.1030  0.0336
   50MOL   C18233600   6.342   1.590   2.178  0.4250  0.3883 -0.0268
   50MOL   C18333601   6.272   1.563   2.047 -0.0433 -0.1596 -0.2193
   50MOL   O18433602   6.222   1.655   1.977 -0.1046 -0.2118 -0.1116
   50MOL   H18533603   5.689   1.901   2.953  0.9739  1.8140  0.5660
   50MOL   H18633604   5.837   1.742   3.171 -0.1344 -1.6757  0.5226
   50MOL   H18733605   5.687   1.704   3.070 -1.0157  2.7932 -0.3322
   50MOL   H18833606   5.916   1.561   3.050 -1.7046 -1.2217 -0.1202
   50MOL   H18933607   5.969   1.713   2.972  0.9727 -1.0324  1.4705
   50MOL   H19033608   5.748   1.545   2.866 -0.9331  1.4666 -1.9155
   50MOL   H19133609   5.810   1.700   2.808  1.0073  1.7800  1.0867
   50MOL   H19233610   5.998   1.464   2.838  1.3642  2.3532  2.6281
   50MOL   H19333611   6.023   1.611   2.760  0.4239  0.3400  2.7397
   50MOL   H19433612   5.823   1.562   2.604  0.6897  0.3444  0.5730
   50MOL   H19533613   5.820   1.405   2.681  0.1758  0.4456  2.2647
   50MOL   H19633614   6.063   1.374   2.584 -0.1201  0.8322  0.6980
   50MOL   H19733615   5.954   1.392   2.458 -0.2065 -0.2922  1.5375
   50MOL   H19833616   6.128   1.619   2.546 -1.8079 -1.4436  1.9000
   50MOL   H19933617   5.997   1.629   2.424  1.5658  0.7912 -1.3655
   50MOL   H20033618   6.229   1.444   2.397  0.6801  0.6475  0.3295
   50MOL   H20133619   6.102   1.477   2.276  0.5574 -2.3577  0.3813
   50MOL   H20233620   6.325   1.637   2.386  2.5993 -0.2661 -2.1836
   50MOL   H20333621   6.221   1.722   2.264  0.7459 -0.2585 -1.6518
   50MOL   H20433622   6.407   1.506   2.199 -1.0725 -0.5235  1.0341
   50MOL   H20533623   6.410   1.674   2.161 -0.2570  0.7523 -0.9711
   50MOL   N20633624   6.266   1.436   2.003 -0.3537  0.4344  0.3644
   50MOL   C20733625   6.171   1.386   1.909  0.6196 -0.2907  0.3382
   50MOL   C20833626   6.075   1.292   1.984 -0.1733  0.3058  0.4147
   50MOL   C20933627   5.953   1.258   1.894 -0.1119 -0.2288 -0.6205
   50MOL   C21033628   5.843   1.212   1.987 -0.2287 -0.4878  0.3728
   50MOL   C21133629   5.730   1.145   1.920 -0.8410 -0.1601 -0.0322
   50MOL   C21233630   5.630   1.068   2.014 -0.6708 -0.5945 -0.6744
   50MOL   C21333631   5.531   0.974   1.944 -0.8081  0.1062  0.4439
   50MOL   C21433632   5.441   0.898   2.034  0.3533  0.3586 -0.3044
   50MOL   C21533633   5.340   0.811   1.957  0.6055  0.2803  0.0842
   50MOL   C21633634   5.249   0.715   2.046 -0.3993  0.0211 -0.4879
   50MOL   C21733635   5.320   0.592   2.095 -0.5290 -0.6422  0.4584
   50MOL   O21833636   5.444   0.593   2.120  0.1861  0.1308 -0.2327
   50MOL   H21933637   6.318   1.366   2.052  0.9124  0.1935 -1.2792
   50MOL   H22033638   6.228   1.328   1.836 -2.3277 -1.7068 -0.9443
   50MOL   H22133639   6.123   1.471   1.861 -4.2371 -2.5793  0.7899
   50MOL   H22233640   6.045   1.333   2.080 -1.7096  0.2344 -0.0097
   50MOL   H22333641   6.128   1.198   2.003 -1.3845 -0.8078 -1.5192
   50MOL   H22433642   5.917   1.340   1.832  2.1714  1.6279  0.4319
   50MOL   H22533643   5.976   1.171   1.832 -0.9037 -0.7927 -0.1360
   50MOL   H22633644   5.795   1.294   2.039 -0.1129  0.8578 -1.5700
   50MOL   H22733645   5.894   1.147   2.058 -0.1722 -2.4495 -1.4184
   50MOL   H22833646   5.761   1.074   1.842  1.9726  0.2798  0.6336
   50MOL   H22933647   5.668   1.220   1.872 -3.7280 -1.7836  1.0487
   50MOL   H23033648   5.688   1.007   2.083  0.3679  1.7740  0.6321
   50MOL   H23133649   5.580   1.142   2.077 -1.9978  0.2585 -2.6544
   50MOL   H23233650   5.587   0.905   1.881 -1.8735  1.7658 -2.4303
   50MOL   H23333651   5.472   1.038   1.879  1.5453  1.6184 -0.2778
   50MOL   H23433652   5.504   0.839   2.101  0.4089 -1.1502 -1.6629
   50MOL   H23533653   5.380   0.962   2.098  0.3069  0.8007 -0.7873
   50MOL   H23633654   5.394   0.748   1.886 -2.2080 -1.0099 -1.0073
   50MOL   H23733655   5.282   0.883   1.898 -2.2447 -1.7442  0.3184
   50MOL   H23833656   5.166   0.693   1.978  0.3795  1.0955 -1.8140
   50MOL   H23933657   5.211   0.765   2.135  2.7382  1.0396  0.3402
   50MOL   N24033658   5.251   0.481   2.122 -0.2202  0.2948 -0.1760
   50MOL   C24133659   5.293   0.368   2.204 -0.0754  0.4388 -0.1702
   50MOL   C24233660   5.231   0.367   2.351 -0.1061  0.4432  0.1460
   50MOL   C24333661   5.273   0.245   2.441  0.1286  0.1215 -0.7715
   50MOL   C24433662   5.246   0.263   2.592  0.5128  0.2864  0.6266
   50MOL   C24533663   5.327   0.383   2.645 -0.1919  0.5624 -0.7849
   50MOL   C24633664   5.360   0.356   2.795 -0.2216  0.0618 -0.8461
   50MOL   C24733665   5.431   0.472   2.877 -0.2760  0.2071  0.5691
   50MOL   C24833666   5.565   0.503   2.812 -1.2735 -0.0927  0.3149
   50MOL   C24933667   5.650   0.607   2.890 -0.4634  0.7133 -0.5920
   50MOL   C25033668   5.774   0.670   2.821  0.5581 -0.0913  0.5540
   50MOL   C25133669   5.836   0.777   2.901  0.5607  0.3396 -0.1809
   50MOL   O25233670   5.768   0.855   2.967 -0.3679 -0.3660 -0.6767
   50MOL   H25333671   5.152   0.496   2.110 -0.0127  0.5149 -1.6281
   50MOL   H25433672   5.401   0.376   2.202 -0.0234  0.1143 -4.2760
   50MOL   H25533673   5.273   0.271   2.159  0.9125 -0.9870  2.3778
   50MOL   H25633674   5.122   0.357   2.347  0.0719 -1.0831 -1.4960
   50MOL   H25733675   5.238   0.462   2.403  0.8550 -0.2838  1.3562
   50MOL   H25833676   5.221   0.154   2.409  0.1950 -0.2190  0.0628
   50MOL   H25933677   5.380   0.231   2.426  0.1852  1.9904 -2.2429
   50MOL   H26033678   5.281   0.171   2.639  1.5817  0.1680 -0.3906
   50MOL   H26133679   5.140   0.275   2.614  0.1763 -0.2526 -0.6428
   50MOL   H26233680   5.270   0.475   2.650 -0.4201  0.3038  2.5991
   50MOL   H26333681   5.424   0.397   2.598  1.5778 -1.2697  2.1351
   50MOL   H26433682   5.266   0.327   2.841  0.6147 -0.3680  0.6184
   50MOL   H26533683   5.425   0.270   2.808 -1.1448 -0.6152 -0.7036
   50MOL   H26633684   5.451   0.433   2.977  2.3915 -2.6056 -0.9761
   50MOL   H26733685   5.360   0.555   2.875 -0.3374  0.1822  1.6043
   50MOL   H26833686   5.616   0.406   2.815 -0.1552  0.5269  2.1453
   50MOL   H26933687   5.549   0.534   2.709 -1.9280  0.5653  0.6083
   50MOL   H27033688   5.691   0.568   2.983  2.0316 -0.5660 -2.1666
   50MOL   H27133689   5.585   0.690   2.914  0.5136  1.5201 -0.6886
   50MOL   H27233690   5.744   0.716   2.726 -1.8241  0.3887  1.4873
   50MOL   H27333691   5.847   0.596   2.788  1.3589  0.7600  0.3881
   50MOL   N27433692   5.972   0.784   2.906 -0.3663  0.1100  0.6382
   50MOL   C27533693   6.052   0.888   2.969  0.8955  0.6235 -0.4954
   50MOL   C27633694   6.083   1.010   2.881  0.4316  0.6860 -0.1967
   50MOL   C27733695   6.201   1.100   2.928 -0.2137 -0.9686  0.1751
   50MOL   C27833696   6.224   1.196   2.813 -0.6375  0.1407 -0.5652
   50MOL   C27933697   6.345   1.285   2.829 -0.1072  0.8923 -0.2436
   50MOL   C28033698   6.372   1.382   2.712  0.1758 -0.5322  1.0122
   50MOL   C28133699   6.505   1.461   2.716  0.1201  1.2002 -0.2435
   50MOL   C28233700   6.538   1.548   2.592  0.0991 -0.2168 -0.6007
   50MOL   C28333701   6.575   1.465   2.465  0.2630 -0.1479 -0.3613
   50MOL   C28433702   6.698   1.368   2.484  0.3560  0.2399 -0.5810
   50MOL   C28533703   6.836   1.424   2.492 -0.3696  0.5930 -0.2677
   50MOL   O28633704   6.859   1.543   2.497  0.1428 -0.5288  0.3507
   50MOL   H28733705   6.027   0.707   2.871  0.5229  1.0969 -0.1861
   50MOL   H28833706   6.144   0.849   3.012  0.0798  1.1125  1.7480
   50MOL   H28933707   6.001   0.934   3.054 -1.9815 -0.1013 -1.7793
   50MOL   H29033708   5.985   1.058   2.879 -0.1932 -0.5481 -0.1966
   50MOL   H29133709   6.113   0.978   2.781  0.5455 -2.9724  0.9429
   50MOL   H29233710   6.169   1.144   3.022 -2.5615 -0.1379 -0.9879
   50MOL   H29333711   6.284   1.030   2.939  0.8005  0.0607 -0.7544
   50MOL   H29433712   6.137   1.260   2.799  0.0700  0.9900 -1.1152
   50MOL   H29533713   6.232   1.143   2.719 -1.6452 -2.4783  0.7746
   50MOL   H29633714   6.432   1.221   2.843 -2.0816 -1.7171  0.4953
   50MOL   H29733715   6.320   1.345   2.916 -0.0950  0.3880  0.1058
   50MOL   H29833716   6.369   1.327   2.618  1.8891  1.6726 -0.4037
   50MOL   H29933717   6.289   1.452   2.715 -0.1624 -0.7822 -1.3860
   50MOL   H30033718   6.585   1.400   2.758 -0.4043  0.2265 -0.6263
   50MOL   H30133719   6.492   1.530   2.799 -3.0466  0.9116 -0.4261
   50MOL   H30233720   6.453   1.614   2.575  0.2736 -0.4588 -2.5538
   50MOL   H30333721   6.618   1.614   2.625 -0.4225 -0.7976  1.9158
   50MOL   H30433722   6.588   1.532   2.379  1.4214  0.2570  0.1110
   50MOL   H30533723   6.483   1.415   2.436  0.6348  0.2272 -2.2667
   50MOL   H30633724   6.691   1.314   2.389 -4.5264  1.6093 -1.1275
   50MOL   H30733725   6.682   1.296   2.564 -2.1214  1.1993 -0.1667
   50MOL   N30833726   6.933   1.334   2.478 -0.5801  0.0181  0.1939
   50MOL   C30933727   7.073   1.359   2.486  0.0244 -0.8399 -0.4839
   50MOL   C31033728   7.145   1.220   2.494 -0.2643  0.0221 -0.1996
   50MOL   C31133729   7.299   1.230   2.519 -0.1813  0.0285 -0.3349
   50MOL   C31233730   7.339   1.265   2.665 -0.7282  1.1306 -0.0164
   50MOL   C31333731   7.312   1.152   2.769 -0.3801  0.2104  0.1062
   50MOL   C31433732   7.304   1.213   2.910 -0.0959  0.2150  0.3937
   50MOL   C31533733   7.249   1.113   3.010 -0.3113 -0.5895 -0.4458
   50MOL   C31633734   7.200   1.176   3.137 -0.2593  0.2452 -0.6148
   50MOL   C31733735   7.129   1.089   3.236  0.3551 -0.3242 -0.6223
   50MOL   C31833736   7.066   1.158   3.354  0.1679 -0.2438  0.5166
   50MOL   C31933737   7.005   1.053   3.458 -0.1904  0.1667 -0.1623
   50MOL   O32033738   7.045   0.942   3.468 -0.2289 -0.1378 -0.1537
   50MOL   H32133739   6.908   1.240   2.506  1.2236 -0.8065 -0.9057
   50MOL   H32233740   7.091   1.407   2.582 -0.2621 -1.5456 -0.0773
   50MOL   H32333741   7.107   1.413   2.397  1.7052  0.0357  0.6631
   50MOL   H32433742   7.129   1.165   2.402 -0.8255 -0.8097  0.3862
   50MOL   H32533743   7.087   1.157   2.562  1.2685 -0.0161  1.0928
   50MOL   H32633744   7.344   1.135   2.489 -1.7577 -0.1287 -2.3678
   50MOL   H32733745   7.351   1.304   2.458 -0.2791 -2.1379 -3.1612
   50MOL   H32833746   7.305   1.365   2.692  0.6481  1.2407  1.3894
   50MOL   H32933747   7.447   1.274   2.676 -0.4660 -2.0098  0.6362
   50MOL   H33033748   7.378   1.065   2.764  1.2137  1.1001  4.3545
   50MOL   H33133749   7.211   1.114   2.750 -0.2814 -0.0565  0.1132
   50MOL   H33233750   7.399   1.255   2.944  0.2268 -0.5091  0.3956
   50MOL   H33333751   7.240   1.300   2.895 -0.0739 -0.3234 -3.2730
   50MOL   H33433752   7.320   1.031   3.025  0.8579 -0.3871 -4.3306
   50MOL   H33533753   7.170   1.051   2.967 -1.0820 -1.8770  2.6605
   50MOL   H33633754   7.281   1.223   3.192  0.7280 -0.0720 -1.7628
   50MOL   H33733755   7.143   1.268   3.127 -1.5276 -0.3720  0.7486
   50MOL   H33833756   7.191   1.003   3.261  0.7086 -0.1065 -0.7538
   50MOL   H33933757   7.049   1.036   3.185  0.8033 -1.9260  0.2790
   50MOL   H34033758   6.985   1.219   3.314 -0.4437 -0.3846  1.5156
   50MOL   H34133759   7.134   1.223   3.408 -0.7684 -1.0915  2.7767
   50MOL   N34233760   6.920   1.105   3.547 -0.2988 -0.2594 -0.0105
   50MOL   C34333761   6.860   1.037   3.657  0.2546  0.3955  0.2974
   50MOL   C34433762   6.728   1.094   3.708 -0.5452 -0.7244  0.1502
   50MOL   C34533763   6.743   1.242   3.754 -0.2412  1.0326  0.7694
   50MOL   C34633764   6.720   1.341   3.637  0.4519  0.2920 -0.1811
   50MOL   C34733765   6.725   1.488   3.689  0.0622 -0.0142  0.4158
   50MOL   C34833766   6.608   1.528   3.781  0.0901  0.5651 -0.3470
   50MOL   C34933767   6.605   1.670   3.829 -0.4958 -1.0150 -0.0335
   50MOL   C35033768   6.582   1.779   3.724 -0.8013 -0.1058 -0.5464
   50MOL   C35133769   6.461   1.769   3.627 -0.1734  0.2956  0.4988
   50MOL   C35233770   6.331   1.790   3.690  0.3292 -0.5043 -0.6267
   50MOL   C35333771   6.242   1.666   3.735 -0.7677 -0.2188  0.2855
   50MOL   O35433772   6.250   1.567   3.664 -0.0831 -0.5627 -0.5388
   50MOL   H35533773   6.896   1.203   3.537  4.4948  0.7643 -3.0942
   50MOL   H35633774   6.833   0.938   3.619 -0.7566  0.9911 -0.5539
   50MOL   H35733775   6.940   1.035   3.731  2.9005  3.4142 -2.3099
   50MOL   H35833776   6.688   1.043   3.796  2.6695  0.1433  2.1991
   50MOL   H35933777   6.653   1.094   3.629 -0.3203 -0.6782 -0.0642
   50MOL   H36033778   6.664   1.268   3.824  1.6292 -0.6983  3.6482
   50MOL   H36133779   6.834   1.264   3.810  1.9926  1.0648 -2.6429
   50MOL   H36233780   6.631   1.316   3.580  1.7562 -1.4647 -1.5183
   50MOL   H36333781   6.804   1.341   3.567  0.1159 -0.5557 -0.5797
   50MOL   H36433782   6.747   1.566   3.616  1.8802  0.0775  1.0302
   50MOL   H36533783   6.807   1.491   3.760 -0.2726  0.1607  0.7975
   50MOL   H36633784   6.515   1.503   3.729 -0.7039 -0.4568  1.5289
   50MOL   H36733785   6.593   1.461   3.865  0.0183 -1.3135 -1.8265
   50MOL   H36833786   6.698   1.693   3.881 -0.4045 -0.4012 -0.4592
   50MOL   H36933787   6.520   1.669   3.897 -1.9002 -0.7090 -1.7510
   50MOL   H37033788   6.594   1.879   3.766  0.9019 -0.1874 -0.8343
   50MOL   H37133789   6.674   1.780   3.666 -0.4451 -0.0465  0.0241
   50MOL   H37233790   6.477   1.676   3.573  1.2110 -0.7154  2.5900
   50MOL   H37333791   6.478   1.840   3.545 -0.4514  0.8531  0.9165
   50MOL   H37433792   6.261   1.845   3.627 -2.0945 -1.5096  1.1275
   50MOL   H37533793   6.350   1.867   3.764  0.9050  1.5550 -2.8247
   50MOL   N37633794   6.167   1.687   3.847  0.0996  0.3388 -0.2645
   50MOL   C37733795   6.095   1.578   3.910  0.2185  0.6754  0.0113
   50MOL   C37833796   5.996   1.497   3.829 -0.1517 -0.4910 -0.2320
   50MOL   C37933797   5.905   1.592   3.751  0.1356 -0.4558  0.3956
   50MOL   C38033798   5.784   1.522   3.683 -0.4212 -0.7275 -0.0032
   50MOL   C38133799   5.701   1.598   3.582 -0.1442  0.1199  0.6046
   50MOL   C38233800   5.587   1.505   3.534 -0.6100 -0.3194 -0.4935
   50MOL   C38333801   5.631   1.390   3.449 -0.0006 -0.0650 -0.8194
   50MOL   C38433802   5.522   1.297   3.386  0.4591 -0.5842 -0.3675
   50MOL   C38533803   5.416   1.364   3.298  0.7103 -0.4563  0.0492
   50MOL   C38633804   5.299   1.268   3.256  0.2165 -0.1294  0.2737
   50MOL   C38733805   5.223   1.211   3.372  0.1894  0.5865  0.1278
   50MOL   O38833806   5.162   1.285   3.450 -0.2634 -0.0239 -0.8442
   50MOL   H38933807   6.176   1.771   3.901 -1.8808 -0.4979  1.4284
   50MOL   H39033808   6.161   1.510   3.964  2.9578  0.5546 -3.3416
   50MOL   H39133809   6.037   1.610   3.997 -1.3027  2.3125 -1.5677
   50MOL   H39233810   5.938   1.444   3.904  0.5733  1.1874  1.5873
   50MOL   H39333811   6.047   1.437   3.753  1.9286  2.1898 -1.0684
   50MOL   H39433812   5.873   1.667   3.823  0.3112 -0.3612  0.3731
   50MOL   H39533813   5.959   1.644   3.672  0.9009 -1.0535  0.5262
   50MOL   H39633814   5.716   1.487   3.760 -0.8550 -0.9610 -0.4923
   50MOL   H39733815   5.824   1.427   3.646  0.9959 -0.9097  1.8817
   50MOL   H39833816   5.773   1.618   3.503  0.1228  1.1933  1.1152
   50MOL   H39933817   5.666   1.694   3.620  1.8249  0.2641  2.1028
   50MOL   H40033818   5.520   1.469   3.612 -1.0491 -1.3703 -1.3453
   50MOL   H40133819   5.523   1.562   3.466  0.1751  3.3301  1.6693
   50MOL   H40233820   5.703   1.326   3.501 -1.9286 -1.0822  0.6212
   50MOL   H40333821   5.690   1.443   3.373  0.1856 -1.0995 -1.4057
   50MOL   H40433822   5.578   1.225   3.326  2.3104  1.1366 -0.7747
   50MOL   H40533823   5.470   1.242   3.465 -2.3375  2.1216 -0.2222
   50MOL   H40633824   5.473   1.405   3.214  1.0048 -0.2441  0.3540
   50MOL   H40733825   5.377   1.449   3.355  2.9287 -0.2433  1.2837
   50MOL   H40833826   5.332   1.194   3.184 -2.1131  1.4776 -2.5736
   50MOL   H40933827   5.224   1.329   3.206  0.6603  1.1583  1.1424
   50MOL   N41033828   5.228   1.078   3.388  0.1605 -0.6464 -0.1282
   50MOL   C41133829   5.148   1.000   3.483 -0.2773 -0.1964  0.0337
   50MOL   C41233830   5.213   0.953   3.615  0.3599 -0.7081 -0.5065
   50MOL   C41333831   5.118   0.892   3.724 -0.4489  0.5288 -0.0801
   50MOL   C41433832   5.198   0.849   3.853 -0.0933  0.2551  0.2602
   50MOL   C41533833   5.114   0.807   3.978 -0.3972 -0.2495 -0.3780
   50MOL   C41633834   5.200   0.752   4.088 -0.5987 -0.2794  0.0302
   50MOL   C41733835   5.121   0.746   4.220  0.3889  0.6774  0.5662
   50MOL   C41833836   5.207   0.710   4.340 -0.1133  0.1579  0.5195
   50MOL   C41933837   5.266   0.571   4.343 -0.1877  0.4996 -0.2848
   50MOL   C42033838   5.377   0.545   4.453  0.0522 -0.0376  0.6073
   50MOL   C42133839   5.319   0.544   4.597  0.2066 -0.3095  0.2917
   50MOL   O42233840   5.194   0.552   4.605  0.3024 -0.3357 -0.0280
   50MOL   H42333841   5.284   1.025   3.323  0.2529  0.0353 -0.6093
   50MOL   H42433842   5.074   1.066   3.527 -0.0142 -0.5011  0.9363
   50MOL   H42533843   5.097   0.917   3.436  0.1300 -1.2492  1.4119
   50MOL   H42633844   5.269   1.033   3.663  2.5011 -2.5651  0.1910
   50MOL   H42733845   5.290   0.882   3.586  0.2472 -1.4516  0.9310
   50MOL   H42833846   5.042   0.967   3.745 -1.6585 -0.7856  0.3012
   50MOL   H42933847   5.071   0.801   3.685 -1.0104  0.3264  1.0633
   50MOL   H43033848   5.248   0.940   3.886 -0.6193  0.3814  0.7289
   50MOL   H43133849   5.282   0.783   3.830 -0.0093  0.2645  0.5377
   50MOL   H43233850   5.031   0.739   3.958 -1.8857  0.6875  2.2074
   50MOL   H43333851   5.074   0.907   4.000  0.3354  0.0788 -0.5231
   50MOL   H43433852   5.239   0.652   4.065  1.6590  0.8726 -1.3415
   50MOL   H43533853   5.282   0.823   4.093  0.5051 -1.4503 -0.9951
   50MOL   H43633854   5.046   0.668   4.217  0.1593  0.9389 -1.3804
   50MOL   H43733855   5.068   0.838   4.242  0.8000  0.8890  0.6804
   50MOL   H43833856   5.281   0.790   4.349 -0.1714  0.5235 -1.9231
   50MOL   H43933857   5.152   0.715   4.434  0.0699 -0.4339  0.6607
   50MOL   H44033858   5.318   0.551   4.249 -0.3609 -0.2464 -0.2239
   50MOL   H44133859   5.193   0.492   4.361 -0.9348  0.7759 -1.9785
   50MOL   H44233860   5.461   0.612   4.434  2.0716 -1.8027  2.9136
   50MOL   H44333861   5.431   0.452   4.434  1.4678  0.4522  2.0721
   50MOL   N44433862   5.410   0.527   4.697  0.5151  0.7909 -0.1018
   50MOL   C44533863   5.371   0.523   4.838  0.3098  0.6112  0.1683
   50MOL   C44633864   5.493   0.506   4.932 -0.0810  0.1206  0.5724
   50MOL   C44733865   5.452   0.531   5.082 -0.0005  0.7508 -0.2780
   50MOL   C44833866   5.573   0.561   5.176 -0.0721 -0.8685  1.3573
   50MOL   C44933867   5.526   0.559   5.324 -0.8739  0.2964 -0.1277
   50MOL   C45033868   5.630   0.588   5.426  0.8276 -0.9078  0.2726
   50MOL   C45133869   5.694   0.724   5.410  0.0280 -0.0226  0.0964
   50MOL   C45233870   5.783   0.753   5.530 -0.4265 -0.4273  0.2798
   50MOL   C45333871   5.888   0.857   5.491  0.2497 -0.1683  0.3045
   50MOL   C45433872   6.009   0.868   5.582  0.1003 -0.3138 -0.8104
   50MOL   C45533873   6.100   0.747   5.596 -0.4305  0.4249  0.5756
   50MOL   O45633874   6.076   0.672   5.688 -0.0490 -0.6555 -0.5304
   50MOL   H45733875   5.506   0.520   4.669  0.5941  0.2258  0.3141
   50MOL   H45833876   5.330   0.623   4.853 -3.7227 -0.8551 -0.3104
   50MOL   H45933877   5.292   0.450   4.854  1.2056 -0.6069 -0.8844
   50MOL   H46033878   5.575   0.575   4.912 -0.1033  0.9144  3.0644
   50MOL   H46133879   5.526   0.401   4.933 -0.4155 -0.0887 -3.0419
   50MOL   H46233880   5.377   0.605   5.109  1.0040  1.0237  1.9054
   50MOL   H46333881   5.400   0.447   5.127  0.4408  0.9495  0.6249
   50MOL   H46433882   5.629   0.648   5.141  2.3901 -2.5782  0.9435
   50MOL   H46533883   5.644   0.478   5.171  0.8239 -0.1787  2.2312
   50MOL   H46633884   5.494   0.459   5.351 -2.8558  0.8371 -0.3723
   50MOL   H46733885   5.449   0.633   5.348 -0.8520  0.2621  0.0501
   50MOL   H46833886   5.582   0.582   5.524 -0.4040  3.4484  0.0440
   50MOL   H46933887   5.712   0.517   5.412  3.0849  0.4773  5.1461
   50MOL   H47033888   5.624   0.806   5.396 -1.5583 -1.3275  0.3232
   50MOL   H47133889   5.761   0.724   5.324 -1.1262  0.0248 -0.8087
   50MOL   H47233890   5.736   0.771   5.627 -0.4331 -0.2456  0.2421
   50MOL   H47333891   5.835   0.660   5.554  0.0835  0.1486  1.4478
   50MOL   H47433892   5.837   0.951   5.478  2.4042  0.7699 -1.7950
   50MOL   H47533893   5.927   0.827   5.393 -1.7188 -1.7698 -0.0260
   50MOL   H47633894   5.973   0.888   5.683 -1.7109 -1.4370 -1.2090
   50MOL   H47733895   6.076   0.950   5.556 -0.9594  0.5234 -0.9218
   50MOL   N47833896   6.204   0.736   5.504  0.0173 -0.6560  0.3710
   50MOL   C47933897   6.300   0.625   5.511  0.1725 -0.2073 -0.0487
   50MOL   C48033898   6.352   0.582   5.370 -0.2917 -0.9068 -0.0880
   50MOL   C48133899   6.436   0.454   5.372 -0.0758 -0.5689  0.2198
   50MOL   C48233900   6.526   0.421   5.245 -0.1386 -0.2973  0.4043
   50MOL   C48333901   6.444   0.412   5.118 -0.0117  0.6297  0.7051
   50MOL   C48433902   6.522   0.338   5.010  0.3980 -0.1619 -0.0164
   50MOL   C48533903   6.442   0.289   4.889  0.1562 -0.4505  0.3047
   50MOL   C48633904   6.533   0.246   4.776 -0.3995 -0.6788 -0.7614
   50MOL   C48733905   6.464   0.208   4.638 -0.6306  0.1022  0.4581
   50MOL   C48833906   6.307   0.207   4.628 -0.0203  0.2374  0.1798
   50MOL   C48933907   6.266   0.249   4.488  0.5512 -0.3166  0.5723
   50MOL   O49033908   6.267   0.164   4.398 -0.0225  0.5907 -0.6286
   50MOL   H49133909   6.222   0.807   5.435  0.6569 -0.9827  0.1938
   50MOL   H49233910   6.384   0.647   5.578  0.6538  1.2184 -1.0864
   50MOL   H49333911   6.244   0.547   5.562 -0.3830  0.6701  0.6957
   50MOL   H49433912   6.417   0.662   5.336 -0.8065 -1.0534 -1.4575
   50MOL   H49533913   6.267   0.571   5.302 -2.0722 -1.7844  2.2079
   50MOL   H49633914   6.505   0.467   5.456  2.8085 -2.4948 -1.7445
   50MOL   H49733915   6.377   0.366   5.397 -0.9968  0.1636  0.6402
   50MOL   H49833916   6.575   0.324   5.257 -1.0852 -1.0674 -1.6367
   50MOL   H49933917   6.612   0.488   5.236 -0.2182 -0.1581  0.6951
   50MOL   H50033918   6.416   0.510   5.080  0.6748  0.3569 -0.5261
   50MOL   H50133919   6.344   0.368   5.124 -0.1608  1.1488  2.4357
   50MOL   H50233920   6.608   0.399   4.981  0.6001 -0.5174 -0.1657
   50MOL   H50333921   6.568   0.250   5.055  0.3945 -0.8758 -1.3953
   50MOL   H50433922   6.371   0.365   4.856 -1.1589 -0.9599  1.9049
   50MOL   H50533923   6.390   0.196   4.912 -2.3712  1.0219  0.6345
   50MOL   H50633924   6.606   0.315   4.737  0.4849 -1.6154 -0.7875
   50MOL   H50733925   6.583   0.162   4.826 -1.4304  0.3276  2.0807
   50MOL   H50833926   6.511   0.118   4.598 -1.8872 -0.3542  0.0051
   50MOL   H50933927   6.496   0.288   4.572 -3.9368 -0.6054 -2.1252
   50MOL   H51033928   6.247   0.268   4.696 -1.0552  0.4228 -0.8764
   50MOL   H51133929   6.268   0.107   4.646 -0.3802  0.5333  1.0677
   50MOL   N51233930   6.249   0.379   4.470 -0.3979  0.2902  0.0740
   50MOL   C51333931   6.274   0.445   4.340  0.9433  0.0681  0.2238
   50MOL   C51433932   6.411   0.511   4.331 -0.1219 -0.6330  0.7300
   50MOL   C51533933   6.427   0.592   4.203 -0.0835  0.7157  0.1438
   50MOL   C51633934   6.459   0.508   4.081  0.5837  0.6530  0.2955
   50MOL   C51733935   6.438   0.587   3.950 -0.8320  0.1832 -0.7625
   50MOL   C51833936   6.539   0.705   3.929  0.3918 -0.0856 -0.4836
   50MOL   C51933937   6.544   0.766   3.787 -0.3378  0.7067 -0.2832
   50MOL   C52033938   6.579   0.665   3.676  0.6744 -0.0506  0.6514
   50MOL   C52133939   6.700   0.577   3.695 -0.2255  0.5912  0.2882
   50MOL   C52233940   6.715   0.452   3.610 -0.1382  0.1400  0.6495
   50MOL   C52333941   6.736   0.472   3.459 -0.0234 -0.3689  0.0437
   50MOL   O52433942   6.711   0.584   3.410  0.0891 -0.3378 -0.2094
   50MOL   H52533943   6.244   0.442   4.549 -0.1553 -1.0884  1.2028
   50MOL   H52633944   6.260   0.372   4.261  2.2195 -1.1105  1.0689
   50MOL   H52733945   6.192   0.517   4.335  2.9614  2.4536  0.5180
   50MOL   H52833946   6.486   0.436   4.355 -2.1210 -2.9523 -0.1380
   50MOL   H52933947   6.414   0.574   4.421 -0.9747  0.9687 -0.3320
   50MOL   H53033948   6.334   0.639   4.173 -1.0849 -0.7069  0.9493
   50MOL   H53133949   6.504   0.664   4.230 -1.1034  0.9281  2.5159
   50MOL   H53233950   6.397   0.419   4.063  1.3494  0.6085 -2.3492
   50MOL   H53333951   6.561   0.476   4.100 -0.2859 -0.8150  2.8660
   50MOL   H53433952   6.334   0.614   3.934 -1.0890 -0.1577  0.2910
   50MOL   H53533953   6.464   0.513   3.874 -1.0764  1.6953 -2.3395
   50MOL   H53633954   6.513   0.798   3.980 -1.5629 -1.1008  0.4130
   50MOL   H53733955   6.636   0.686   3.975 -0.2188 -0.4161  0.6892
   50MOL   H53833956   6.619   0.845   3.788  0.6112 -0.1843  2.8532
   50MOL   H53933957   6.450   0.817   3.764 -0.4000  0.7151 -0.0093
   50MOL   H54033958   6.491   0.602   3.663  1.3217 -0.6435 -0.9313
   50MOL   H54133959   6.595   0.732   3.592  0.6354  0.3367  0.9452
   50MOL   H54233960   6.704   0.533   3.795  0.0003 -1.0035 -0.4104
   50MOL   H54333961   6.789   0.641   3.691 -0.8765  1.8465  3.7861
   50MOL   H54433962   6.622   0.399   3.630  0.0710  0.2258  1.9056
   50MOL   H54533963   6.795   0.388   3.648 -0.1221 -0.0459  0.3039
   50MOL   N54633964   6.782   0.375   3.394 -0.0347  0.0406  0.2991
   50MOL   C54733965   6.838   0.385   3.261 -0.8498  0.1245  0.4492
   50MOL   C54833966   6.728   0.386   3.158 -0.0222 -0.5338  0.0980
   50MOL   C54933967   6.774   0.345   3.015  0.6660 -0.3159 -0.8196
   50MOL   C55033968   6.885   0.447   2.959  0.8035  0.0689 -0.6945
   50MOL   C55133969   6.917   0.403   2.812  0.2799 -0.0545  0.2017
   50MOL   C55233970   6.823   0.455   2.704  0.3503  0.1676 -0.5532
   50MOL   C55333971   6.866   0.413   2.566  0.1022  0.0825 -0.6794
   50MOL   C55433972   6.778   0.479   2.461  0.2171  0.0880  0.0057
   50MOL   C55533973   6.650   0.394   2.433 -0.9577 -0.4018  0.7222
   50MOL   C55633974   6.593   0.411   2.288 -0.8856  0.5829 -0.2671
   50MOL   C55733975   6.681   0.339   2.188  0.4036  0.0029  0.0070
   50MOL   O55833976   6.655   0.224   2.146 -0.0921 -0.1451  0.1826
   50MOL   H55933977   6.790   0.289   3.446 -1.4151  0.1116  0.6434
   50MOL   H56033978   6.911   0.465   3.251 -1.8958  1.2460  1.6211
   50MOL   H56133979   6.899   0.295   3.254  0.7356  1.2131  0.0629
   50MOL   H56233980   6.666   0.476   3.152  0.0100 -0.4569  0.9696
   50MOL   H56333981   6.660   0.307   3.190  3.0440 -2.3569  2.3070
   50MOL   H56433982   6.818   0.246   3.003 -1.1889 -1.5027  1.8602
   50MOL   H56533983   6.686   0.349   2.950 -0.0694 -1.1750  0.1140
   50MOL   H56633984   6.979   0.430   3.012  1.9616 -0.5291 -2.9041
   50MOL   H56733985   6.860   0.552   2.967  0.3207 -0.1029  0.0917
   50MOL   H56833986   6.929   0.295   2.814  0.9247 -0.0132 -1.0921
   50MOL   H56933987   7.006   0.463   2.795  0.0865  0.7220  1.7638
   50MOL   H57033988   6.724   0.412   2.718  0.8083 -0.7683 -0.1300
   50MOL   H57133989   6.814   0.563   2.719 -0.5516 -0.0871  0.8478
   50MOL   H57233990   6.881   0.305   2.569 -1.8882 -0.1665  2.4604
   50MOL   H57333991   6.964   0.459   2.556  0.3271 -0.0253  0.9559
   50MOL   H57433992   6.757   0.584   2.484  0.0618 -0.2765  1.6501
   50MOL   H57533993   6.834   0.480   2.368 -1.3176 -1.1810 -0.9660
   50MOL   H57633994   6.582   0.412   2.517  0.1057 -0.6426  1.6537
   50MOL   H57733995   6.673   0.291   2.458  0.4719  0.2353  2.1541
   50MOL   H57833996   6.592   0.518   2.265 -0.0899  0.8288  0.7835
   50MOL   H57933997   6.491   0.374   2.292 -0.4938 -0.3261  2.2281
   50MOL   N58033998   6.786   0.409   2.135 -0.1119 -0.2249 -0.1822
   50MOL   C58133999   6.885   0.361   2.038 -0.0885  0.0830  0.1801
   50MOL   C58234000   7.019   0.434   2.039 -0.2650 -0.8432  0.3348
   50MOL   C58334001   7.083   0.451   2.175 -0.1722 -0.6812 -0.0900
   50MOL   C58434002   7.225   0.506   2.166 -0.0923 -0.3515 -0.2115
   50MOL   C58534003   7.303   0.471   2.293 -0.1496  0.4597 -0.4939
   50MOL   C58634004   7.441   0.545   2.304  0.6742 -0.1942  0.0282
   50MOL   C58734005   7.536   0.517   2.420 -0.0666  0.3360 -0.6053
   50MOL   C58834006   7.586   0.374   2.452  0.2242  0.0117  0.0997
   50MOL   C58934007   7.669   0.323   2.336  0.1533  0.6352  0.8133
   50MOL   C59034008   7.702   0.171   2.338  0.0866 -0.0681 -0.1657
   50MOL   C59134009   7.585   0.072   2.312  0.4429  0.4055  0.3519
   50MOL   O59234010   7.480   0.113   2.264  0.2960  0.3565  0.4335
   50MOL   H59334011   6.803   0.502   2.169  0.1859 -0.4554  0.3166
   50MOL   H59434012   6.895   0.252   2.033 -0.3765  0.0177  0.9580
   50MOL   H59534013   6.844   0.373   1.938  0.5217 -0.9343 -0.2077
   50MOL   H59634014   6.997   0.536   2.009 -0.8176 -1.2278 -0.5868
   50MOL   H59734015   7.090   0.391   1.968 -1.5010 -3.3851  0.5826
   50MOL   H59834016   7.019   0.519   2.230  2.6026  2.4940 -0.6592
   50MOL   H59934017   7.085   0.361   2.236  2.6540 -0.1959  0.5842
   50MOL   H60034018   7.217   0.614   2.153  1.3888  0.0469  1.9391
   50MOL   H60134019   7.269   0.463   2.076  0.3412  0.0402 -0.1846
   50MOL   H60234020   7.310   0.363   2.302 -0.2281  0.6530  2.2266
   50MOL   H60334021   7.249   0.512   2.379 -1.0101 -0.1359 -0.7523
   50MOL   H60434022   7.488   0.527   2.207 -1.2562  0.5293 -1.0725
   50MOL   H60534023   7.414   0.650   2.297 -2.0916 -0.8902 -0.2058
   50MOL   H60634024   7.495   0.539   2.518 -1.1264 -0.4025 -0.8695
   50MOL   H60734025   7.620   0.583   2.404  1.3468 -0.7438  2.0282
   50MOL   H60834026   7.642   0.375   2.546 -2.2673  0.2577  1.6284
   50MOL   H60934027   7.497   0.316   2.475  0.1298  0.5914  1.2168
   50MOL   H61034028   0.043   0.385   2.338 -1.6633  3.3273 -0.1031
   50MOL   H61134029   7.626   0.346   2.238  1.4987  0.1743  0.0994
   50MOL   H61234030   0.035   0.130   2.427 -2.1867  0.7621  1.5141
   50MOL   H61334031   0.052   0.140   2.257 -0.0572  0.8868 -0.6562
   50MOL   N61434032   7.609   7.660   2.346 -0.0232 -0.0799  0.1417
   50MOL   C61534033   7.509   7.551   2.314 -0.0059  0.0534 -0.3691
   50MOL   C61634034   7.406   7.539   2.421 -0.4199 -0.4496  0.4132
   50MOL   C61734035   7.307   7.436   2.373 -0.4383 -0.1512  0.2539
   50MOL   C61834036   7.197   7.416   2.480  0.4086  0.0742 -0.1600
   50MOL   C61934037   7.243   7.366   2.614  0.4429  0.7294 -0.5861
   50MOL   C62034038   7.140   7.286   2.701 -0.8641  0.2070  0.0317
   50MOL   C62134039   7.171   7.309   2.850  0.0802 -0.1178  0.4032
   50MOL   C62234040   7.079   7.221   2.936 -0.2595  0.3999  0.4331
   50MOL   C62334041   7.149   7.115   3.008  0.4048 -0.8157  0.3772
   50MOL   C62434042   7.050   7.033   3.090 -0.1820  0.5776 -0.0824
   50MOL   C62534043   7.103   6.895   3.134  0.3373 -0.2623 -0.2998
   50MOL   O62634044   7.052   6.792   3.088 -0.5298  0.1248 -0.4407
   50MOL   H62734045   7.703   7.629   2.365 -0.4453 -1.9501 -0.7444
   50MOL   H62834046   7.570   7.461   2.308  2.0449  1.3427  0.5562
   50MOL   H62934047   7.456   7.570   2.221 -0.5152 -0.1848 -0.1326
   50MOL   H63034048   7.354   7.635   2.420  0.8780  0.2558 -0.6359
   50MOL   H63134049   7.444   7.522   2.522 -0.0878 -2.0786  0.0244
   50MOL   H63234050   7.262   7.462   2.277 -2.6408 -2.3759  0.6425
   50MOL   H63334051   7.360   7.343   2.356 -0.7751  0.0355 -1.9133
   50MOL   H63434052   7.131   7.338   2.443 -2.6239  2.0553  0.8884
   50MOL   H63534053   7.135   7.505   2.492  0.2687  0.1089 -1.1445
   50MOL   H63634054   7.266   7.459   2.666 -0.8900  0.5630  0.3298
   50MOL   H63734055   7.326   7.299   2.592  0.1462 -0.1435  0.8578
   50MOL   H63834056   7.037   7.322   2.696 -1.2007 -0.8726 -0.9290
   50MOL   H63934057   7.152   7.179   2.683  0.9098  0.2465  0.8552
   50MOL   H64034058   7.145   7.413   2.869  0.9398 -0.0508  1.2401
   50MOL   H64134059   7.276   7.307   2.880 -0.1829  0.2476  1.3603
   50MOL   H64234060   7.027   7.285   3.006 -0.7821 -0.5389  0.9158
   50MOL   H64334061   6.993   7.172   2.889  0.3345 -0.8566  0.6235
   50MOL   H64434062   7.231   7.161   3.063 -1.1947  1.4749  0.8675
   50MOL   H64534063   7.205   7.054   2.936  0.1372  1.8717 -2.2029
   50MOL   H64634064   6.961   7.009   3.031  0.0408 -2.0050  0.5700
   50MOL   H64734065   7.006   7.074   3.181  0.8576 -0.5932  0.9599
   50MOL   N64834066   7.206   6.902   3.219 -0.3031 -0.5134  0.0466
   50MOL   C64934067   7.278   6.796   3.292 -0.0595 -0.4734 -0.4070
   50MOL   C65034068   7.182   6.711   3.377 -0.1161  0.2935  0.5635
   50MOL   C65134069   7.130   6.788   3.500  0.2913  0.0926 -0.7291
   50MOL   C65234070   7.049   6.698   3.593 -1.0031  0.4131 -0.3714
   50MOL   C65334071   7.117   6.572   3.649 -0.4541  0.2962 -0.3313
   50MOL   C65434072   7.227   6.604   3.756  0.1269 -0.2340  0.5552
   50MOL   C65534073   7.369   6.613   3.702  0.4406 -0.5138  0.3143
   50MOL   C65634074   7.470   6.683   3.796 -0.2311 -0.4951  0.0115
   50MOL   C65734075   7.607   6.649   3.752  0.2136  0.2617 -0.6537
   50MOL   C65834076   7.716   6.713   3.847  0.1307 -0.0232  0.3118
   50MOL   C65934077   0.145   6.693   3.805  0.1630 -0.3956 -0.2891
   50MOL   O66034078   0.169   6.636   3.701 -0.0294  0.2231 -0.2311
   50MOL   H66134079   7.239   6.996   3.237  1.0700 -0.9560 -0.0755
   50MOL   H66234080   7.352   6.848   3.353  0.8074 -0.1106 -1.7432
   50MOL   H66334081   7.325   6.740   3.211 -1.4643  0.3541 -1.8224
   50MOL   H66434082   7.237   6.627   3.420  0.6797  1.2593  1.4513
   50MOL   H66534083   7.103   6.655   3.327  0.1402 -0.3661  0.8787
   50MOL   H66634084   7.222   6.816   3.552 -0.3030 -0.7640  0.8093
   50MOL   H66734085   7.083   6.886   3.484 -2.3385 -0.8200  1.1212
   50MOL   H66834086   6.960   6.675   3.534 -0.3056  0.9816 -1.6726
   50MOL   H66934087   7.018   6.759   3.678  0.5915  0.5775  0.1156
   50MOL   H67034088   7.151   6.507   3.569 -0.2012 -2.9450  2.2872
   50MOL   H67134089   7.036   6.512   3.690  1.4411 -2.5561 -0.5995
   50MOL   H67234090   7.201   6.689   3.820  1.2981 -3.2527  5.3371
   50MOL   H67334091   7.230   6.521   3.827  0.5338 -2.1008 -1.6095
   50MOL   H67434092   7.373   6.672   3.611  1.6120  0.7886  1.1989
   50MOL   H67534093   7.402   6.516   3.665  0.1166 -1.6912  3.0147
   50MOL   H67634094   7.458   6.791   3.801 -0.3236 -0.5912  2.0204
   50MOL   H67734095   7.461   6.647   3.898  3.3543 -2.2933 -0.2207
   50MOL   H67834096   7.607   6.671   3.645  2.4139  1.0420 -0.5132
   50MOL   H67934097   7.610   6.540   3.755  0.0899  0.1950 -2.5973
   50MOL   H68034098   7.713   6.667   3.945 -0.7104 -0.2879  0.1706
   50MOL   H68134099   7.693   6.820   3.851 -1.0514 -0.1181 -2.3298
   50MOL   H68234100   0.217   6.737   3.875  0.2680  0.0076 -0.6445
   51MOL     N134101   0.118   5.251   3.854  0.5756 -0.0858 -0.1810
   51MOL     C234102   0.179   5.120   3.830  0.0322  0.0827 -0.3298
   51MOL     C334103   0.111   5.061   3.702  0.6981 -0.0306  0.5116
   51MOL     C434104   0.158   4.918   3.662 -0.4666  0.3568  0.1440
   51MOL     C534105   0.081   4.857   3.545  0.2005 -0.2803  0.2505
   51MOL     C634106   0.051   4.706   3.548  0.4039  0.4595 -0.3378
   51MOL     C734107   0.022   4.644   3.406 -0.5443 -0.0533 -0.1715
   51MOL     C834108   0.008   4.490   3.422  0.0546 -0.2683  0.1485
   51MOL     C934109   7.647   4.437   3.303  0.3042 -0.1441  0.6773
   51MOL    C1034110   7.631   4.281   3.299 -0.7993  0.2819 -0.0361
   51MOL    C1134111   7.515   4.232   3.391 -0.0495 -0.2224 -0.3799
   51MOL    C1234112   7.498   4.081   3.370 -0.0720  0.0981  0.4844
   51MOL    O1334113   7.429   4.036   3.280  0.3347 -0.2352 -0.7047
   51MOL    H1434114   0.181   5.292   3.922 -1.0365 -0.1727  1.4284
   51MOL    H1534115   0.177   5.050   3.914  1.8869 -0.9605 -1.1153
   51MOL    H1634116   0.287   5.122   3.814 -0.0086  2.4613 -0.5076
   51MOL    H1734117   0.134   5.132   3.622 -2.2537  0.1508 -0.2000
   51MOL    H1834118   0.003   5.054   3.711  0.6128 -1.2855 -1.3780
   51MOL    H1934119   0.265   4.915   3.644 -0.7845 -0.0957 -1.8129
   51MOL    H2034120   0.159   4.852   3.749  0.3999  1.3761  0.9229
   51MOL    H2134121   0.126   4.880   3.449  3.2715 -2.0595  1.1965
   51MOL    H2234122   7.702   4.909   3.530 -0.3960 -1.3194  0.3406
   51MOL    H2334123   7.679   4.685   3.609  0.5399 -1.8000 -0.8648
   51MOL    H2434124   0.132   4.654   3.599  0.4368  0.2317 -0.6199
   51MOL    H2534125   7.645   4.679   3.361 -0.2588 -1.2542 -1.7633
   51MOL    H2634126   0.101   4.666   3.334  0.9908  1.5947  1.9391
   51MOL    H2734127   7.657   4.474   3.507  0.1099 -0.3054  0.1841
   51MOL    H2834128   0.104   4.441   3.436 -0.2456 -0.5779  1.1613
   51MOL    H2934129   7.556   4.495   3.292  0.3943 -0.2636 -0.8608
   51MOL    H3034130   7.701   4.463   3.212 -0.5049 -0.7337  0.0154
   51MOL    H3134131   0.014   4.240   3.319 -0.0782  1.4395 -1.1146
   51MOL    H3234132   7.612   4.258   3.195 -0.8543 -0.8622  0.2186
   51MOL    H3334133   7.428   4.285   3.352  0.5181  0.7497 -0.3523
   51MOL    H3434134   7.525   4.261   3.495  1.4092  0.9627 -0.8441
   51MOL    H3534135   0.033   5.242   3.909  1.9265 -1.5778  1.7606
   51MOL    N3634136   7.567   3.997   3.440  0.3279  0.2442  0.0386
   51MOL    C3734137   7.553   3.854   3.440  0.4715 -0.0474 -0.3330
   51MOL    C3834138   7.574   3.790   3.309 -0.5458  1.2048  1.0747
   51MOL    C3934139   7.596   3.635   3.310  0.0456 -0.6158  0.1505
   51MOL    C4034140   7.596   3.582   3.164  0.0845  0.4817 -0.4306
   51MOL    C4134141   7.463   3.553   3.095  0.0701  0.5724 -0.1561
   51MOL    C4234142   7.478   3.473   2.967 -0.4275 -0.9594 -0.0238
   51MOL    C4334143   7.522   3.552   2.847  1.0040  0.1405  0.4828
   51MOL    C4434144   7.433   3.669   2.810 -0.2187  0.6731 -0.3566
   51MOL    C4534145   7.499   3.749   2.692 -0.2821  0.2711 -0.1488
   51MOL    C4634146   7.404   3.855   2.629 -0.0139  0.1660  0.2796
   51MOL    C4734147   7.480   3.966   2.550 -0.0705 -0.4369  0.4967
   51MOL    O4834148   7.591   3.953   2.514 -0.1803 -0.4095 -0.4834
   51MOL    H4934149   7.632   4.037   3.505  3.8441  0.2542 -3.3118
   51MOL    H5034150   7.633   3.806   3.497 -0.0112  1.2682  1.5322
   51MOL    H5134151   7.456   3.828   3.481  1.1329 -1.8901  0.1083
   51MOL    H5234152   7.666   3.841   3.279 -0.3583  1.4844  2.1040
   51MOL    H5334153   7.497   3.812   3.235  1.8816 -0.0806 -1.9743
   51MOL    H5434154   7.694   3.601   3.343  1.0579  0.9521 -1.1226
   51MOL    H5534155   7.513   3.589   3.363  1.3698 -0.2498  2.6098
   51MOL    H5634156   7.641   3.483   3.170 -1.2249 -0.1337 -0.5499
   51MOL    H5734157   7.667   3.642   3.108  1.9924  0.1956  1.5680
   51MOL    H5834158   7.406   3.646   3.087 -1.7311 -0.6077 -1.5922
   51MOL    H5934159   7.415   3.491   3.172 -2.1527  3.6704  1.0624
   51MOL    H6034160   7.551   3.394   2.985 -0.1985 -0.3339  1.9530
   51MOL    H6134161   7.384   3.428   2.936 -0.4236  0.1626 -1.6992
   51MOL    H6234162   7.544   3.482   2.767  1.4083 -1.3344  1.8642
   51MOL    H6334163   7.610   3.611   2.874 -1.1796  1.7179  4.4557
   51MOL    H6434164   7.341   3.630   2.767 -1.0490  0.8332  1.2439
   51MOL    H6534165   7.399   3.733   2.891 -1.6117 -0.8438  0.2836
   51MOL    H6634166   7.554   3.695   2.615  0.9103  0.5408  0.4906
   51MOL    H6734167   7.577   3.809   2.739 -0.9308 -0.5115  1.9872
   51MOL    H6834168   7.353   3.902   2.713 -1.4909 -0.5403 -0.2139
   51MOL    H6934169   7.329   3.800   2.572 -2.2316  1.0174  2.3138
   51MOL    N7034170   7.411   4.079   2.541  0.3515 -0.0688 -0.4142
   51MOL    C7134171   7.471   4.206   2.507  0.1869 -0.1970 -0.5700
   51MOL    C7234172   7.368   4.324   2.518 -0.0662 -0.3406  0.7435
   51MOL    C7334173   7.429   4.456   2.464 -0.3974  0.4782 -0.0997
   51MOL    C7434174   7.348   4.582   2.455  0.0690 -0.3407  0.2130
   51MOL    C7534175   7.429   4.702   2.394  0.9611 -0.2746  0.6143
   51MOL    C7634176   7.336   4.824   2.372 -0.2392  0.3087  1.2356
   51MOL    C7734177   7.393   4.941   2.296  0.7257  0.9844 -0.8295
   51MOL    C7834178   7.298   5.062   2.293  0.9351  0.7694  0.1345
   51MOL    C7934179   7.334   5.179   2.207 -0.4976  0.2767  0.4486
   51MOL    C8034180   7.216   5.274   2.171  1.2076 -0.2941 -0.2013
   51MOL    C8134181   7.158   5.336   2.300  0.0269  0.6065 -0.2340
   51MOL    O8234182   7.236   5.404   2.369 -0.5519  0.2392  0.7495
   51MOL    H8334183   7.315   4.086   2.571  0.0923  4.3237 -1.8776
   51MOL    H8434184   7.549   4.236   2.577  0.1129 -1.9312  0.2760
   51MOL    H8534185   7.512   4.201   2.406 -1.3858  3.4134 -1.4837
   51MOL    H8634186   7.338   4.344   2.621 -1.9566  2.7599 -0.3248
   51MOL    H8734187   7.279   4.303   2.458  1.0776 -3.5278  0.0882
   51MOL    H8834188   7.516   4.477   2.526 -0.4867  1.5025 -0.3154
   51MOL    H8934189   7.471   4.431   2.366  0.4509 -0.2242  0.4360
   51MOL    H9034190   7.310   4.617   2.551 -0.2774  3.5760 -1.2756
   51MOL    H9134191   7.261   4.575   2.389 -0.9416 -0.5192  1.5424
   51MOL    H9234192   7.460   4.678   2.293 -0.4091  1.7417 -0.3223
   51MOL    H9334193   7.510   4.724   2.463  0.8109  0.2932  0.6090
   51MOL    H9434194   7.239   4.791   2.333  0.5046 -1.2699  0.6889
   51MOL    H9534195   7.315   4.876   2.466  1.8546  1.9938  0.8012
   51MOL    H9634196   7.417   4.908   2.195  0.2190 -0.3965 -0.5016
   51MOL    H9734197   7.483   4.965   2.353  0.0782  0.5822  0.3871
   51MOL    H9834198   7.202   5.028   2.254  2.0021 -1.7889 -0.3285
   51MOL    H9934199   7.266   5.099   2.390  0.5918  0.0674  0.2900
   51MOL   H10034200   7.378   5.146   2.113 -1.2948 -0.1976  0.2402
   51MOL   H10134201   7.416   5.231   2.258 -1.7725  1.5335  1.2406
   51MOL   H10234202   7.140   5.216   2.118  1.3493  0.3826 -1.1642
   51MOL   H10334203   7.251   5.354   2.105 -1.3827  0.3896 -0.8098
   51MOL   N10434204   7.032   5.307   2.334  0.2110  0.3370 -0.2233
   51MOL   C10534205   6.962   5.359   2.450 -0.2767 -0.1039  1.4142
   51MOL   C10634206   6.886   5.494   2.431  0.4237 -0.4505  0.4537
   51MOL   C10734207   6.779   5.523   2.533  0.4368 -0.5475  0.0740
   51MOL   C10834208   6.836   5.527   2.676 -0.1111 -0.1271  0.4091
   51MOL   C10934209   6.753   5.591   2.792 -0.1487  0.2558 -0.9612
   51MOL   C11034210   6.817   5.581   2.930 -0.4061 -0.2740 -0.0814
   51MOL   C11134211   6.722   5.613   3.041 -0.2168  0.0384 -0.0422
   51MOL   C11234212   6.790   5.612   3.177  0.3467  0.5615 -0.2702
   51MOL   C11334213   6.687   5.637   3.284  0.4191  0.0127 -0.4172
   51MOL   C11434214   6.759   5.664   3.419  0.5183 -0.1028 -0.0501
   51MOL   C11534215   6.841   5.784   3.419  0.3733  0.5136  0.2234
   51MOL   O11634216   6.794   5.895   3.388 -0.3668  0.1967 -0.3419
   51MOL   H11734217   6.973   5.254   2.272  0.2134 -0.4202  0.4144
   51MOL   H11834218   6.886   5.282   2.458 -1.6796  1.4173  3.1541
   51MOL   H11934219   7.037   5.360   2.530  1.7751 -0.9606 -0.4395
   51MOL   H12034220   6.845   5.493   2.330  1.3109  1.2418  0.0411
   51MOL   H12134221   6.950   5.582   2.439 -1.2221  1.0389 -1.9853
   51MOL   H12234222   6.732   5.619   2.517  0.1377 -0.5795  0.7474
   51MOL   H12334223   6.700   5.449   2.530 -0.6206  0.6719 -2.8222
   51MOL   H12434224   6.936   5.571   2.684 -0.4151  0.5762  0.3013
   51MOL   H12534225   6.853   5.424   2.708 -1.0461 -0.5768 -0.5419
   51MOL   H12634226   6.653   5.548   2.792 -0.0428  0.0043  0.0550
   51MOL   H12734227   6.734   5.695   2.765  0.4896  0.3994 -0.8584
   51MOL   H12834228   6.841   5.476   2.952  0.3319  0.6010  3.6990
   51MOL   H12934229   6.911   5.636   2.935  0.0267 -1.0239  0.1356
   51MOL   H13034230   6.647   5.534   3.041 -1.0341  0.7990  0.6553
   51MOL   H13134231   6.666   5.704   3.019 -3.2593 -2.0922 -1.4700
   51MOL   H13234232   6.833   5.514   3.193  0.7909  0.6641 -0.8146
   51MOL   H13334233   6.874   5.681   3.184  0.4404  0.4794 -0.5840
   51MOL   H13434234   6.618   5.553   3.285  0.7797 -0.2990 -1.2040
   51MOL   H13534235   6.635   5.730   3.258  1.7880  1.2800  1.2378
   51MOL   H13634236   6.815   5.578   3.457  1.9342  0.4185 -0.8961
   51MOL   H13734237   6.678   5.684   3.489  0.6112  5.0934 -1.2211
   51MOL   N13834238   6.966   5.770   3.464  0.2132  0.3501 -0.5899
   51MOL   C13934239   7.054   5.880   3.491  0.4149 -0.0654  0.0584
   51MOL   C14034240   7.109   5.881   3.630 -0.8111 -0.6093 -0.2472
   51MOL   C14134241   7.180   6.014   3.657 -0.0530 -0.3204  0.4301
   51MOL   C14234242   7.253   6.001   3.791 -0.1707 -0.0176  0.6365
   51MOL   C14334243   7.352   6.117   3.798 -0.0338  0.7797  0.6689
   51MOL   C14434244   7.422   6.154   3.927 -0.0032 -0.3913  0.4513
   51MOL   C14534245   7.539   6.251   3.897 -0.7081 -0.6860  0.0879
   51MOL   C14634246   7.632   6.302   4.005 -0.7926 -0.0598 -0.7571
   51MOL   C14734247   7.584   6.416   4.095 -0.4954 -0.4779  0.9975
   51MOL   C14834248   7.668   6.419   4.223 -0.1614 -0.0733  1.3216
   51MOL   C14934249   0.108   6.452   4.209  0.4292 -0.1660 -0.4069
   51MOL   O15034250   0.148   6.516   4.115 -0.0270 -0.1443  0.0120
   51MOL   H15134251   7.006   5.679   3.482 -1.5234  0.1033  2.1966
   51MOL   H15234252   7.119   5.880   3.403  0.2752  1.5541 -0.0682
   51MOL   H15334253   6.995   5.971   3.482 -0.9166 -1.0123 -0.9392
   51MOL   H15434254   7.174   5.795   3.644 -0.7265 -0.3541  0.9408
   51MOL   H15534255   7.027   5.870   3.700 -0.9619  0.5189 -0.2342
   51MOL   H15634256   7.252   6.023   3.575 -2.0189  2.3549 -1.0708
   51MOL   H15734257   7.115   6.099   3.640  0.4527 -0.1978 -0.9671
   51MOL   H15834258   7.299   5.902   3.802 -2.4603 -0.9214  2.7416
   51MOL   H15934259   7.186   6.017   3.876 -0.2938  3.4679 -0.0408
   51MOL   H16034260   7.307   6.213   3.773 -1.0504  0.8305  2.5657
   51MOL   H16134261   7.422   6.088   3.719 -0.9483  0.0776  0.1030
   51MOL   H16234262   7.337   6.192   3.983 -1.2730 -1.2673 -0.8302
   51MOL   H16334263   7.464   6.074   3.988 -0.3834  0.1387  1.4145
   51MOL   H16434264   7.495   6.342   3.857 -1.3105 -1.5998 -1.3643
   51MOL   H16534265   7.605   6.210   3.820 -0.9290  1.5909 -1.3476
   51MOL   H16634266   7.668   6.217   4.063  2.2487  1.1992 -0.6962
   51MOL   H16734267   0.009   6.339   3.961 -0.3567 -0.7335 -0.4063
   51MOL   H16834268   7.478   6.411   4.120 -0.0530  0.0022  3.0691
   51MOL   H16934269   7.587   6.505   4.032 -2.8683 -1.3183 -0.3653
   51MOL   H17034270   7.669   6.328   4.283  2.4302  1.6808  4.1288
   51MOL   H17134271   7.631   6.497   4.291 -0.4282  1.1133 -0.1529
   51MOL   N17234272   0.186   6.408   4.310 -0.4727 -0.2121 -0.2299
   51MOL   C17334273   0.330   6.410   4.318  0.1652 -0.5454  0.2730
   51MOL   C17434274   0.372   6.435   4.466 -0.0690 -0.1861  0.2265
   51MOL   C17534275   0.516   6.464   4.479 -0.4180  0.1182  0.4492
   51MOL   C17634276   0.558   6.611   4.449  0.3312 -0.3994 -0.5783
   51MOL   C17734277   0.713   6.606   4.415  0.5316 -0.0835  0.0469
   51MOL   C17834278   0.771   6.741   4.406  0.5286  0.4847  0.1250
   51MOL   C17934279   0.710   6.823   4.288  0.0830  0.1581  0.5583
   51MOL   C18034280   0.730   6.975   4.313  0.3812 -0.4842  0.2281
   51MOL   C18134281   0.660   7.064   4.208  0.4049 -0.6775  0.2375
   51MOL   C18234282   0.684   7.219   4.223 -0.2997  0.1830 -0.3345
   51MOL   C18334283   0.630   7.292   4.349  0.5547  0.3118  0.9842
   51MOL   O18434284   0.558   7.235   4.426  0.4984  0.2494 -0.3306
   51MOL   H18534285   0.140   6.366   4.389  0.7500 -0.5041  0.3374
   51MOL   H18634286   0.378   6.321   4.279 -0.6295 -0.5043 -0.8448
   51MOL   H18734287   0.361   6.493   4.255 -0.9827 -0.9131 -0.8039
   51MOL   H18834288   0.339   6.352   4.529 -1.5761 -0.1346 -0.4639
   51MOL   H18934289   0.304   6.514   4.497 -1.8088 -1.0783 -1.2163
   51MOL   H19034290   0.548   6.438   4.580 -2.4691  1.0081  1.3556
   51MOL   H19134291   0.565   6.399   4.407 -0.8435 -0.1752  0.4238
   51MOL   H19234292   0.556   6.686   4.528  1.1324  2.9226 -3.5712
   51MOL   H19334293   0.490   6.652   4.375  1.5953  0.0278 -1.5162
   51MOL   H19434294   0.735   6.549   4.324 -1.7450 -0.3703 -0.3605
   51MOL   H19534295   0.770   6.563   4.497  3.4563  0.3915 -1.6768
   51MOL   H19634296   0.754   6.799   4.497 -0.6354  2.8615 -1.5639
   51MOL   H19734297   0.880   6.732   4.409  0.3607 -1.6617  2.9111
   51MOL   H19834298   0.602   6.807   4.282 -0.1695  1.9492 -0.0417
   51MOL   H19934299   0.762   6.804   4.194  0.7072  4.9090 -0.2252
   51MOL   H20034300   0.685   7.001   4.408  3.3782 -3.3329  2.5339
   51MOL   H20134301   0.836   6.995   4.297  0.0926  1.2994  0.4365
   51MOL   H20234302   0.553   7.046   4.214  0.4880 -0.6579  2.5490
   51MOL   H20334303   0.674   7.049   4.101  0.8201  0.2845  0.1509
   51MOL   H20434304   0.636   7.263   4.135 -0.0726  0.3866 -0.3563
   51MOL   H20534305   0.787   7.253   4.225 -0.4689  0.6562  3.4508
   51MOL   N20634306   0.683   7.413   4.368  0.1540 -0.0171  0.5042
   51MOL   C20734307   0.644   7.504   4.480  0.2395  0.1513  0.1886
   51MOL   C20834308   0.727   7.483   4.609 -0.3242 -0.4036  0.2774
   51MOL   C20934309   0.878   7.492   4.594 -0.1284 -0.7660 -0.3080
   51MOL   C21034310   0.956   7.516   4.721  0.0523 -0.3248  0.1154
   51MOL   C21134311   1.102   7.544   4.689  0.1381 -1.0329  0.0219
   51MOL   C21234312   1.209   7.509   4.796  0.0603  0.4840 -0.5450
   51MOL   C21334313   1.216   7.355   4.810 -0.9481 -0.0299  0.5076
   51MOL   C21434314   1.334   7.325   4.901  0.6101 -0.5593  0.5408
   51MOL   C21534315   1.373   7.182   4.911 -0.2352  0.2494 -0.1000
   51MOL   C21634316   1.265   7.070   4.936  0.0157 -0.2998  0.4042
   51MOL   C21734317   1.210   7.075   5.076 -0.3236  0.5283 -0.4372
   51MOL   O21834318   1.289   7.071   5.169  0.1435  0.1021  0.3981
   51MOL   H21934319   0.738   7.449   4.291 -2.3914  0.6815 -1.0555
   51MOL   H22034320   0.536   7.490   4.490  0.5416 -1.8326  1.0276
   51MOL   H22134321   0.648   7.607   4.444  1.4909 -0.4921 -1.5645
   51MOL   H22234322   0.708   7.382   4.643 -2.7338  0.0861  0.5185
   51MOL   H22334323   0.691   7.554   4.683  0.0824  0.0419  0.0514
   51MOL   H22434324   0.924   7.418   4.530  1.7968  0.7341 -0.7069
   51MOL   H22534325   0.895   7.580   4.532  1.6441 -1.9733 -1.5571
   51MOL   H22634326   0.951   7.424   4.779  0.2239 -0.5330 -0.2004
   51MOL   H22734327   0.921   7.606   4.772  1.9164  0.5528 -0.0802
   51MOL   H22834328   1.110   7.648   4.657 -1.4003 -0.4274  1.5251
   51MOL   H22934329   1.124   7.494   4.595  0.3460 -1.2068  0.1612
   51MOL   H23034330   1.298   7.559   4.758  1.1308 -2.2614 -1.8344
   51MOL   H23134331   1.176   7.560   4.886 -0.8075 -0.8668 -0.0772
   51MOL   H23234332   1.236   7.311   4.712 -1.4719  0.3840  0.2109
   51MOL   H23334333   1.120   7.322   4.849 -1.8753 -0.5744 -2.1518
   51MOL   H23434334   1.424   7.377   4.867 -0.3607  1.2883  0.7698
   51MOL   H23534335   1.307   7.358   5.001 -1.0742 -3.7891  1.2251
   51MOL   H23634336   1.446   7.174   4.992  0.4195 -0.1373 -0.7172
   51MOL   H23734337   1.424   7.157   4.818 -0.8397 -0.8373 -0.1408
   51MOL   H23834338   1.309   6.971   4.931  1.9433  0.4154  2.1251
   51MOL   H23934339   1.184   7.083   4.864  0.6997  0.6843 -0.2153
   51MOL   N24034340   1.076   7.075   5.092 -0.3084  0.5413  0.9615
   51MOL   C24134341   1.010   7.097   5.224  0.4200 -0.3895  0.0002
   51MOL   C24234342   0.857   7.106   5.221  0.8457 -0.2876  0.3717
   51MOL   C24334343   0.785   7.158   5.346 -0.1190  0.2934 -0.1426
   51MOL   C24434344   0.631   7.163   5.315 -0.2015  0.0065 -0.1958
   51MOL   C24534345   0.551   7.226   5.434  0.0461  0.2665  0.6321
   51MOL   C24634346   0.393   7.200   5.416  0.1327 -0.0158  0.0477
   51MOL   C24734347   0.307   7.178   5.546 -1.1071 -0.1730  0.0985
   51MOL   C24834348   0.249   7.307   5.603 -0.3470 -0.3850 -0.1672
   51MOL   C24934349   0.139   7.359   5.525 -0.2705 -0.0486  0.0560
   51MOL   C25034350   0.070   7.488   5.583 -0.0904 -0.5494  0.1395
   51MOL   C25134351   7.662   7.455   5.672  0.3013 -0.0483  0.1199
   51MOL   O25234352   7.567   7.398   5.619  0.0675  0.1322 -0.5770
   51MOL   H25334353   1.017   7.074   5.011  0.0814  0.9214  0.6708
   51MOL   H25434354   1.062   7.180   5.272 -0.4503 -0.5932  1.3326
   51MOL   H25534355   1.031   7.008   5.283 -1.4002 -1.3342 -0.7167
   51MOL   H25634356   0.821   7.007   5.194 -0.2882 -0.0014  0.7635
   51MOL   H25734357   0.838   7.161   5.129  0.9363 -1.5171 -0.3944
   51MOL   H25834358   0.808   7.089   5.428 -0.5547 -1.2761 -1.3310
   51MOL   H25934359   0.819   7.257   5.379  2.7527 -0.8133  0.4154
   51MOL   H26034360   0.589   7.063   5.299 -0.2029 -0.5581  3.0219
   51MOL   H26134361   0.612   7.218   5.223  0.7553 -1.2571 -1.1591
   51MOL   H26234362   0.565   7.333   5.449  3.1662  0.0446 -0.2474
   51MOL   H26334363   0.587   7.172   5.521 -1.8644  0.3310  1.4834
   51MOL   H26434364   0.349   7.273   5.347 -0.5676 -2.4041 -2.0888
   51MOL   H26534365   0.378   7.102   5.370 -0.8746  0.2912 -0.2945
   51MOL   H26634366   0.365   7.124   5.622  0.3456  2.5539  0.9877
   51MOL   H26734367   0.226   7.107   5.530  0.6656 -2.3430  0.3635
   51MOL   H26834368   0.211   7.281   5.702 -0.1003  0.6791  0.2105
   51MOL   H26934369   0.321   7.386   5.624  0.5975 -1.3336  0.2713
   51MOL   H27034370   0.062   7.282   5.519 -0.7185  0.4349 -0.5346
   51MOL   H27134371   0.168   7.384   5.423 -1.1996  0.0574 -0.1910
   51MOL   H27234372   0.029   7.551   5.503  0.7366 -0.2680 -0.0684
   51MOL   H27334373   0.142   7.550   5.637 -0.1398  0.3017 -0.7422
   51MOL   N27434374   7.667   7.488   5.802  0.4466 -0.4522 -0.6273
   51MOL   C27534375   7.558   7.458   5.895  0.8251 -0.3814  0.5672
   51MOL   C27634376   7.589   7.330   5.979  0.0007  0.0547 -0.9162
   51MOL   C27734377   7.479   7.303   6.088 -0.3301 -0.1765  0.6196
   51MOL   C27834378   7.448   7.411   6.194 -0.5904 -0.7571 -0.3845
   51MOL   C27934379   7.376   7.356   6.315  0.1006  0.7329  0.3844
   51MOL   C28034380   7.326   7.462   6.415  0.2309  0.1916 -0.1429
   51MOL   C28134381   7.209   7.424   6.509  0.8555  1.0166  0.5840
   51MOL   C28234382   7.242   7.300   6.591  0.7962  0.2206  0.3219
   51MOL   C28334383   7.124   7.235   6.672  0.6820  0.5140  0.4600
   51MOL   C28434384   7.174   7.112   6.763  0.3286 -0.5666  0.2100
   51MOL   C28534385   7.221   7.168   6.895 -0.8535  0.4658  0.6411
   51MOL   O28634386   7.151   7.237   6.966 -0.0369 -0.1598  0.1436
   51MOL   H28734387   0.040   7.524   5.835  1.3658 -1.5957 -1.8222
   51MOL   H28834388   7.468   7.429   5.840  0.2495 -0.5484  1.5844
   51MOL   H28934389   7.528   7.552   5.941  0.4459 -0.1940 -0.0469
   51MOL   H29034390   7.683   7.359   6.027 -0.4568  1.7269 -0.9759
   51MOL   H29134391   7.601   7.243   5.915  0.4899 -0.3517 -0.2844
   51MOL   H29234392   7.382   7.288   6.040  0.5636  1.9220 -1.9130
   51MOL   H29334393   7.502   7.206   6.134 -3.0916 -0.6512  1.1043
   51MOL   H29434394   7.378   7.485   6.155 -0.9443 -0.8496  0.0671
   51MOL   H29534395   7.542   7.458   6.223 -0.8148  0.8979 -2.2226
   51MOL   H29634396   7.436   7.280   6.366  1.6192 -0.5395 -3.1695
   51MOL   H29734397   7.292   7.298   6.276 -1.2675  2.8189  0.1596
   51MOL   H29834398   7.412   7.501   6.470 -0.4632  1.4480  0.0689
   51MOL   H29934399   7.275   7.534   6.352 -0.1414 -1.4381 -1.7363
   51MOL   H30034400   7.117   7.414   6.451  0.0403  1.3914  1.8027
   51MOL   H30134401   7.189   7.507   6.577  3.1326 -0.1479  2.7328
   51MOL   H30234402   7.265   7.225   6.516 -1.0736 -2.0331  1.8919
   51MOL   H30334403   7.333   7.319   6.647  0.5630  0.6297  0.5631
   51MOL   H30434404   7.039   7.213   6.608  1.5474  2.1625 -1.3064
   51MOL   H30534405   7.086   7.315   6.735  0.3708 -0.5572  1.6417
   51MOL   H30634406   7.239   7.050   6.701 -0.9091 -0.0265 -1.6453
   51MOL   H30734407   7.087   7.053   6.793 -0.4222  1.0071  1.2022
   51MOL   N30834408   7.337   7.123   6.938 -0.8286 -0.8497 -0.3461
   51MOL   C30934409   7.411   7.153   7.052  0.0272 -1.1826 -0.9067
   51MOL   C31034410   7.401   7.052   7.163 -0.0035  0.5224  0.4114
   51MOL   C31134411   7.266   7.062   7.238 -0.7795 -0.0833  0.1669
   51MOL   C31234412   7.233   6.941   7.329 -0.1833 -0.1510  0.0727
   51MOL   C31334413   7.091   6.929   7.376 -0.4731  0.0401  1.0717
   51MOL   C31434414   7.057   6.797   7.444 -0.3453  0.8323 -0.0577
   51MOL   C31534415   6.914   6.785   7.476 -0.1191  0.0390  0.2490
   51MOL   C31634416   6.831   6.721   7.367 -0.0858 -0.1884  1.0377
   51MOL   C31734417   6.683   6.717   7.408  0.8010 -0.2164 -0.6776
   51MOL   C31834418   6.589   6.629   7.318 -0.1034 -0.2613 -0.0759
   51MOL   C31934419   6.465   6.573   7.392  0.5710  0.7782 -0.2240
   51MOL   O32034420   6.461   6.548   7.509 -0.0344  0.3019 -0.1696
   51MOL   H32134421   7.393   7.065   6.876  0.3791 -1.0513  0.9098
   51MOL   H32234422   7.384   7.255   7.077  0.5543 -1.0498 -0.8675
   51MOL   H32334423   7.514   7.171   7.020 -0.7607 -1.7022 -3.9187
   51MOL   H32434424   7.477   7.064   7.240  1.5890 -1.2204 -0.8285
   51MOL   H32534425   7.399   6.949   7.127 -1.8108 -0.1937  2.4526
   51MOL   H32634426   7.265   7.158   7.288  0.7131 -0.6038  1.2270
   51MOL   H32734427   7.189   7.080   7.163  0.1618  0.1856 -0.7496
   51MOL   H32834428   7.302   6.937   7.414  1.1343 -3.4781 -1.0938
   51MOL   H32934429   7.253   6.845   7.282  2.5111  0.6706 -0.5533
   51MOL   H33034430   7.018   6.946   7.297 -2.3796  1.1996  3.0091
   51MOL   H33134431   7.078   7.008   7.450  0.0343 -1.4018  2.7215
   51MOL   H33234432   7.100   6.708   7.398  2.2324  1.3062  1.3078
   51MOL   H33334433   7.120   6.798   7.533 -0.3553  0.0883 -0.0380
   51MOL   H33434434   6.873   6.882   7.504  2.3655  1.3078 -0.3592
   51MOL   H33534435   6.898   6.720   7.562  1.8767  0.0207  0.6264
   51MOL   H33634436   6.829   6.775   7.272 -0.4136 -0.3978  0.9223
   51MOL   H33734437   6.858   6.616   7.353 -0.3031 -0.1127 -0.0065
   51MOL   H33834438   6.642   6.817   7.415 -0.3717 -0.4567 -3.4756
   51MOL   H33934439   6.677   6.676   7.509 -1.0937  1.0265 -0.2636
   51MOL   H34034440   6.635   6.543   7.269 -0.0210 -0.2234 -0.0640
   51MOL   H34134441   6.549   6.688   7.236  2.5084  1.3084 -0.2654
   51MOL   N34234442   6.358   6.550   7.315 -0.1358  0.4878 -0.1283
   51MOL   C34334443   6.218   6.515   7.359  0.0590  0.6379 -0.6121
   51MOL   C34434444   6.199   6.365   7.396  0.1064  0.4608 -0.0624
   51MOL   C34534445   6.071   6.326   7.456  0.4904  0.5193 -0.0648
   51MOL   C34634446   6.057   6.177   7.475  0.8994 -0.0322  0.3021
   51MOL   C34734447   5.908   6.143   7.481  0.6081 -0.0191  0.5467
   51MOL   C34834448   5.869   5.994   7.505 -0.4579 -0.1358 -0.1927
   51MOL   C34934449   5.720   5.980   7.555 -0.8917  0.5495 -0.4070
   51MOL   C35034450   5.681   5.834   7.583 -0.1796 -0.3795  0.9004
   51MOL   C35134451   5.529   5.814   7.618  0.0727  0.0485 -0.0190
   51MOL   C35234452   5.432   5.866   7.512  1.0109 -1.0151  0.3348
   51MOL   C35334453   5.288   5.818   7.534  0.4858  0.3406  0.8571
   51MOL   O35434454   5.258   5.707   7.493 -0.6494  0.4710 -0.1909
   51MOL   H35534455   6.366   6.573   7.217  1.1976 -2.7581 -0.8445
   51MOL   H35634456   6.187   6.564   7.451  0.4906 -0.5930  0.2109
   51MOL   H35734457   6.144   6.545   7.285 -0.4868  1.8314  0.4080
   51MOL   H35834458   6.279   6.334   7.464 -0.1170  0.1645  0.0688
   51MOL   H35934459   6.206   6.305   7.305  1.9019  0.8712 -0.2181
   51MOL   H36034460   6.058   6.374   7.553  1.6437 -2.0872  1.4415
   51MOL   H36134461   5.990   6.375   7.403 -0.5555 -1.7150 -0.6086
   51MOL   H36234462   6.110   6.137   7.561  2.6454  1.0899 -0.2396
   51MOL   H36334463   6.102   6.132   7.386  3.0376 -0.0754  1.4004
   51MOL   H36434464   5.840   6.189   7.409  1.3878  0.9009  0.3822
   51MOL   H36534465   5.874   6.194   7.572 -1.3523  0.4748 -0.4136
   51MOL   H36634466   5.883   5.928   7.418 -0.3027 -1.7503  1.0340
   51MOL   H36734467   5.934   5.957   7.584 -1.3449  0.1860  0.6859
   51MOL   H36834468   5.659   6.005   7.468 -0.4797 -2.3656 -1.5677
   51MOL   H36934469   5.691   6.042   7.639 -0.4286 -0.6913  0.6783
   51MOL   H37034470   5.706   5.769   7.500  1.4288  3.1771 -1.5283
   51MOL   H37134471   5.737   5.798   7.669 -0.8813 -0.7086  1.2272
   51MOL   H37234472   5.507   5.874   7.707  0.1703 -0.4393  0.3356
   51MOL   H37334473   5.503   5.712   7.646 -1.9280  0.9091  1.3639
   51MOL   H37434474   5.460   5.838   7.410  0.3695  0.2587 -0.2073
   51MOL   H37534475   5.436   5.975   7.508 -3.7127 -0.7895 -1.5338
   51MOL   N37634476   5.195   5.889   7.598  0.0818  0.1243  0.0548
   51MOL   C37734477   5.206   6.025   7.630 -0.1544  0.1873 -0.8481
   51MOL   C37834478   5.142   6.116   7.519 -0.2259 -0.1859  0.1172
   51MOL   C37934479   5.166   6.266   7.556  0.1689  0.3548  0.3150
   51MOL   C38034480   5.087   6.370   7.471 -0.5363  0.7020  0.3973
   51MOL   C38134481   5.129   6.517   7.503  0.2617 -0.1090  0.5961
   51MOL   C38234482   5.108   6.551   7.649 -0.2643  0.1998 -0.2106
   51MOL   C38334483   5.141   6.693   7.677  1.0153  0.2325 -0.5539
   51MOL   C38434484   5.095   6.738   0.101 -0.0361  0.2669  0.5038
   51MOL   C38534485   5.154   6.882   0.133  0.0955 -0.0143  0.6726
   51MOL   C38634486   5.091   7.010   0.071  0.8880 -0.5328 -0.2379
   51MOL   C38734487   4.941   7.035   0.111  0.4635 -0.3166 -0.5378
   51MOL   O38834488   4.894   6.998   0.218  0.1694  0.3757 -0.3140
   51MOL   H38934489   5.101   5.855   7.584 -0.4848  0.8967  1.9025
   51MOL   H39034490   5.159   6.050   0.009  2.5075  2.3687 -0.0315
   51MOL   H39134491   5.310   6.057   7.640 -0.1828 -0.0076  0.0733
   51MOL   H39234492   5.038   6.083   7.513  0.9521 -4.0826 -0.1183
   51MOL   H39334493   5.189   6.106   7.421 -0.1257 -0.4938  0.1966
   51MOL   H39434494   5.144   6.271   7.663  0.5055 -0.8923  0.4430
   51MOL   H39534495   5.273   6.278   7.545  0.4910 -1.8981  0.8948
   51MOL   H39634496   4.980   6.359   7.489 -0.8651  0.2412 -1.7053
   51MOL   H39734497   5.103   6.356   7.364  1.7117  1.8207  0.5559
   51MOL   H39834498   5.076   6.584   7.436 -0.2446  1.8849  2.9396
   51MOL   H39934499   5.234   6.515   7.472 -0.2929  0.3834 -1.4010
   51MOL   H40034500   5.006   6.530   7.683 -1.0994  1.7110 -1.7121
   51MOL   H40134501   5.175   6.480   7.699  0.7835 -0.3857 -2.3804
   51MOL   H40234502   5.086   6.754   7.605  0.8021  0.6485 -0.0417
   51MOL   H40334503   5.247   6.706   7.658  1.0212  0.7068 -0.2030
   51MOL   H40434504   4.987   6.735   0.108 -0.0966  1.6291  0.3795
   51MOL   H40534505   5.131   6.677   0.184 -0.0433 -1.7862 -0.9789
   51MOL   H40634506   5.263   6.884   0.133  0.1463 -0.7782  3.2957
   51MOL   H40734507   5.143   6.897   0.241 -1.2007 -0.7595  0.6492
   51MOL   H40834508   5.113   7.007   7.680  0.8979  2.3800 -0.3655
   51MOL   H40934509   5.134   7.103   0.109 -0.2262  0.5946 -1.6630
   51MOL   N41034510   4.871   7.098   0.016  0.5342 -0.5036  0.4383
   51MOL   C41134511   4.727   7.126   0.024  0.4459  0.6379  0.5351
   51MOL   C41234512   4.690   7.259   0.080  0.8308 -0.1555  0.2549
   51MOL   C41334513   4.814   7.356   0.069  0.0053  0.0382  0.2642
   51MOL   C41434514   4.768   7.502   0.061  0.0397 -0.4331  0.5134
   51MOL   C41534515   4.891   7.593   0.046 -0.3773 -0.6879 -0.5236
   51MOL   C41634516   4.930   7.641   0.180  0.0121  0.2446  0.2860
   51MOL   C41734517   5.060   0.011   0.187 -0.5969  0.1421  0.8081
   51MOL   C41834518   5.068   0.101   0.305  0.6425  0.0316  0.4831
   51MOL   C41934519   5.091   0.020   0.435 -0.0519 -0.8002 -0.2180
   51MOL   C42034520   5.080   0.114   0.563  0.5851  0.3600  0.1979
   51MOL   C42134521   4.940   0.176   0.593 -0.6820  0.1308 -0.1011
   51MOL   O42234522   4.841   0.117   0.549 -0.7973 -0.1710 -0.1823
   51MOL   H42334523   4.913   7.129   7.645 -2.3034 -0.7783 -1.1073
   51MOL   H42434524   4.687   7.116   7.638 -0.1437 -0.8447  0.9016
   51MOL   H42534525   4.676   7.052   0.086  0.0038  0.3694 -0.1373
   51MOL   H42634526   4.675   7.256   0.188  2.9035 -0.5289  0.5486
   51MOL   H42734527   4.611   7.313   0.026  3.0482  1.6945 -1.2573
   51MOL   H42834528   4.886   7.338   0.148 -0.5799 -0.8733  0.5961
   51MOL   H42934529   4.868   7.344   7.691  0.1150  0.8804  0.2170
   51MOL   H43034530   4.687   7.526   0.130  0.7316  2.0521  0.4794
   51MOL   H43134531   4.733   7.522   7.675 -1.1287  1.3082  1.2449
   51MOL   H43234532   4.868   7.680   7.700 -0.3460 -1.2332 -1.3038
   51MOL   H43334533   4.972   7.550   7.704  1.3930  1.1428  0.5327
   51MOL   H43434534   4.848   7.704   0.216 -1.1197 -0.1647 -1.5140
   51MOL   H43534535   4.939   7.563   0.256  2.5759  0.8369  0.6369
   51MOL   H43634536   5.086   0.065   0.096 -1.8812  0.0883  0.3933
   51MOL   H43734537   5.143   7.659   0.205 -1.4804 -1.1658  0.0238
   51MOL   H43834538   5.154   0.167   0.301 -1.8368  3.3141 -1.3563
   51MOL   H43934539   4.981   0.166   0.307  1.4574  1.1316  0.6891
   51MOL   H44034540   5.178   7.671   0.436 -0.0847 -0.8403  0.0477
   51MOL   H44134541   5.011   7.663   0.445 -1.2448  0.2555 -1.6452
   51MOL   H44234542   5.158   0.190   0.556  1.0058 -0.2117 -1.5064
   51MOL   H44334543   5.101   0.051   0.650 -1.4641  0.4439  0.7722
   51MOL   N44434544   4.931   0.296   0.647 -0.6941  0.2610 -0.2340
   51MOL   C44534545   4.800   0.356   0.682  0.5743 -0.0506 -0.0489
   51MOL   C44634546   4.811   0.391   0.835 -0.1870  0.1561 -0.3241
   51MOL   C44734547   4.834   0.268   0.928  0.5067 -0.7439  0.5594
   51MOL   C44834548   4.833   0.306   1.072  0.4991  0.1111 -0.2814
   51MOL   C44934549   4.861   0.193   1.172 -0.3552 -0.5368 -0.0614
   51MOL   C45034550   4.875   0.240   1.316 -0.7818  0.0902 -0.2637
   51MOL   C45134551   4.945   0.133   1.406  0.7089 -0.1527  0.3589
   51MOL   C45234552   4.870   7.712   1.417 -0.4489  0.1606  0.3345
   51MOL   C45334553   4.947   7.618   1.517 -0.8811 -0.3948 -0.1950
   51MOL   C45434554   4.887   7.476   1.532 -0.3284  0.3242 -0.6367
   51MOL   C45534555   4.892   7.380   1.416 -0.2029  0.7084  0.3544
   51MOL   O45634556   4.936   7.414   1.306 -0.6874 -0.4961 -0.6236
   51MOL   H45734557   5.013   0.352   0.665 -0.1783 -0.6981  0.4466
   51MOL   H45834558   4.782   0.446   0.622 -2.8138 -0.8713 -0.3829
   51MOL   H45934559   4.712   0.292   0.682 -2.1760  3.5646  0.4853
   51MOL   H46034560   4.710   0.427   0.856  0.1154 -0.6451  2.8792
   51MOL   H46134561   4.871   0.478   0.858 -0.5629  0.1234  0.8778
   51MOL   H46234562   4.749   0.203   0.905 -0.1630  0.5474 -0.7374
   51MOL   H46334563   4.926   0.214   0.904  0.8888  0.4869 -0.8507
   51MOL   H46434564   4.746   0.365   1.099  1.0520  0.7305  0.1474
   51MOL   H46534565   4.913   0.377   1.090  1.7068 -1.5965  1.2154
   51MOL   H46634566   4.954   0.141   1.147 -0.1988 -0.1286 -0.3379
   51MOL   H46734567   4.788   0.112   1.164 -1.4171  0.4347 -0.2151
   51MOL   H46834568   4.924   0.337   1.325  0.4479 -0.7291  2.6414
   51MOL   H46934569   4.778   0.260   1.361 -0.4493 -1.1876  1.0813
   51MOL   H47034570   4.956   0.174   1.507 -2.8430  0.7331  0.4690
   51MOL   H47134571   5.045   0.105   1.373 -0.0450 -1.4674 -0.8340
   51MOL   H47234572   4.764   0.006   1.438 -0.5231  1.5785 -0.6581
   51MOL   H47334573   4.876   7.659   1.322 -1.7454  0.0954  0.2787
   51MOL   H47434574   4.941   7.671   1.612  0.2780 -0.7407  0.0773
   51MOL   H47534575   5.053   7.599   1.496 -0.4148  2.6244 -0.7363
   51MOL   H47634576   4.782   7.484   1.562 -0.5877  1.1899 -1.7187
   51MOL   H47734577   4.935   7.428   1.617  1.5500  1.3547 -1.1046
   51MOL   N47834578   4.844   7.252   1.449 -0.3308  0.0884  0.4976
   51MOL   C47934579   4.821   7.143   1.361  0.1944  0.4763 -0.1032
   51MOL   C48034580   4.880   7.011   1.422  0.9795  0.8594  0.1134
   51MOL   C48134581   4.902   6.910   1.311  0.0290  0.8202  0.5124
   51MOL   C48234582   4.974   6.791   1.372 -0.0954  0.2933  0.2600
   51MOL   C48334583   4.962   6.679   1.273 -0.2145  0.5816 -0.8225
   51MOL   C48434584   5.053   6.561   1.303 -0.2280  0.0445  0.2478
   51MOL   C48534585   5.015   6.437   1.215 -0.7994  0.6132  0.0070
   51MOL   C48634586   5.014   6.294   1.272  0.6929 -0.0452 -0.1725
   51MOL   C48734587   4.997   6.168   1.180  0.2948 -0.3495 -0.1991
   51MOL   C48834588   4.858   6.170   1.114 -0.4325 -0.8760  0.1294
   51MOL   C48934589   4.836   6.262   0.993 -0.3345  0.4883  0.3788
   51MOL   O49034590   4.932   6.270   0.912 -0.5963 -0.0289 -0.1880
   51MOL   H49134591   4.799   7.236   1.538  0.7127 -0.0039  1.0214
   51MOL   H49234592   4.713   7.130   1.352 -0.2982  2.0374  3.1028
   51MOL   H49334593   4.859   7.171   1.263  1.4667  0.4903  0.3906
   51MOL   H49434594   4.809   6.978   1.498 -0.1691  2.8173 -0.0825
   51MOL   H49534595   4.969   7.033   1.481  1.4495 -2.0543  0.5654
   51MOL   H49634596   4.800   6.887   1.278 -0.3706 -0.0938  2.3556
   51MOL   H49734597   4.959   6.938   1.222  1.4557  1.8080  1.7177
   51MOL   H49834598   4.925   6.753   1.462  1.4475  0.7285  1.3107
   51MOL   H49934599   5.076   6.817   1.400  0.2604  0.6273 -1.3458
   51MOL   H50034600   4.980   6.707   1.170 -1.0724  0.0975 -1.1071
   51MOL   H50134601   4.857   6.649   1.268 -0.0597 -0.1692  0.1290
   51MOL   H50234602   5.157   6.589   1.287 -0.2065 -0.1064  0.1261
   51MOL   H50334603   5.038   6.532   1.407 -1.7260 -0.2245 -0.0230
   51MOL   H50434604   5.080   6.438   1.127  0.7352 -2.3056  1.0399
   51MOL   H50534605   4.914   6.460   1.182 -0.6899 -0.9350 -1.5034
   51MOL   H50634606   5.105   6.292   1.330  0.4735  0.5220  0.1955
   51MOL   H50734607   4.936   6.287   1.348 -0.1430 -0.1325 -1.0191
   51MOL   H50834608   5.012   6.077   1.237 -0.0354 -0.5773 -0.4765
   51MOL   H50934609   5.075   6.160   1.105  0.0017 -0.2389 -0.5159
   51MOL   H51034610   4.776   6.182   1.184 -1.3043  1.3167 -1.2205
   51MOL   H51134611   4.851   6.069   1.073 -0.6544 -0.7328 -0.1856
   51MOL   N51234612   4.731   6.341   0.992  0.0501 -0.4141  0.1416
   51MOL   C51334613   4.705   6.448   0.901 -0.5387  0.4416 -0.1596
   51MOL   C51434614   4.739   6.577   0.978  0.2057 -0.2170  0.3536
   51MOL   C51534615   4.703   6.711   0.908 -0.4456 -0.7261 -0.2374
   51MOL   C51634616   4.772   6.842   0.965  0.6737 -0.2374 -0.6866
   51MOL   C51734617   4.767   6.975   0.879  0.4497  0.1534  0.9867
   51MOL   C51834618   4.818   7.098   0.954 -0.5962  0.9473  0.4002
   51MOL   C51934619   4.835   7.232   0.887 -0.4531  0.7066 -0.6538
   51MOL   C52034620   4.882   7.347   0.983 -0.5213 -0.3912  0.0277
   51MOL   C52134621   4.922   7.470   0.896 -0.0875  0.7834  0.2044
   51MOL   C52234622   4.944   7.598   0.979  0.5847  0.3806 -0.0707
   51MOL   C52334623   5.089   7.633   1.000  0.5361  0.6408  0.2248
   51MOL   O52434624   5.160   7.690   0.926  0.2031  0.1116  0.0289
   51MOL   H52534625   4.661   6.310   1.058  0.4042 -0.3897  0.5361
   51MOL   H52634626   4.775   6.454   0.817  1.8800  1.5694  1.8611
   51MOL   H52734627   4.601   6.456   0.871  0.0470  0.4685 -2.3064
   51MOL   H52834628   4.846   6.567   0.997 -0.2136  0.3583  3.2322
   51MOL   H52934629   4.701   6.570   1.080 -2.2540  2.0746 -0.3738
   51MOL   H53034630   4.742   6.704   0.806  1.4507  2.7320  0.1785
   51MOL   H53134631   4.595   6.726   0.905 -0.4284 -0.6235 -0.4016
   51MOL   H53234632   4.878   6.824   0.981 -0.3921 -2.4031  5.4086
   51MOL   H53334633   4.728   6.871   1.060 -1.7038 -2.2753 -1.1039
   51MOL   H53434634   4.665   7.007   0.860 -0.1347 -1.5473  1.1306
   51MOL   H53534635   4.819   6.966   0.783  1.3938  1.4666  1.3680
   51MOL   H53634636   4.763   7.099   1.048 -0.0288  2.4267  0.7230
   51MOL   H53734637   4.918   7.069   0.986 -1.0400  0.7377  1.6103
   51MOL   H53834638   4.738   7.255   0.842 -1.9755 -2.8268  0.6544
   51MOL   H53934639   4.911   7.219   0.810  1.6397  0.9466  1.3330
   51MOL   H54034640   4.807   7.367   1.060 -2.7532 -1.1346 -1.9094
   51MOL   H54134641   4.970   7.318   1.041  0.1663  0.6100 -0.4972
   51MOL   H54234642   4.843   7.500   0.828 -0.9001  1.0937  1.2765
   51MOL   H54334643   5.010   7.454   0.833  0.5471  1.2073  0.9623
   51MOL   H54434644   4.897   7.581   1.076 -0.1903  0.2683 -0.4673
   51MOL   H54534645   4.886   7.681   0.941  0.6613  0.2854 -0.3954
   51MOL   N54634646   5.137   7.607   1.122  0.5278  0.2773  0.0222
   51MOL   C54734647   5.272   7.624   1.158  0.3517  0.2682  0.0557
   51MOL   C54834648   5.351   7.497   1.108  0.6053  0.1088 -0.0884
   51MOL   C54934649   5.282   7.369   1.152  0.4746 -0.2759  0.1702
   51MOL   C55034650   5.330   7.229   1.111 -0.1474 -0.3439  0.3051
   51MOL   C55134651   5.349   7.208   0.962  0.0933 -0.3181  0.3377
   51MOL   C55234652   5.218   7.193   0.876 -0.1421  0.0275  0.2190
   51MOL   C55334653   5.223   7.146   0.729  0.6469  0.8563 -0.0628
   51MOL   C55434654   5.271   7.262   0.643  0.3224  0.5123 -0.3864
   51MOL   C55534655   5.269   7.229   0.494  0.3500 -0.0770  0.0535
   51MOL   C55634656   5.342   7.346   0.418 -0.7193  0.5764 -0.3128
   51MOL   C55734657   5.391   7.300   0.288  0.1327 -0.5140 -0.6981
   51MOL   O55834658   5.322   7.302   0.192  0.0392 -0.3036 -0.1478
   51MOL   H55934659   5.075   7.578   1.197  2.2519 -3.3904  0.1310
   51MOL   H56034660   5.318   7.715   1.120  2.3865  0.5153  2.9460
   51MOL   H56134661   5.270   7.630   1.267 -1.8870 -0.1016  0.0557
   51MOL   H56234662   5.454   7.502   1.145  1.0218 -0.6486 -1.1023
   51MOL   H56334663   5.349   7.504   0.999 -0.3497  0.3462 -0.0623
   51MOL   H56434664   5.271   7.385   1.259  0.8529 -2.8604  0.6410
   51MOL   H56534665   5.179   7.369   1.116  0.7607 -0.0318 -0.6437
   51MOL   H56634666   5.265   7.151   1.151 -0.5045  0.3808  1.1470
   51MOL   H56734667   5.427   7.204   1.154  2.2413  1.3124 -3.8462
   51MOL   H56834668   5.398   7.111   0.956  0.3011 -0.2353  0.6724
   51MOL   H56934669   5.421   7.274   0.913 -2.1840  1.0684 -1.2208
   51MOL   H57034670   5.153   7.115   0.917  0.1356 -1.2959 -1.7564
   51MOL   H57134671   5.159   7.284   0.888  0.0595  0.1042  0.6343
   51MOL   H57234672   5.123   7.123   0.694 -1.4025  3.1136  3.8972
   51MOL   H57334673   5.266   7.049   0.704 -0.3166  0.6380 -0.8640
   51MOL   H57434674   5.227   7.360   0.666  0.4129 -0.0669  2.5077
   51MOL   H57534675   5.372   7.281   0.679 -0.3255  1.7287  0.8725
   51MOL   H57634676   5.162   7.238   0.474  0.5198  0.0117 -0.8086
   51MOL   H57734677   5.304   7.129   0.469 -0.3708 -0.8669  2.0994
   51MOL   H57834678   5.426   7.390   0.472  0.1117 -0.7959 -0.4735
   51MOL   H57934679   5.279   7.435   0.409  0.1495  1.4430  1.8968
   51MOL   N58034680   5.512   7.251   0.283 -0.1538  0.0446 -0.5880
   51MOL   C58134681   5.568   7.200   0.154  0.6095 -0.0803 -0.0233
   51MOL   C58234682   5.697   7.119   0.179  0.6226 -0.4325 -0.3778
   51MOL   C58334683   5.811   7.207   0.245  0.4793 -0.2779 -0.6821
   51MOL   C58434684   5.942   7.117   0.271  0.6610 -0.0242  0.4207
   51MOL   C58534685   5.943   7.020   0.389 -0.5050  0.0524 -0.8013
   51MOL   C58634686   6.046   6.899   0.386 -0.8342 -0.0656  0.7659
   51MOL   C58734687   6.185   6.925   0.446  0.2439 -0.6250 -0.3344
   51MOL   C58834688   6.266   6.797   0.472 -0.2963 -0.2311  0.2190
   51MOL   C58934689   6.416   6.816   0.502  0.3646 -0.0295 -0.4035
   51MOL   C59034690   6.473   6.696   0.576 -0.5020 -0.8740 -0.3814
   51MOL   C59134691   6.612   6.738   0.638  0.1923 -0.5373  0.6672
   51MOL   O59234692   6.662   6.847   0.608 -0.0820 -0.3656  0.0574
   51MOL   H59334693   5.570   7.252   0.366  0.8075  0.0893 -1.2610
   51MOL   H59434694   5.504   7.135   0.095 -0.4063  0.1350  0.8252
   51MOL   H59534695   5.581   7.284   0.085 -1.4003  0.4409  0.1952
   51MOL   H59634696   5.729   7.093   0.078  0.5513  0.5685 -0.6670
   51MOL   H59734697   5.667   7.037   0.244 -1.4744  0.6058  0.0268
   51MOL   H59834698   5.835   7.291   0.179  1.8981 -0.2387 -0.1363
   51MOL   H59934699   5.788   7.262   0.336  2.2136  0.7965 -0.8666
   51MOL   H60034700   6.025   7.188   0.273 -0.6069  1.5028  0.2760
   51MOL   H60134701   5.965   7.058   0.183 -1.3317  0.4907 -0.4629
   51MOL   H60234702   5.839   6.988   0.394 -0.3235 -0.5592 -0.9555
   51MOL   H60334703   5.941   7.082   0.479 -4.6286  1.2440 -1.6049
   51MOL   H60434704   6.001   6.829   0.456  0.2798 -0.3947  1.1752
   51MOL   H60534705   6.063   6.861   0.285  3.0829  0.4101  1.1793
   51MOL   H60634706   6.170   6.981   0.539 -1.8348 -0.3882 -0.8065
   51MOL   H60734707   6.229   6.993   0.372  1.3435  0.4662  1.2774
   51MOL   H60834708   6.225   6.740   0.555 -2.7368  2.2154  0.7719
   51MOL   H60934709   6.257   6.740   0.380 -2.2376  1.7137 -0.8393
   51MOL   H61034710   6.427   6.913   0.549 -0.6536  0.8897 -2.0247
   51MOL   H61134711   6.466   6.825   0.405  1.2656 -0.6757 -0.0060
   51MOL   H61234712   6.482   6.602   0.522  0.4840 -0.9495 -0.1008
   51MOL   H61334713   6.407   6.663   0.656 -1.3778 -0.9361 -1.1191
   51MOL   N61434714   6.670   6.649   0.720  0.0554  0.1169 -0.1647
   51MOL   C61534715   6.768   6.682   0.825 -0.1374 -0.4499  0.0540
   51MOL   C61634716   6.753   6.594   0.948  0.4288  0.2899  0.5454
   51MOL   C61734717   6.871   6.628   1.040  0.6664  0.8279  0.4407
   51MOL   C61834718   7.004   6.564   1.002  0.9322  0.0489  0.6950
   51MOL   C61934719   7.119   6.609   1.098 -0.0435 -0.1443 -0.1585
   51MOL   C62034720   7.265   6.574   1.046  0.8536  0.5372  0.5015
   51MOL   C62134721   7.378   6.635   1.134 -0.0591  0.5333 -0.0456
   51MOL   C62234722   7.390   6.572   1.271  0.8382 -0.0583  0.0750
   51MOL   C62334723   7.501   6.637   1.358  0.6684 -1.1092  0.0114
   51MOL   C62434724   7.509   6.586   1.505  0.8734 -0.4224  0.0493
   51MOL   C62534725   7.617   6.660   1.581  0.3233  0.1178 -0.0456
   51MOL   O62634726   7.683   6.752   1.541  0.0569 -0.4560  0.9155
   51MOL   H62734727   6.631   6.556   0.724  0.1764  0.1150  0.8817
   51MOL   H62834728   6.753   6.784   0.859  0.9554 -0.3788  0.3360
   51MOL   H62934729   6.866   6.683   0.777  0.1673 -0.7555  0.6678
   51MOL   H63034730   6.757   6.496   0.901 -1.1713  0.1498  0.6781
   51MOL   H63134731   6.654   6.615   0.988 -0.5452 -1.0324 -1.0991
   51MOL   H63234732   6.876   6.735   1.059 -0.0599  1.9804 -5.2417
   51MOL   H63334733   6.842   6.584   1.136 -1.0943  1.5138  0.2525
   51MOL   H63434734   7.023   6.586   0.897 -1.3528 -1.4667 -0.0562
   51MOL   H63534735   6.992   6.457   1.015  2.8174 -0.3799 -0.7546
   51MOL   H63634736   7.107   6.564   1.197 -0.1518  0.2925  0.0280
   51MOL   H63734737   7.119   6.710   1.138 -0.5459 -0.8067  1.5838
   51MOL   H63834738   7.291   6.468   1.041 -1.0600  0.1180 -1.4310
   51MOL   H63934739   7.272   6.624   0.949  2.6355 -1.5004 -0.4444
   51MOL   H64034740   7.363   6.742   1.146 -2.7660  0.1594  0.2701
   51MOL   H64134741   7.476   6.627   1.086 -0.4588 -2.6134 -0.4857
   51MOL   H64234742   7.297   6.558   1.325  2.8969  0.5300  3.9423
   51MOL   H64334743   7.421   6.470   1.246  0.8941  0.3680 -1.6814
   51MOL   H64434744   7.493   6.746   1.367  0.9594 -1.2845  3.0628
   51MOL   H64534745   7.601   6.638   1.316  0.3917 -0.6533 -0.6506
   51MOL   H64634746   7.538   6.481   1.507 -0.3270 -0.8434 -2.3018
   51MOL   H64734747   7.409   6.596   1.547 -0.0184  0.3410 -2.1427
   51MOL   N64834748   7.647   6.617   1.704  0.7669  0.4865 -0.3631
   51MOL   C64934749   0.046   6.659   1.784  0.1685  0.1955  0.1680
   51MOL   C65034750   0.110   6.533   1.848 -0.0682 -0.2640 -0.2078
   51MOL   C65134751   0.019   6.463   1.949  0.7931 -0.5684 -0.5996
   51MOL   C65234752   0.108   6.366   2.026  0.6024 -0.1079  0.3822
   51MOL   C65334753   0.025   6.302   2.141 -0.1008  0.2219  0.4015
   51MOL   C65434754   0.106   6.217   2.242 -0.0926  0.5073 -0.0815
   51MOL   C65534755   0.164   6.077   2.197  0.5155 -0.1959 -0.3264
   51MOL   C65634756   0.065   5.961   2.189  0.2241 -0.1119  0.1336
   51MOL   C65734757   0.124   5.819   2.161  0.3594 -0.4856  0.0137
   51MOL   C65834758   0.089   5.768   2.015 -0.7122 -0.7034 -0.3645
   51MOL   C65934759   0.170   5.822   1.901  0.6745 -0.6464 -1.0645
   51MOL   O66034760   0.235   5.927   1.900 -0.1213  0.2412  0.0977
   51MOL   H66134761   7.587   6.546   1.743  1.8150  0.4488  1.2078
   51MOL   H66234762   0.034   6.732   1.863 -1.8429  1.7051 -1.4870
   51MOL   H66334763   0.117   6.712   1.721 -1.5081  1.8614 -0.3646
   51MOL   H66434764   0.204   6.562   1.896  1.0182 -1.0428 -1.8021
   51MOL   H66534765   0.150   6.474   1.765  0.1408 -0.2256 -0.1342
   51MOL   H66634766   7.709   6.541   2.021 -0.0753 -0.8982 -0.5494
   51MOL   H66734767   7.646   6.424   1.899 -0.1777  0.1739  0.5188
   51MOL   H66834768   0.197   6.419   2.060 -0.7037  1.0936  1.9754
   51MOL   H66934769   0.141   6.292   1.953 -2.1150  0.6230 -1.6451
   51MOL   H67034770   7.661   6.237   2.105  0.1875  0.4268 -0.6103
   51MOL   H67134771   7.686   6.381   2.193  0.8165  2.4481 -1.8806
   51MOL   H67234772   0.178   6.296   2.267 -0.2717  0.3431  0.9408
   51MOL   H67334773   0.034   6.197   2.320  0.7140 -3.2529 -0.2186
   51MOL   H67434774   0.247   6.044   2.260  0.9865 -0.6039 -1.1416
   51MOL   H67534775   0.208   6.080   2.097  1.4357 -1.8615  0.0103
   51MOL   H67634776   0.014   5.958   2.286  0.4060  1.7973  0.3086
   51MOL   H67734777   7.704   5.984   2.115  0.4763  0.4904  0.0560
   51MOL   H67834778   0.088   5.749   2.236 -2.3621 -0.6918 -1.4022
   51MOL   H67934779   0.230   5.804   2.180  0.4230 -0.8157 -0.6047
   51MOL   H68034780   7.701   5.795   1.994 -0.5341  0.3678  0.0987
   51MOL   H68134781   0.109   5.661   2.008 -0.8552 -0.8035  0.6313
   51MOL   H68234782   0.148   5.769   1.808 -1.8218 -0.6451 -0.4892
   52MOL     N134783   4.767   5.035   2.925 -0.0332  0.1618 -0.2875
   52MOL     C234784   4.822   5.068   2.798  0.0555  0.2991  0.3232
   52MOL     C334785   4.964   5.122   2.812  0.7179 -0.3560  0.1272
   52MOL     C434786   5.015   5.178   2.677 -0.4596 -0.0933  1.4100
   52MOL     C534787   5.057   5.068   2.581 -0.1241  0.3076  0.9619
   52MOL     C634788   5.069   5.118   2.438  0.5975  0.7223 -1.0324
   52MOL     C734789   5.112   5.007   2.338 -0.3321  0.4481  0.4679
   52MOL     C834790   5.136   5.062   2.192  0.4649  0.5326 -0.7758
   52MOL     C934791   5.261   5.148   2.175  0.3225  0.4516 -0.0831
   52MOL    C1034792   5.301   5.168   2.026 -0.1646 -0.3405  0.7143
   52MOL    C1134793   5.429   5.261   2.010  0.2302  0.0623  0.1023
   52MOL    C1234794   5.446   5.323   1.873  0.0317  0.0336  0.2911
   52MOL    O1334795   5.354   5.322   1.790  0.1033 -0.3230  0.3815
   52MOL    H1434796   4.696   4.968   2.900  1.9636 -1.4423 -1.8301
   52MOL    H1534797   4.765   5.143   2.743 -0.5140 -1.3439 -1.3915
   52MOL    H1634798   4.823   4.981   2.731 -0.4163  1.0443 -0.6555
   52MOL    H1734799   5.040   5.055   2.852 -0.1777 -0.8888  0.9357
   52MOL    H1834800   4.963   5.205   2.883  2.3113 -1.3941  1.3947
   52MOL    H1934801   4.936   5.243   2.641  1.0580  0.5475 -0.8494
   52MOL    H2034802   5.092   5.250   2.703 -0.1760 -0.5619  1.8859
   52MOL    H2134803   4.993   4.980   2.590 -0.0638  0.1177 -0.3191
   52MOL    H2234804   5.153   5.025   2.610  0.0152 -1.5102 -1.8982
   52MOL    H2334805   5.148   5.193   2.445  0.2218  0.9638  0.9024
   52MOL    H2434806   4.973   5.162   2.411 -0.4818 -0.5962  0.5572
   52MOL    H2534807   5.195   4.948   2.376  1.1834  2.1648 -0.0729
   52MOL    H2634808   5.028   4.938   2.346 -0.4163  0.3795 -0.9689
   52MOL    H2734809   5.046   5.117   2.165  0.6745  0.7385 -1.0582
   52MOL    H2834810   5.147   4.988   2.113 -0.1109 -0.5275  0.1258
   52MOL    H2934811   5.252   5.247   2.219  0.9680  0.5809 -0.2360
   52MOL    H3034812   5.347   5.101   2.223  0.8406 -1.6545 -2.9381
   52MOL    H3134813   5.218   5.220   1.980 -0.7733 -1.2676  0.7585
   52MOL    H3234814   5.317   5.077   1.968  1.4596 -0.3615  1.1506
   52MOL    H3334815   5.516   5.200   2.037  0.3300  0.4165  0.5872
   52MOL    H3434816   5.416   5.346   2.076  1.5019 -0.1071  0.5853
   52MOL    H3534817   4.819   4.978   2.991 -2.9878 -2.9535 -0.5275
   52MOL    N3634818   5.566   5.378   1.841  0.1565 -0.2630  0.3199
   52MOL    C3734819   5.581   5.487   1.751  0.5315 -0.0577 -0.8830
   52MOL    C3834820   5.621   5.441   1.614 -0.1113  0.0055 -0.2010
   52MOL    C3934821   5.587   5.545   1.507 -0.5278 -0.1648 -0.6212
   52MOL    C4034822   5.648   5.512   1.369 -0.6704  1.1326  0.1140
   52MOL    C4134823   5.632   5.627   1.266 -0.3538 -0.2267  0.1750
   52MOL    C4234824   5.704   5.592   1.133  0.8990  0.4185 -0.0463
   52MOL    C4334825   5.633   5.485   1.049 -0.0466  0.5907 -0.6285
   52MOL    C4434826   5.686   5.489   0.908 -0.2101  0.7062  0.9900
   52MOL    C4534827   5.622   5.384   0.812 -0.0528 -0.4724 -0.2579
   52MOL    C4634828   5.652   5.231   0.824 -0.1710 -0.5256 -0.8741
   52MOL    C4734829   5.789   5.186   0.761  1.0398 -0.1185  0.6850
   52MOL    O4834830   5.873   5.273   0.731  0.0202 -0.5461  0.0090
   52MOL    H4934831   5.632   5.369   1.917 -1.0939 -0.3639  1.4137
   52MOL    H5034832   5.490   5.547   1.762  1.1057  0.5015  1.1817
   52MOL    H5134833   5.654   5.560   1.788  0.4280 -0.9965  1.2303
   52MOL    H5234834   5.584   5.340   1.593  3.1084 -1.4135  0.5913
   52MOL    H5334835   5.729   5.427   1.611 -0.0493  0.4743 -0.0960
   52MOL    H5434836   5.479   5.546   1.495 -0.6620 -2.1091  0.2234
   52MOL    H5534837   5.620   5.642   1.545 -2.5821  0.3803 -0.1314
   52MOL    H5634838   5.598   5.421   1.336  0.1898 -0.2352  2.4285
   52MOL    H5734839   5.754   5.489   1.385 -0.6614  0.1755 -1.2673
   52MOL    H5834840   5.662   5.724   1.306  0.5811 -1.1797  1.8474
   52MOL    H5934841   5.528   5.652   1.249 -0.3824 -0.1128  0.5213
   52MOL    H6034842   5.698   5.685   1.076 -1.9343  1.7063  2.2282
   52MOL    H6134843   5.807   5.559   1.147  1.8297  2.3566 -2.0583
   52MOL    H6234844   5.532   5.526   1.052 -0.5056 -0.5960  0.5899
   52MOL    H6334845   5.632   5.382   1.085  0.8271  0.8205  0.0834
   52MOL    H6434846   5.671   5.583   0.857 -0.6018  0.5608  0.8341
   52MOL    H6534847   5.793   5.469   0.922 -0.2192 -1.1047 -1.1827
   52MOL    H6634848   5.639   5.414   0.709 -1.3283  0.8142 -0.1058
   52MOL    H6734849   5.516   5.401   0.833  0.2130  0.8629  0.0347
   52MOL    H6834850   5.572   5.164   0.792 -0.5703 -1.6338  2.2317
   52MOL    H6934851   5.650   5.210   0.931  1.6977  0.6371 -0.5975
   52MOL    N7034852   5.805   5.056   0.738  0.3345  0.5999 -0.0456
   52MOL    C7134853   5.926   4.982   0.687  0.2433 -0.0183 -0.1584
   52MOL    C7234854   6.046   4.966   0.782 -0.2709 -0.3377  0.5354
   52MOL    C7334855   6.015   4.927   0.926  0.1634 -0.3732  0.3794
   52MOL    C7434856   6.127   4.886   1.022 -0.3011 -0.9159 -0.2200
   52MOL    C7534857   6.069   4.832   1.161  0.7643 -0.4650 -0.2851
   52MOL    C7634858   6.177   4.824   1.269  1.0749 -0.1354 -0.7708
   52MOL    C7734859   6.145   4.737   1.391  0.2809 -0.1468 -0.3204
   52MOL    C7834860   6.119   4.590   1.358 -0.1329 -0.5177  0.5904
   52MOL    C7934861   6.093   4.506   1.485  0.1984  0.2097 -0.1461
   52MOL    C8034862   5.959   4.520   1.564  0.0722  1.1031  0.4886
   52MOL    C8134863   5.970   4.434   1.697 -0.1111 -0.8174 -0.8314
   52MOL    O8234864   6.082   4.390   1.730  0.1214  0.3002  0.1064
   52MOL    H8334865   5.736   4.994   0.779 -0.0056  1.2683  0.4082
   52MOL    H8434866   5.880   4.884   0.678 -0.7024  0.5250 -1.3153
   52MOL    H8534867   5.960   5.017   0.590  1.0778 -0.6711 -0.1145
   52MOL    H8634868   6.100   5.060   0.791 -0.3000 -0.1772 -0.8996
   52MOL    H8734869   6.120   4.895   0.744 -0.9036 -1.0226  0.5680
   52MOL    H8834870   5.948   4.997   0.976  3.0842  1.1742  2.2079
   52MOL    H8934871   5.957   4.835   0.912  0.5401 -0.4457 -0.7511
   52MOL    H9034872   6.190   4.973   1.041  0.1282 -1.2949  0.1271
   52MOL    H9134873   6.198   4.819   0.973  0.8248  1.9178 -2.6281
   52MOL    H9234874   6.032   4.731   1.144 -0.2710 -0.3116  1.0425
   52MOL    H9334875   5.998   4.905   1.199  0.5087 -0.1533 -1.3380
   52MOL    H9434876   6.271   4.795   1.221  0.1116 -2.2708 -1.4477
   52MOL    H9534877   6.199   4.925   1.305  0.0446  0.1700 -1.0062
   52MOL    H9634878   6.051   4.773   1.434  0.8170 -0.9065  1.5528
   52MOL    H9734879   6.225   4.745   1.465 -0.2122 -0.5270  0.2605
   52MOL    H9834880   6.035   4.574   1.290  0.5677  1.7554 -0.8540
   52MOL    H9934881   6.204   4.554   1.300 -1.8428 -1.9108 -1.0863
   52MOL   H10034882   6.176   4.528   1.553 -0.3312  0.4775  0.4226
   52MOL   H10134883   6.096   4.400   1.460  0.4341 -0.2394  1.6629
   52MOL   H10234884   5.870   4.484   1.513  0.7907 -0.2827  0.2127
   52MOL   H10334885   5.948   4.628   1.580  2.1039  1.5396 -0.8206
   52MOL   N10434886   5.852   4.408   1.764  0.2102  0.2659 -1.1219
   52MOL   C10534887   5.845   4.319   1.883  0.0629  0.4516 -0.2626
   52MOL   C10634888   5.704   4.310   1.935  0.8655  0.2119  0.0877
   52MOL   C10734889   5.700   4.212   2.044 -0.0600  0.7762 -0.4580
   52MOL   C10834890   5.569   4.205   2.124  0.1961 -0.5963 -0.6494
   52MOL   C10934891   5.575   4.102   2.236 -0.3867 -0.2948 -0.6683
   52MOL   C11034892   5.444   4.063   2.297  0.4167  0.6263 -0.1849
   52MOL   C11134893   5.450   3.934   2.391  0.3791  0.1818  0.2261
   52MOL   C11234894   5.311   3.906   2.452 -0.1058 -0.3209  0.0268
   52MOL   C11334895   5.267   3.992   2.574  0.2732  0.0136  0.0674
   52MOL   C11434896   5.321   3.946   2.714  0.6719 -0.5667 -0.7614
   52MOL   C11534897   5.238   3.828   2.781  0.1177  0.7219  1.3193
   52MOL   O11634898   5.178   3.755   2.705 -0.2142 -0.3537  0.8147
   52MOL   H11734899   5.767   4.459   1.745 -2.1454 -2.2298  2.1283
   52MOL   H11834900   5.879   4.217   1.864 -1.1866 -0.0615  0.2120
   52MOL   H11934901   5.901   4.362   1.966 -0.9141  4.1434 -1.4252
   52MOL   H12034902   5.640   4.286   1.850 -0.0580 -0.3208  0.9299
   52MOL   H12134903   5.669   4.398   1.989  0.4121 -0.8664  1.5468
   52MOL   H12234904   5.735   4.119   2.000  0.8568  1.2945 -0.8319
   52MOL   H12334905   5.774   4.240   2.119  0.6164 -0.5574 -0.6215
   52MOL   H12434906   5.491   4.187   2.050 -1.7870  0.3086  1.1767
   52MOL   H12534907   5.548   4.303   2.167 -0.1428 -1.4878  1.2811
   52MOL   H12634908   5.645   4.137   2.312  1.3849 -3.3111 -0.8477
   52MOL   H12734909   5.622   4.014   2.192  1.6686  0.2289  0.4198
   52MOL   H12834910   5.395   4.144   2.349  1.8940  0.5306  1.3975
   52MOL   H12934911   5.378   4.038   2.214 -0.7939  0.6277  0.7725
   52MOL   H13034912   5.520   3.947   2.473  0.9410  0.9758 -0.3698
   52MOL   H13134913   5.484   3.845   2.340 -0.3597  1.4212 -2.5221
   52MOL   H13234914   5.253   3.914   2.360 -0.1075 -0.6600 -0.0025
   52MOL   H13334915   5.303   3.801   2.479 -1.0842 -0.8552 -2.2060
   52MOL   H13434916   5.158   3.992   2.578  0.2280  0.9585 -0.9085
   52MOL   H13534917   5.288   4.098   2.558  1.1770 -0.4990 -2.4144
   52MOL   H13634918   5.319   4.029   2.784  0.8279  0.1920 -1.6380
   52MOL   H13734919   5.425   3.915   2.707  0.1008 -2.4294 -1.4209
   52MOL   N13834920   5.230   3.809   2.912 -0.0476  0.0484  0.6166
   52MOL   C13934921   5.177   3.684   2.967 -0.7455  0.1319  0.7876
   52MOL   C14034922   5.178   3.682   3.121  0.4113  0.0057 -0.3673
   52MOL   C14134923   5.087   3.793   3.184 -0.0207 -0.2466 -0.3997
   52MOL   C14234924   4.946   3.738   3.233 -0.2264  0.0854  1.1564
   52MOL   C14334925   4.868   3.850   3.302  0.0337  0.5361  0.3850
   52MOL   C14434926   4.711   3.823   3.313 -0.3089 -0.8547 -0.5102
   52MOL   C14534927   4.637   3.832   3.181 -0.5402  0.9782  0.9661
   52MOL   C14634928   4.496   3.783   3.184 -0.0773 -0.0494  0.5008
   52MOL   C14734929   4.410   3.816   3.055 -0.3937  0.3019 -0.2449
   52MOL   C14834930   4.471   3.757   2.923 -0.3414 -1.1326 -0.4970
   52MOL   C14934931   4.363   3.773   2.815  0.8950  0.1548 -0.5362
   52MOL   O15034932   4.241   3.753   2.836  0.1098 -0.4058  0.5041
   52MOL   H15134933   5.267   3.884   2.969 -2.0636  1.6599 -0.1362
   52MOL   H15234934   5.075   3.684   2.929 -1.0632  0.4436  1.6169
   52MOL   H15334935   5.218   3.599   2.913 -0.6084  0.5330  0.2575
   52MOL   H15434936   5.284   3.685   3.146  0.7685  1.2977 -1.9883
   52MOL   H15534937   5.142   3.588   3.161 -1.3703  0.2355 -1.4026
   52MOL   H15634938   5.141   3.828   3.273 -0.3145 -1.6109  0.3269
   52MOL   H15734939   5.089   3.878   3.117  1.2079  0.7925  0.9127
   52MOL   H15834940   4.973   3.653   3.294  1.3972  0.2962  0.7524
   52MOL   H15934941   4.877   3.710   3.154 -1.4370 -0.2204  2.3050
   52MOL   H16034942   4.885   3.945   3.251 -2.5395  0.9640  0.2281
   52MOL   H16134943   4.902   3.862   3.405 -1.8488 -0.2169  1.1339
   52MOL   H16234944   4.698   3.731   3.368 -0.6036 -0.4669  0.0736
   52MOL   H16334945   4.659   3.884   3.387  1.3703  1.0686 -0.8445
   52MOL   H16434946   4.689   3.778   3.102 -2.1635  4.0164 -2.3085
   52MOL   H16534947   4.653   3.932   3.139  4.1383 -0.2618 -0.5346
   52MOL   H16634948   4.508   3.676   3.200  1.1267 -0.2501 -1.5313
   52MOL   H16734949   4.440   3.819   3.271  2.8477  4.0697  0.7974
   52MOL   H16834950   4.419   3.923   3.035  0.8040 -0.2308 -2.8503
   52MOL   H16934951   4.305   3.790   3.070 -0.6949  1.4737 -0.2153
   52MOL   H17034952   4.492   3.651   2.933 -0.8072 -1.3004 -1.2820
   52MOL   H17134953   4.568   3.804   2.907 -0.1443 -1.5593 -0.5502
   52MOL   N17234954   4.403   3.810   2.696 -0.5018  0.3314 -0.3265
   52MOL   C17334955   4.310   3.849   2.586  1.1866 -0.1259  0.1857
   52MOL   C17434956   4.304   3.725   2.485 -0.2562  0.1737  0.0034
   52MOL   C17534957   4.250   3.751   2.342  0.3953  0.5863 -0.2776
   52MOL   C17634958   4.273   3.625   2.255 -0.2160 -0.0117 -0.5744
   52MOL   C17734959   4.242   3.637   2.106  0.0894 -0.8867  0.1472
   52MOL   C17834960   4.318   3.527   2.026  0.7015  0.0099 -0.1062
   52MOL   C17934961   4.465   3.552   1.997  0.3276 -0.7388 -0.0221
   52MOL   C18034962   4.541   3.441   1.921  0.7890  0.6824 -0.1750
   52MOL   C18134963   4.690   3.457   1.918 -0.0453 -0.5784 -0.0624
   52MOL   C18234964   4.760   3.357   1.820  0.1401  0.2447  0.2400
   52MOL   C18334965   4.756   3.207   1.851  0.5499 -0.1157  0.4647
   52MOL   O18434966   4.688   3.163   1.942  0.0853  0.0193  0.1777
   52MOL   H18534967   4.501   3.822   2.675 -0.9633  0.3827 -2.5963
   52MOL   H18634968   4.210   3.884   2.610  1.2353 -0.3920  0.7701
   52MOL   H18734969   4.354   3.927   2.523 -0.9570  1.1973  0.2641
   52MOL   H18834970   4.248   3.647   2.537  1.0251 -0.8564 -0.1539
   52MOL   H18934971   4.408   3.693   2.485 -0.5966 -0.9578 -0.0441
   52MOL   H19034972   4.146   3.781   2.355  0.3392  1.1049 -1.8203
   52MOL   H19134973   4.294   3.833   2.287  0.4854  0.9734  0.3663
   52MOL   H19234974   4.208   3.551   2.303  0.2220  0.2475  0.4253
   52MOL   H19334975   4.374   3.587   2.266 -0.5155 -0.9844 -1.0740
   52MOL   H19434976   4.277   3.735   2.072 -1.5554  0.2677  1.7046
   52MOL   H19534977   4.135   3.638   2.084 -0.4971 -3.1611  2.6166
   52MOL   H19634978   4.303   3.429   2.071 -1.0010  1.0632  1.7193
   52MOL   H19734979   4.279   3.510   1.925  0.4531 -1.1543  0.1721
   52MOL   H19834980   4.519   3.555   2.091 -0.5999 -1.6218  0.5527
   52MOL   H19934981   4.479   3.647   1.945  0.1179 -0.8520 -0.2902
   52MOL   H20034982   4.522   3.346   1.971 -1.2438  0.3088 -1.6076
   52MOL   H20134983   4.499   3.435   1.821  0.9731  1.6813 -0.3102
   52MOL   H20234984   4.733   3.453   2.018 -2.7875  2.5934  1.3609
   52MOL   H20334985   4.709   3.558   1.881 -2.6416 -0.8160 -2.2018
   52MOL   H20434986   4.866   3.384   1.821  0.1490  0.4056 -1.7610
   52MOL   H20534987   4.705   3.362   1.726 -1.0138  0.9932  0.9392
   52MOL   N20634988   4.834   3.129   1.777 -0.1973 -0.1737  0.5042
   52MOL   C20734989   4.854   2.988   1.806  0.0199  1.2854 -0.3573
   52MOL   C20834990   4.983   2.961   1.885 -0.3283  0.0170 -0.3622
   52MOL   C20934991   5.116   3.003   1.818 -0.6325 -0.2464  0.0773
   52MOL   C21034992   5.126   2.958   1.669  0.3272 -0.2928 -0.3050
   52MOL   C21134993   5.165   2.811   1.654 -0.7765  0.0909 -0.4133
   52MOL   C21234994   5.176   2.766   1.501 -0.1388 -0.0962  0.1533
   52MOL   C21334995   5.273   2.649   1.491  0.6060 -0.3679  0.1314
   52MOL   C21434996   5.302   2.588   1.356 -0.8574  0.8694 -0.9205
   52MOL   C21534997   5.407   2.476   1.352  0.1591  0.1986  0.0190
   52MOL   C21634998   5.438   2.402   1.225 -0.4875  0.4533  0.2028
   52MOL   C21734999   5.510   2.476   1.116  0.1802  0.3328 -0.3975
   52MOL   O21835000   5.512   2.596   1.128 -1.4813 -0.2246 -0.3523
   52MOL   H21935001   4.897   3.182   1.719 -1.5624 -0.8732 -1.6703
   52MOL   H22035002   4.860   2.932   1.712 -1.6373  1.1182 -0.3664
   52MOL   H22135003   4.766   2.946   1.853  0.3365  1.0291  0.0081
   52MOL   H22235004   4.992   2.853   1.901  0.9673  0.2227  0.3999
   52MOL   H22335005   4.983   2.999   1.987  3.4125 -1.7825  0.4182
   52MOL   H22435006   5.109   3.112   1.818  0.0758 -0.1959  0.4311
   52MOL   H22535007   5.207   2.983   1.875 -0.0017  1.5386 -0.2782
   52MOL   H22635008   5.214   3.010   1.632  0.1536 -1.7553 -2.9568
   52MOL   H22735009   5.042   3.000   1.614 -0.6351  1.7922  2.6272
   52MOL   H22835010   5.085   2.747   1.689  0.9322 -1.5116  0.6236
   52MOL   H22935011   5.258   2.798   1.709 -1.1623  0.9963  0.4734
   52MOL   H23035012   5.088   2.756   1.439  1.7335 -0.1156 -2.5739
   52MOL   H23135013   5.231   2.849   1.456 -1.4632 -0.4957 -2.2866
   52MOL   H23235014   5.247   2.563   1.553 -0.7893 -1.1260 -1.4739
   52MOL   H23335015   5.368   2.678   1.535  1.7281 -2.0416 -1.1051
   52MOL   H23435016   5.214   2.534   1.320 -0.2661 -2.4910  2.4886
   52MOL   H23535017   5.332   2.668   1.287 -1.6062 -0.2373 -2.5802
   52MOL   H23635018   5.373   2.397   1.420  1.6933 -0.4894 -0.0066
   52MOL   H23735019   5.503   2.516   1.385  0.8299 -1.2076 -0.1971
   52MOL   H23835020   5.346   2.360   1.185 -0.0647 -0.7328  0.4516
   52MOL   H23935021   5.494   2.310   1.243  0.0534  0.4655 -1.3374
   52MOL   N24035022   5.571   2.408   1.017 -0.3647 -0.0140 -0.2655
   52MOL   C24135023   5.662   2.472   0.922 -0.5252  0.6079  0.6512
   52MOL   C24235024   5.603   2.514   0.788  0.9618 -0.7054  0.1343
   52MOL   C24335025   5.710   2.573   0.690 -0.1107  0.5962 -0.2478
   52MOL   C24435026   5.666   2.592   0.544 -0.1287  0.2311 -0.5018
   52MOL   C24535027   5.786   2.607   0.450  0.1627 -0.6755  0.3089
   52MOL   C24635028   5.740   2.651   0.312  0.8907 -0.0237  0.5985
   52MOL   C24735029   5.719   2.534   0.218  0.4593  0.3356 -0.1194
   52MOL   C24835030   5.690   2.570   0.071 -0.8355  0.6553  0.4392
   52MOL   C24935031   5.668   2.454   7.687 -0.1672 -0.8139 -0.2218
   52MOL   C25035032   5.537   2.388   7.694  0.4720  0.7199  0.1414
   52MOL   C25135033   5.516   2.287   7.582 -0.0856 -0.2531 -0.4909
   52MOL   O25235034   5.601   2.198   7.564  0.2716 -0.4784 -0.3607
   52MOL   H25335035   5.556   2.308   1.011 -0.5559 -0.1286  1.8571
   52MOL   H25435036   5.739   2.396   0.916  0.2048  1.4250 -0.5986
   52MOL   H25535037   5.709   2.556   0.973 -1.8200  1.3448  0.6427
   52MOL   H25635038   5.522   2.585   0.801  1.8291  0.8744 -2.7858
   52MOL   H25735039   5.545   2.436   0.738 -0.8317  1.5687 -1.3737
   52MOL   H25835040   5.758   2.666   0.722 -1.3374  0.6818  1.4240
   52MOL   H25935041   5.791   2.501   0.688 -1.8210 -1.3551 -0.7140
   52MOL   H26035042   5.604   2.680   0.530 -2.3807 -0.9823  1.4889
   52MOL   H26135043   5.614   2.502   0.513 -0.3818  0.2812 -0.2216
   52MOL   H26235044   5.851   2.520   0.461  1.2494  0.3846  2.8188
   52MOL   H26335045   5.846   2.688   0.492 -0.4079 -0.6274  1.0589
   52MOL   H26435046   5.655   2.719   0.315  1.9452  1.5841 -3.1985
   52MOL   H26535047   5.825   2.700   0.266  2.4644 -1.3183  2.0237
   52MOL   H26635048   5.634   2.480   0.260  1.2491 -0.0061  1.0781
   52MOL   H26735049   5.802   2.463   0.226  1.3059  1.4332  1.0578
   52MOL   H26835050   5.618   2.651   0.064 -1.9163 -0.3684 -0.5958
   52MOL   H26935051   5.779   2.620   0.034  0.1593 -1.6177 -0.3788
   52MOL   H27035052   5.744   2.377   7.692 -0.0103 -0.6291  0.3831
   52MOL   H27135053   5.682   2.498   7.589  0.6290  1.5224  0.8898
   52MOL   H27235054   5.461   2.466   7.690 -3.6310 -2.9258  2.7140
   52MOL   H27335055   5.516   2.344   0.076  2.7343  0.8340  0.6942
   52MOL   N27435056   5.414   2.309   7.493 -0.0987  0.0024  0.1078
   52MOL   C27535057   5.389   2.233   7.371 -0.1088  0.2134  0.1815
   52MOL   C27635058   5.304   2.105   7.401  0.8696 -0.5809 -0.1405
   52MOL   C27735059   5.163   2.139   7.449 -0.1903 -0.2340 -0.5956
   52MOL   C27835060   5.073   2.017   7.474 -0.9477 -0.1472  0.3142
   52MOL   C27935061   4.935   2.053   7.524 -0.2374  0.9730 -0.0324
   52MOL   C28035062   4.874   1.954   7.624  0.8558  0.2453 -0.3720
   52MOL   C28135063   4.722   1.968   7.636  0.0732 -0.7551 -0.2074
   52MOL   C28235064   4.660   1.879   0.024 -0.1122 -0.3077  0.1411
   52MOL   C28335065   4.508   1.874   0.014  0.0822 -0.2855  0.5071
   52MOL   C28435066   4.423   1.848   0.144 -0.1832 -0.0491 -0.4524
   52MOL   C28535067   4.379   1.981   0.196 -0.1313  0.4240  0.7442
   52MOL   O28635068   4.316   2.062   0.127  0.1870 -0.4850 -0.4572
   52MOL   H28735069   5.346   2.380   7.514 -0.6752 -0.6870  0.6173
   52MOL   H28835070   5.484   2.205   7.324 -0.5523 -0.2585 -0.4472
   52MOL   H28935071   5.336   2.295   7.299 -2.7640 -2.3484 -0.1748
   52MOL   H29035072   5.345   2.039   7.477  1.7341  0.0609 -0.0382
   52MOL   H29135073   5.294   2.054   7.305 -0.6804  0.1276 -0.3827
   52MOL   H29235074   5.176   2.187   7.547 -1.3175  1.2656 -1.1696
   52MOL   H29335075   5.112   2.222   7.402 -2.0293 -0.2494  1.3029
   52MOL   H29435076   5.107   1.941   7.545 -0.8104  0.3399  0.7703
   52MOL   H29535077   5.052   1.973   7.377  0.3538  2.7939 -1.3442
   52MOL   H29635078   4.866   2.064   7.441 -1.0605 -1.9470  0.2034
   52MOL   H29735079   4.948   2.147   7.578  1.1083  1.1501 -0.6435
   52MOL   H29835080   4.900   1.854   7.590 -0.4219 -0.6922  1.3149
   52MOL   H29935081   4.932   1.958   0.001  1.6945  0.4728 -0.9077
   52MOL   H30035082   4.687   1.947   7.535  0.0749  3.0253 -1.0843
   52MOL   H30135083   4.704   2.074   7.653  2.6648 -0.4345  0.7022
   52MOL   H30235084   4.707   1.782   0.004  0.7837  0.5466 -2.0481
   52MOL   H30335085   4.692   1.906   0.125  0.9120 -0.2120 -0.2020
   52MOL   H30435086   4.491   1.788   7.665  2.4219 -0.8300  0.5760
   52MOL   H30535087   4.465   1.959   7.677  2.3006  0.9486  0.6703
   52MOL   H30635088   4.479   1.795   0.220 -1.6154 -0.9324 -0.0097
   52MOL   H30735089   4.331   1.793   0.124 -0.2394  0.1544 -0.7584
   52MOL   N30835090   4.428   2.006   0.318 -0.6107 -0.3301 -0.0331
   52MOL   C30935091   4.415   2.125   0.390  0.4236  0.4868  0.1686
   52MOL   C31035092   4.514   2.136   0.508 -0.3629 -0.1975  0.6851
   52MOL   C31135093   4.490   2.265   0.590 -0.1016  0.2536  0.5024
   52MOL   C31235094   4.598   2.275   0.699  0.8252  0.4938 -0.3508
   52MOL   C31335095   4.590   2.407   0.776  0.6587  0.1589 -0.2832
   52MOL   C31435096   4.686   2.413   0.895 -0.2505  0.2076  0.4059
   52MOL   C31535097   4.653   2.524   0.996 -0.0381 -0.5222  0.3028
   52MOL   C31635098   4.527   2.487   1.085  0.1533  0.3250  0.5488
   52MOL   C31735099   4.495   2.600   1.188  0.6010 -0.2706 -0.7350
   52MOL   C31835100   4.363   2.594   1.254 -0.6378  0.1304 -0.6204
   52MOL   C31935101   4.342   2.474   1.345 -0.2305  0.4671  0.0642
   52MOL   O32035102   4.422   2.451   1.439  0.3500 -0.1966  0.3045
   52MOL   H32135103   4.473   1.928   0.364 -1.8185  0.8631  3.3045
   52MOL   H32235104   4.313   2.124   0.427 -0.0058  1.1810 -0.9799
   52MOL   H32335105   4.417   2.216   0.329 -0.8915  1.7883  2.0221
   52MOL   H32435106   4.619   2.143   0.481 -0.6075  2.5730  0.2850
   52MOL   H32535107   4.494   2.046   0.567  3.1223 -1.4438  0.0759
   52MOL   H32635108   4.481   2.351   0.525  0.1845 -1.6036 -2.0791
   52MOL   H32735109   4.387   2.266   0.625 -0.5755 -0.7494 -0.8299
   52MOL   H32835110   4.699   2.272   0.656  0.9089  1.0977 -0.2003
   52MOL   H32935111   4.602   2.190   0.766 -0.5660  0.0899 -0.7627
   52MOL   H33035112   4.487   2.425   0.807 -0.3050 -0.1748 -3.1755
   52MOL   H33135113   4.616   2.493   0.715 -1.0255  0.3076 -0.8261
   52MOL   H33235114   4.687   2.315   0.942 -1.4016  0.9408  1.9994
   52MOL   H33335115   4.784   2.420   0.847 -0.0919 -3.1459  0.1132
   52MOL   H33435116   4.623   2.610   0.935 -0.3255 -0.6778  0.2215
   52MOL   H33535117   4.734   2.541   1.066  2.0836 -2.8575 -1.4915
   52MOL   H33635118   4.438   2.473   1.024  1.2984 -0.2473 -1.0518
   52MOL   H33735119   4.537   2.395   1.144  0.9610  0.8079  1.1783
   52MOL   H33835120   4.520   2.693   1.138  0.8983 -0.2047 -0.4623
   52MOL   H33935121   4.573   2.583   1.262  1.4734 -0.2059 -1.6141
   52MOL   H34035122   4.283   2.605   1.180 -1.1993  0.0608 -0.0304
   52MOL   H34135123   4.355   2.686   1.311  2.7072  0.2283 -0.2412
   52MOL   N34235124   4.231   2.399   1.331  0.4097  0.5554  0.2713
   52MOL   C34335125   4.178   2.308   1.432  0.4329 -0.8038  0.6615
   52MOL   C34435126   4.148   2.163   1.370  0.5192  0.2881  0.9473
   52MOL   C34535127   4.088   2.058   1.454 -0.7917 -0.5046 -0.2510
   52MOL   C34635128   4.087   1.920   1.384  0.6226  0.2886 -0.3748
   52MOL   C34735129   4.035   1.814   1.481  0.1783  0.7203  0.3779
   52MOL   C34835130   4.043   1.659   1.433  0.3213 -0.4249 -0.2367
   52MOL   C34935131   4.049   1.564   1.547 -0.8236  0.3138 -0.5289
   52MOL   C35035132   4.079   1.424   1.513  0.8904 -0.6349 -0.0293
   52MOL   C35135133   4.205   1.409   1.431 -0.2153 -0.0680  0.7985
   52MOL   C35235134   4.248   1.262   1.411  0.2726  0.4636  0.0289
   52MOL   C35335135   4.385   1.254   1.333 -0.3807  0.6348  0.8465
   52MOL   O35435136   4.410   1.337   1.247  0.7881  0.2610  0.0350
   52MOL   H35535137   4.170   2.427   1.255  3.0445  2.5951 -1.1804
   52MOL   H35635138   4.235   2.303   1.524  2.0293  0.7814 -0.2045
   52MOL   H35735139   4.079   2.347   1.456 -1.0866 -2.0860 -3.1446
   52MOL   H35835140   4.243   2.133   1.327  0.9802  0.2448  1.9843
   52MOL   H35935141   4.085   2.174   1.281  0.3851 -0.8016  0.9032
   52MOL   H36035142   4.134   2.057   1.553  0.8797  0.6610 -1.0069
   52MOL   H36135143   3.984   2.080   1.480 -0.3823  2.7019 -1.1666
   52MOL   H36235144   4.186   1.886   1.351 -0.7435 -0.5702 -3.8046
   52MOL   H36335145   4.027   1.922   1.293 -0.6800 -0.4562  0.4535
   52MOL   H36435146   3.930   1.830   1.502  0.0858 -2.3238  2.7025
   52MOL   H36535147   4.093   1.824   1.573 -0.2027  2.4481  0.4327
   52MOL   H36635148   3.966   1.644   1.357  1.4369 -0.4382 -1.3845
   52MOL   H36735149   4.135   1.643   1.376  1.0097 -0.0241  0.7430
   52MOL   H36835150   3.949   1.574   1.587 -0.7471 -2.9050  0.5336
   52MOL   H36935151   4.128   1.592   1.617 -0.3744  1.0674 -1.3172
   52MOL   H37035152   4.086   1.359   1.600 -0.2705 -0.9212 -0.1455
   52MOL   H37135153   3.992   1.386   1.459  0.9293 -0.5349 -0.1611
   52MOL   H37235154   4.291   1.466   1.467 -0.1459  0.6363 -0.4589
   52MOL   H37335155   4.189   1.442   1.328  2.3586 -1.3997 -0.0836
   52MOL   H37435156   4.168   1.217   1.352 -0.5040 -0.0901  1.4861
   52MOL   H37535157   4.263   1.214   1.507  2.1263  1.4182  0.2349
   52MOL   N37635158   4.468   1.151   1.356  0.2880 -0.4625 -0.3643
   52MOL   C37735159   4.594   1.112   1.279  0.5584  0.3075 -0.2763
   52MOL   C37835160   4.724   1.138   1.353  0.3431  0.9179  0.0532
   52MOL   C37935161   4.754   1.292   1.333 -0.3805  0.1854 -0.4843
   52MOL   C38035162   4.896   1.341   1.376 -0.6051  0.1903 -0.6588
   52MOL   C38135163   5.006   1.290   1.282 -0.6110 -0.1527 -0.0784
   52MOL   C38235164   5.141   1.350   1.314  0.4311 -0.4296  0.1116
   52MOL   C38335165   5.263   1.306   1.232 -0.0683  0.4551  0.2887
   52MOL   C38435166   5.257   1.362   1.088  0.2492  0.4217 -0.0830
   52MOL   C38535167   5.349   1.292   0.993  0.4482 -0.1687 -0.2439
   52MOL   C38635168   5.504   1.317   1.018  0.0969 -0.0392 -0.3402
   52MOL   C38735169   5.573   1.442   0.965  0.0673  0.6642  0.1567
   52MOL   O38835170   5.516   1.514   0.887  0.0022 -0.6909 -0.7238
   52MOL   H38935171   4.447   1.086   1.430  0.6106 -0.8537 -0.6155
   52MOL   H39035172   4.578   1.006   1.263  0.7088  0.4864 -1.6717
   52MOL   H39135173   4.583   1.148   1.177  2.4554 -2.3601 -1.4823
   52MOL   H39235174   4.803   1.072   1.318 -0.5848 -0.2839  0.1977
   52MOL   H39335175   4.705   1.109   1.456  1.7240  0.5717  0.2207
   52MOL   H39435176   4.740   1.309   1.226 -0.0968 -0.0805 -0.5626
   52MOL   H39535177   4.682   1.358   1.382 -2.6650 -2.4522 -0.1329
   52MOL   H39635178   4.912   1.293   1.473 -2.4127 -0.7448 -0.8016
   52MOL   H39735179   4.897   1.450   1.388  0.9018  0.1402 -0.1469
   52MOL   H39835180   4.973   1.315   1.182  0.0866  1.0915 -0.0085
   52MOL   H39935181   5.008   1.181   1.278  0.3856 -0.2250  1.7248
   52MOL   H40035182   5.133   1.459   1.321 -0.5392 -0.6108  2.2430
   52MOL   H40135183   5.165   1.321   1.416 -0.3666  0.4490  0.5508
   52MOL   H40235184   5.281   1.198   1.239 -1.2432  0.1817 -0.8450
   52MOL   H40335185   5.348   1.342   1.290 -0.9111  2.0454  0.5496
   52MOL   H40435186   5.158   1.355   1.045  0.4464 -0.7603 -0.3530
   52MOL   H40535187   5.270   1.470   1.084 -0.5218  0.4448 -2.5912
   52MOL   H40635188   5.311   1.327   0.897  0.2297 -1.4295 -0.6319
   52MOL   H40735189   5.320   1.189   1.013  1.3144 -0.2264  0.7152
   52MOL   H40835190   5.562   1.237   0.972 -0.6980 -0.4788 -0.5934
   52MOL   H40935191   5.542   1.312   1.120  0.9221  0.0916 -0.6394
   52MOL   N41035192   5.693   1.460   1.016 -0.3908 -0.5978 -0.6110
   52MOL   C41135193   5.787   1.565   0.974  0.2249  0.0554 -0.4651
   52MOL   C41235194   5.812   1.662   1.085 -0.0841 -0.2283 -0.1998
   52MOL   C41335195   5.890   1.789   1.039 -0.2150 -0.1697  0.1737
   52MOL   C41435196   6.042   1.775   1.027  0.4252 -0.3777  0.4213
   52MOL   C41535197   6.112   1.763   1.160 -1.0481  0.4786 -0.1686
   52MOL   C41635198   6.095   1.887   1.245  0.0777  0.5991 -0.6189
   52MOL   C41735199   6.188   1.885   1.372  0.6583  0.1545  0.8533
   52MOL   C41835200   6.165   1.772   1.468 -0.3605  0.6349  0.1318
   52MOL   C41935201   6.034   1.780   1.556  0.1798  0.1187  0.2056
   52MOL   C42035202   6.044   1.688   1.672  0.1388  0.3420  0.0477
   52MOL   C42135203   5.929   1.694   1.772 -0.3450 -0.7038  0.8324
   52MOL   O42235204   5.816   1.726   1.742 -0.5777 -0.5140 -0.1268
   52MOL   H42335205   5.725   1.383   1.072  0.6210 -0.0335 -0.4026
   52MOL   H42435206   5.887   1.530   0.950  0.7227  0.7839  0.5224
   52MOL   H42535207   5.745   1.630   0.897 -0.7697 -0.6332 -0.5123
   52MOL   H42635208   5.849   1.598   1.166 -2.2671  1.3079  2.1087
   52MOL   H42735209   5.717   1.702   1.121  0.1919 -0.3895  0.7345
   52MOL   H42835210   5.860   1.814   0.938  1.9471 -0.1589 -0.5042
   52MOL   H42935211   5.868   1.871   1.107 -2.7402 -0.8565  0.2115
   52MOL   H43035212   6.076   1.852   0.958 -0.4621  0.6930  1.1627
   52MOL   H43135213   6.064   1.686   0.967 -0.2653  0.0658 -0.5161
   52MOL   H43235214   6.217   1.735   1.158 -1.2022 -0.0107 -1.7677
   52MOL   H43335215   6.072   1.680   1.219  0.2585  1.0164  1.5274
   52MOL   H43435216   6.129   1.974   1.189  1.0363  0.1762 -0.7124
   52MOL   H43535217   5.991   1.909   1.269  0.5468  1.2735  0.8304
   52MOL   H43635218   6.162   1.970   1.436 -0.0331  0.3137  0.3723
   52MOL   H43735219   6.292   1.900   1.343  0.4991  0.3114  0.3488
   52MOL   H43835220   6.164   1.677   1.413  0.1203  0.8545 -0.2597
   52MOL   H43935221   6.256   1.770   1.527 -0.7967  1.4603  0.8354
   52MOL   H44035222   5.950   1.750   1.494  0.0635  0.8444  0.0093
   52MOL   H44135223   6.018   1.880   1.598 -1.2612 -0.4697  1.0947
   52MOL   H44235224   6.132   1.720   1.729  0.2967  1.7007 -0.9250
   52MOL   H44335225   6.048   1.587   1.631 -0.6856  1.1701 -2.1831
   52MOL   N44435226   5.957   1.682   1.905 -0.4636 -0.5169  0.3385
   52MOL   C44535227   5.870   1.734   2.012  0.8403  0.5170 -0.4651
   52MOL   C44635228   5.767   1.636   2.064 -0.2800 -0.2147 -0.5800
   52MOL   C44735229   5.721   1.662   2.204  0.0243  0.6650 -0.4684
   52MOL   C44835230   5.614   1.561   2.238  0.2812 -0.3360 -0.1872
   52MOL   C44935231   5.583   1.562   2.388  0.0506  0.7177 -0.5981
   52MOL   C45035232   5.445   1.479   2.423 -0.2415 -0.6066  0.4975
   52MOL   C45135233   5.424   1.470   2.573 -0.0632 -0.4695  0.3021
   52MOL   C45235234   5.401   1.611   2.632 -0.0601 -1.1325  0.0863
   52MOL   C45335235   5.399   1.613   2.783  0.9365 -0.7422  0.3372
   52MOL   C45435236   5.343   1.746   2.846  0.1823  0.5342  0.0142
   52MOL   C45535237   5.428   1.866   2.836  0.9001  0.2357 -0.1063
   52MOL   O45635238   5.545   1.858   2.837 -0.2107  0.4072  0.3960
   52MOL   H45735239   6.042   1.636   1.936 -0.4899 -0.8905 -0.1215
   52MOL   H45835240   5.943   1.768   2.086 -1.1770  1.1177  1.2802
   52MOL   H45935241   5.819   1.822   1.973  1.9839  1.5678  0.3824
   52MOL   H46035242   5.808   1.535   2.059  0.9769  0.1029  2.0087
   52MOL   H46135243   5.685   1.636   1.993 -0.1121  1.3270 -0.7985
   52MOL   H46235244   5.805   1.664   2.273 -0.1417  0.0616 -0.2456
   52MOL   H46335245   5.658   1.751   2.204 -1.8055 -0.6058 -0.8633
   52MOL   H46435246   5.635   1.457   2.212 -0.0427 -0.0465 -1.6352
   52MOL   H46535247   5.530   1.595   2.176  0.2367  1.8414  1.0167
   52MOL   H46635248   5.565   1.668   2.404 -0.2194  0.5157  0.5098
   52MOL   H46735249   5.667   1.518   2.442 -0.6542 -0.8500 -0.7544
   52MOL   H46835250   5.366   1.532   2.369  1.3831 -1.8249 -3.1806
   52MOL   H46935251   5.435   1.376   2.391 -1.5011 -0.1158 -0.7590
   52MOL   H47035252   5.515   1.425   2.612  0.8772  1.4646  0.3983
   52MOL   H47135253   5.329   1.418   2.583  1.0108 -2.1927  1.6779
   52MOL   H47235254   5.481   1.681   2.609  0.0368 -0.9791  0.8718
   52MOL   H47335255   5.306   1.660   2.607  1.8965  1.4151 -2.8022
   52MOL   H47435256   5.501   1.601   2.820  1.6974  0.8101 -1.1694
   52MOL   H47535257   5.336   1.531   2.817 -0.8444  1.1676  1.7503
   52MOL   H47635258   5.325   1.729   2.952  1.0752  0.0290  0.0880
   52MOL   H47735259   5.246   1.776   2.805  0.4259  0.5084 -0.5895
   52MOL   N47835260   5.349   1.976   2.836 -0.1863 -0.0365 -0.1395
   52MOL   C47935261   5.382   2.119   2.836  0.1527 -0.1552 -0.1367
   52MOL   C48035262   5.431   2.156   2.975  0.2257  0.0558  0.1355
   52MOL   C48135263   5.503   2.292   2.987 -0.0832 -0.1645 -0.4283
   52MOL   C48235264   5.577   2.305   3.124 -0.2247 -1.0145  0.5284
   52MOL   C48335265   5.668   2.436   3.126 -0.3145  0.3193  0.4206
   52MOL   C48435266   5.708   2.475   3.271  0.3799 -0.1822 -0.0670
   52MOL   C48535267   5.768   2.615   3.294 -0.4163  0.7030 -0.2881
   52MOL   C48635268   5.838   2.617   3.430 -0.7535  0.0577 -0.3720
   52MOL   C48735269   5.970   2.537   3.452  0.4848 -0.4958  0.1698
   52MOL   C48835270   6.000   2.489   3.598 -0.2208  0.0463 -0.3799
   52MOL   C48935271   5.895   2.404   3.665  0.5542  0.0956  0.2538
   52MOL   O49035272   5.884   2.284   3.628 -0.0107 -0.2970  0.2961
   52MOL   H49135273   5.250   1.954   2.844 -0.0842 -0.3147  0.3979
   52MOL   H49235274   5.450   2.135   2.752  1.1745 -3.4487  0.0144
   52MOL   H49335275   5.298   2.187   2.815 -0.7175 -1.4968 -1.0518
   52MOL   H49435276   5.498   2.076   3.006  0.2069  0.3235  0.8891
   52MOL   H49535277   5.350   2.142   3.047 -0.8110 -4.4531 -1.7225
   52MOL   H49635278   5.571   2.304   2.903  0.5228  1.2823  0.2494
   52MOL   H49735279   5.428   2.371   2.977  1.3464  1.0832 -1.5185
   52MOL   H49835280   5.644   2.221   3.135 -1.4367 -1.7085  2.8583
   52MOL   H49935281   5.509   2.295   3.208 -0.5516  3.5745  0.9858
   52MOL   H50035282   5.618   2.517   3.073 -0.1007  0.2194  0.0689
   52MOL   H50135283   5.761   2.426   3.071 -0.0872  1.1241  0.6445
   52MOL   H50235284   5.611   2.475   3.321 -0.4279  0.3424 -1.6112
   52MOL   H50335285   5.777   2.403   3.314  1.4666  1.0013  0.1703
   52MOL   H50435286   5.685   2.683   3.278  2.0066  3.5540 -1.1834
   52MOL   H50535287   5.840   2.635   3.214  0.5720  1.1202  0.7013
   52MOL   H50635288   5.858   2.720   3.459 -0.7838  0.4008 -1.5673
   52MOL   H50735289   5.766   2.569   3.497 -0.8717 -0.8215 -1.1267
   52MOL   H50835290   6.053   2.601   3.425 -0.1244 -0.1239 -0.8648
   52MOL   H50935291   5.972   2.452   3.384 -3.5597  1.2400 -2.3102
   52MOL   H51035292   6.022   2.564   3.674  2.5303 -1.5194  0.4682
   52MOL   H51135293   6.097   2.440   3.587  0.7136  1.7828 -0.0282
   52MOL   N51235294   5.811   2.461   3.755 -0.0084  0.4870 -0.1319
   52MOL   C51335295   5.693   2.404   3.810  0.5108 -0.1088 -0.3694
   52MOL   C51435296   5.661   2.441   3.960 -1.0690  0.1266 -0.7260
   52MOL   C51535297   5.751   2.373   4.066  0.3551  0.2640 -0.2219
   52MOL   C51635298   5.734   2.400   4.212  0.6042  0.0134  0.5664
   52MOL   C51735299   5.858   2.361   4.298  0.2659  0.5347  0.3279
   52MOL   C51835300   5.831   2.386   4.451 -0.1893  0.1002 -0.1031
   52MOL   C51935301   5.750   2.280   4.516 -0.1537 -0.3049  0.3057
   52MOL   C52035302   5.828   2.164   4.566 -0.8829  0.3542  0.1034
   52MOL   C52135303   5.749   2.055   4.645  0.1004 -0.4954  0.1054
   52MOL   C52235304   5.680   2.093   4.779  0.0446  0.1882  0.0345
   52MOL   C52335305   5.544   2.161   4.752  1.1065  0.0823 -0.8565
   52MOL   O52435306   5.474   2.109   4.661  0.2605 -0.3920 -0.2553
   52MOL   H52535307   5.840   2.548   3.796 -1.9590  1.3956 -0.5918
   52MOL   H52635308   5.612   2.438   3.746  0.3428 -0.2042 -0.2086
   52MOL   H52735309   5.702   2.295   3.801  0.7881 -0.1158 -0.0416
   52MOL   H52835310   5.556   2.418   3.980 -0.6847 -0.3888  0.7563
   52MOL   H52935311   5.678   2.547   3.976 -1.2023 -0.0625  0.7665
   52MOL   H53035312   5.758   2.265   4.052  2.8242  0.3914 -0.3081
   52MOL   H53135313   5.853   2.411   4.055  0.4335  0.0173 -0.3519
   52MOL   H53235314   5.644   2.349   4.247  2.0203 -1.3761  2.2124
   52MOL   H53335315   5.721   2.508   4.219  1.0803  0.4591 -3.8179
   52MOL   H53435316   5.944   2.420   4.268  0.9431 -0.4676  0.2666
   52MOL   H53535317   5.882   2.257   4.277  1.9488 -0.0026  4.3638
   52MOL   H53635318   5.923   2.398   4.508 -0.4928  0.1087  0.3911
   52MOL   H53735319   5.762   2.470   4.453 -1.1038 -0.6512  0.3463
   52MOL   H53835320   5.682   2.248   4.437 -1.7773 -0.8223  1.8914
   52MOL   H53935321   5.682   2.324   4.589  1.5191 -0.2527  1.8486
   52MOL   H54035322   5.873   2.108   4.483  1.3415  1.0655  0.8122
   52MOL   H54135323   5.904   2.206   4.631  0.0700 -0.0889 -0.7145
   52MOL   H54235324   5.817   1.974   4.671  0.6487 -0.0927 -0.0539
   52MOL   H54335325   5.675   2.015   4.576  0.2963  2.0448 -1.6515
   52MOL   H54435326   5.748   2.160   4.833  1.5115 -0.5923 -0.8055
   52MOL   H54535327   5.660   2.005   4.840  0.2648 -0.5764 -0.9865
   52MOL   N54635328   5.496   2.262   4.828 -0.0692 -0.2650 -0.0165
   52MOL   C54735329   5.361   2.315   4.808  0.3595  0.0527  0.4632
   52MOL   C54835330   5.318   2.414   4.915  0.2555 -0.0151  0.1322
   52MOL   C54935331   5.163   2.451   4.921  0.0779  0.4124 -0.3301
   52MOL   C55035332   5.133   2.570   4.828 -0.0124 -0.4826 -0.4123
   52MOL   C55135333   4.980   2.602   4.830 -0.0519  0.0513  0.2170
   52MOL   C55235334   4.940   2.725   4.745  0.4053 -0.2679 -0.4586
   52MOL   C55335335   5.000   2.859   4.790 -0.2526  0.3796  0.1048
   52MOL   C55435336   4.924   2.982   4.737 -0.6721 -0.3394  0.1264
   52MOL   C55535337   4.993   3.119   4.749 -0.1983  0.9905 -0.7134
   52MOL   C55635338   5.107   3.148   4.650  0.2050  0.7644 -0.3630
   52MOL   C55735339   5.059   3.198   4.514 -0.1512  0.0476 -0.1467
   52MOL   O55835340   4.948   3.248   4.501  0.3419 -0.7034 -1.2092
   52MOL   H55935341   5.554   2.303   4.899  0.6072  0.9610 -1.2533
   52MOL   H56035342   5.347   2.370   4.715 -1.0536  0.5648  0.9800
   52MOL   H56135343   5.287   2.234   4.807 -0.7098  1.0110  1.6553
   52MOL   H56235344   5.373   2.508   4.904 -0.9982  0.8178  0.7738
   52MOL   H56335345   5.344   2.368   5.010 -0.0358  0.5590  0.4948
   52MOL   H56435346   5.104   2.366   4.886 -0.3892  0.8436 -0.5954
   52MOL   H56535347   5.126   2.477   5.021 -1.7635 -1.5993 -0.4567
   52MOL   H56635348   5.166   2.545   4.727 -1.3658 -0.7527 -0.8002
   52MOL   H56735349   5.185   2.657   4.867  2.5277 -1.4539 -1.5279
   52MOL   H56835350   4.943   2.604   4.933 -1.0638 -1.4734 -0.0976
   52MOL   H56935351   4.933   2.512   4.790 -1.3918  0.8883 -0.1048
   52MOL   H57035352   4.963   2.714   4.639 -1.0331  1.4270 -0.9780
   52MOL   H57135353   4.833   2.742   4.755  0.6930  1.0832  0.4995
   52MOL   H57235354   5.106   2.861   4.764 -0.7267 -0.2698 -2.0095
   52MOL   H57335355   4.997   2.858   4.899 -0.8715  0.2129  0.0901
   52MOL   H57435356   4.892   2.976   4.633 -0.8326  1.5858  0.0477
   52MOL   H57535357   4.828   2.989   4.788 -0.3027  1.0075  0.6575
   52MOL   H57635358   5.030   3.122   4.851 -0.6135 -0.9862 -0.4817
   52MOL   H57735359   4.924   3.202   4.733 -1.7879 -0.1413  0.2249
   52MOL   H57835360   5.170   3.059   4.643  0.5879  1.2536 -4.0926
   52MOL   H57935361   5.173   3.225   4.690  0.1104  0.7864 -0.2480
   52MOL   N58035362   5.143   3.170   4.414  0.2500  0.3911 -0.7727
   52MOL   C58135363   5.115   3.202   4.276 -0.0483  0.1034  0.8433
   52MOL   C58235364   5.156   3.355   4.242  0.5661 -0.0508 -0.2664
   52MOL   C58335365   5.132   3.385   4.096 -0.1720  0.1352 -0.0966
   52MOL   C58435366   5.117   3.543   4.079  0.0509  0.2497  0.0078
   52MOL   C58535367   5.157   3.584   3.935 -0.0564 -0.4363 -0.1355
   52MOL   C58635368   5.301   3.641   3.911  0.0682 -0.1366  0.1644
   52MOL   C58735369   5.408   3.536   3.942  0.8158 -0.5441 -0.0940
   52MOL   C58835370   5.452   3.430   3.835  0.2095  0.1385 -0.4125
   52MOL   C58935371   5.586   3.370   3.865  0.5283 -0.2468  0.1247
   52MOL   C59035372   5.627   3.253   3.778 -0.2879 -0.7331 -0.6613
   52MOL   C59135373   5.639   3.290   3.629 -0.5101 -0.1576  0.2339
   52MOL   O59235374   5.665   3.407   3.596 -0.2517  0.7153  0.5418
   52MOL   H59335375   5.210   3.099   4.440 -1.0550 -0.5567  0.1022
   52MOL   H59435376   5.171   3.139   4.208 -1.1392 -1.5528  1.4450
   52MOL   H59535377   5.010   3.186   4.249 -1.3092  0.3981  5.1833
   52MOL   H59635378   5.256   3.368   4.284  0.3533  1.8502 -0.3108
   52MOL   H59735379   5.087   3.413   4.304  3.5342  2.1630  1.1126
   52MOL   H59835380   5.215   3.346   4.037 -0.9198 -0.6736 -0.6182
   52MOL   H59935381   5.036   3.345   4.065  0.0465  0.3719 -1.0996
   52MOL   H60035382   5.179   3.593   4.153 -0.2090 -0.2587  0.5733
   52MOL   H60135383   5.014   3.563   4.105 -0.3691 -2.1238  0.3036
   52MOL   H60235384   5.089   3.667   3.916 -0.7785 -0.8783  0.4985
   52MOL   H60335385   5.129   3.504   3.866  4.0369 -0.6879 -1.6720
   52MOL   H60435386   5.316   3.687   3.813  0.2386  0.7575  0.6033
   52MOL   H60535387   5.302   3.727   3.978 -0.3747  1.5378 -1.9067
   52MOL   H60635388   5.401   3.496   4.043 -1.3386 -0.7647 -0.3104
   52MOL   H60735389   5.497   3.600   3.950  1.7990 -1.2236 -4.2173
   52MOL   H60835390   5.388   3.342   3.831 -1.3897  1.3023 -0.9109
   52MOL   H60935391   5.444   3.469   3.734 -1.6096 -0.4632 -0.5282
   52MOL   H61035392   5.597   3.343   3.970 -1.4022 -0.9277  0.1715
   52MOL   H61135393   5.662   3.444   3.842  1.2651 -0.5700  1.4232
   52MOL   H61235394   5.550   3.176   3.782 -1.8085  0.7100 -1.4902
   52MOL   H61335395   5.719   3.214   3.820 -0.8868  1.9356  3.3849
   52MOL   N61435396   5.633   3.193   3.540 -0.3473  0.6520 -0.0240
   52MOL   C61535397   5.662   3.199   3.397 -0.2835  0.2754 -0.4724
   52MOL   C61635398   5.665   3.055   3.336 -0.3186  0.2468  0.1722
   52MOL   C61735399   5.714   3.062   3.188 -0.3940 -0.6990 -0.1161
   52MOL   C61835400   5.763   2.930   3.124 -0.2909 -0.3356  0.4485
   52MOL   C61935401   5.821   2.944   2.983 -0.2635 -0.0385  0.6929
   52MOL   C62035402   5.819   2.809   2.909 -0.3405 -0.4851 -0.1478
   52MOL   C62135403   5.673   2.781   2.869 -0.2861  0.0396  0.5029
   52MOL   C62235404   5.669   2.660   2.774  0.5143  0.2450 -0.2620
   52MOL   C62335405   5.524   2.641   2.730  0.6552  0.4835 -0.1260
   52MOL   C62435406   5.507   2.517   2.640 -0.1876  0.7040  0.3444
   52MOL   C62535407   5.367   2.479   2.607 -0.4719  0.2196  0.4414
   52MOL   O62635408   5.266   2.525   2.666 -0.4905  0.6152  0.0278
   52MOL   H62735409   5.618   3.101   3.581  2.2449 -0.7140 -1.9608
   52MOL   H62835410   5.754   3.252   3.371  1.2747 -1.5416  1.1742
   52MOL   H62935411   5.574   3.242   3.349 -1.0931 -0.1351  0.6227
   52MOL   H63035412   5.564   3.016   3.324  0.0162 -0.8359  0.8405
   52MOL   H63135413   5.721   2.985   3.398  1.1176  1.5070  0.3226
   52MOL   H63235414   5.640   3.109   3.122 -2.9740  0.4246  3.4119
   52MOL   H63335415   5.797   3.132   3.180  0.2399 -1.3348  0.8981
   52MOL   H63435416   5.688   2.851   3.134 -0.0590 -0.5005  0.9289
   52MOL   H63535417   5.848   2.897   3.183 -0.6659  1.3424  1.9780
   52MOL   H63635418   5.921   2.986   2.985 -0.9123  1.5276  1.0305
   52MOL   H63735419   5.764   3.015   2.922 -0.7002 -1.5414 -0.7001
   52MOL   H63835420   5.886   2.812   2.823  0.6865 -0.7285  0.6423
   52MOL   H63935421   5.851   2.727   2.974  0.7791 -0.1185 -0.2389
   52MOL   H64035422   5.635   2.869   2.816  1.2488  0.6917  0.4617
   52MOL   H64135423   5.602   2.759   2.950 -0.2752  0.7128  0.7032
   52MOL   H64235424   5.736   2.667   2.688  1.7860 -0.4466  0.6487
   52MOL   H64335425   5.702   2.576   2.835  3.1763  0.7976 -0.8857
   52MOL   H64435426   5.499   2.728   2.670  0.1141  0.8023  0.5564
   52MOL   H64535427   5.461   2.636   2.819  0.4195 -1.2349 -0.3691
   52MOL   H64635428   5.552   2.424   2.673 -0.0511 -0.1165 -2.0855
   52MOL   H64735429   5.553   2.538   2.544  0.9333 -1.1685  0.4563
   52MOL   N64835430   5.351   2.395   2.506 -0.1648  0.4161  0.3295
   52MOL   C64935431   5.221   2.343   2.457 -0.6079 -0.5391  0.4349
   52MOL   C65035432   5.201   2.385   2.307 -0.0128 -0.5485  0.1913
   52MOL   C65135433   5.207   2.531   2.270  0.2595 -0.0954 -0.2382
   52MOL   C65235434   5.101   2.619   2.340 -0.5408  0.0530  0.0501
   52MOL   C65335435   5.094   2.765   2.295  0.2477 -0.0055  0.1801
   52MOL   C65435436   5.002   2.849   2.388 -0.5505 -0.6346  0.6927
   52MOL   C65535437   4.967   2.987   2.334 -0.7624 -0.9099  0.6556
   52MOL   C65635438   4.853   3.055   2.413  0.0147  0.2687 -0.5010
   52MOL   C65735439   4.778   3.164   2.334  0.4541  0.9586 -0.4580
   52MOL   C65835440   4.658   3.223   2.403 -0.0888  0.0595  0.9846
   52MOL   C65935441   4.607   3.341   2.311 -0.3092  0.1013 -0.1217
   52MOL   O66035442   4.594   3.453   2.357  0.1151 -0.1099  0.0334
   52MOL   H66135443   5.437   2.374   2.457 -0.3935 -0.4771  0.3046
   52MOL   H66235444   5.136   2.382   2.512 -0.1758  1.0465 -0.0102
   52MOL   H66335445   5.219   2.234   2.466  0.6023 -0.6597 -0.5666
   52MOL   H66435446   5.107   2.344   2.270  0.6525 -1.5600 -0.3759
   52MOL   H66535447   5.276   2.342   2.241 -0.5796 -1.4457  0.1189
   52MOL   H66635448   5.301   2.581   2.294  0.5459 -0.2501 -1.0177
   52MOL   H66735449   5.193   2.537   2.162 -0.9678  2.1836  0.0251
   52MOL   H66835450   5.116   2.620   2.448 -2.3017 -1.4724  0.3299
   52MOL   H66935451   5.006   2.568   2.322 -1.1889  1.2713 -0.0153
   52MOL   H67035452   5.059   2.779   2.193  2.0416 -0.2331 -0.4885
   52MOL   H67135453   5.185   2.824   2.305  1.4289 -1.6222 -0.8212
   52MOL   H67235454   4.906   2.801   2.406 -1.6763  0.6081 -1.7046
   52MOL   H67335455   5.032   2.846   2.492  1.6657  4.6497  0.3570
   52MOL   H67435456   4.938   2.965   2.231 -0.2163  2.7787 -0.3627
   52MOL   H67535457   5.055   3.048   2.312 -0.7259 -1.1813  0.0496
   52MOL   H67635458   4.776   2.979   2.426  0.8489 -0.5382 -0.2434
   52MOL   H67735459   4.890   3.105   2.503  0.4162  1.7498 -1.4704
   52MOL   H67835460   4.746   3.116   2.241 -1.7310  0.3665  0.5613
   52MOL   H67935461   4.843   3.243   2.296  1.5927  1.3711  2.2398
   52MOL   H68035462   4.693   3.264   2.498  0.8596  0.1266  0.6141
   52MOL   H68135463   4.568   3.164   2.414 -0.5004  0.5109  0.0846
   52MOL   H68235464   4.605   3.321   2.204 -0.6441  0.7344 -0.2320
   53MOL     N135465   1.909   3.667   5.327  0.4816  0.1618  0.9499
   53MOL     C235466   1.815   3.778   5.293 -0.5971  0.3616 -0.0582
   53MOL     C335467   1.874   3.869   5.189 -0.3440 -0.2317  0.2873
   53MOL     C435468   1.774   3.983   5.151 -0.7110  0.6558 -0.7428
   53MOL     C535469   1.822   4.079   5.035  0.4195 -0.1852 -0.4855
   53MOL     C635470   1.745   4.213   5.044 -0.7102  0.3032 -0.9023
   53MOL     C735471   1.793   4.305   4.932 -0.1990 -0.2173 -0.1002
   53MOL     C835472   1.688   4.425   4.913 -0.3522  0.1040  0.4354
   53MOL     C935473   1.727   4.517   4.800  0.4832  0.8390 -0.3876
   53MOL    C1035474   1.649   4.645   4.784 -0.0944 -0.0399 -0.0782
   53MOL    C1135475   1.611   4.682   4.641  0.0134 -0.0657  0.0155
   53MOL    C1235476   1.732   4.722   4.561  0.8430 -0.5386 -0.8336
   53MOL    O1335477   1.773   4.838   4.559 -0.1794 -0.1676  0.0375
   53MOL    H1435478   1.863   3.609   5.396  0.8415 -1.6535 -0.3275
   53MOL    H1535479   1.812   3.830   5.389  2.3428 -0.8969  0.7788
   53MOL    H1635480   1.717   3.741   5.265 -0.4436  0.8233 -1.2071
   53MOL    H1735481   1.892   3.811   5.098  0.3299  0.5089 -0.0533
   53MOL    H1835482   1.965   3.923   5.214 -0.8018 -0.0568  1.6041
   53MOL    H1935483   1.669   3.957   5.138 -0.8589 -0.4661  2.2059
   53MOL    H2035484   1.764   4.030   5.249  1.5352 -0.4494  0.0458
   53MOL    H2135485   1.800   4.036   4.938  2.5689 -1.4430 -0.4428
   53MOL    H2235486   1.929   4.102   5.034  0.4342 -0.0644  1.1661
   53MOL    H2335487   1.763   4.259   5.141  1.2344 -0.9538 -0.6380
   53MOL    H2435488   1.640   4.184   5.038 -0.6745  0.1247 -0.6431
   53MOL    H2535489   1.894   4.340   4.953  0.2045 -2.0485  1.2226
   53MOL    H2635490   1.803   4.258   4.834  1.8437 -0.1078  0.0434
   53MOL    H2735491   1.687   4.489   5.002 -1.1495 -1.3763  1.5041
   53MOL    H2835492   1.588   4.386   4.900 -0.2997  0.3357 -0.6574
   53MOL    H2935493   1.834   4.533   4.807  0.4364  0.3426  1.6566
   53MOL    H3035494   1.726   4.465   4.704 -0.3296 -0.9523  0.5709
   53MOL    H3135495   1.710   4.724   4.828 -0.2743  0.3896 -0.5918
   53MOL    H3235496   1.564   4.639   4.852  1.6636  2.6192  2.4832
   53MOL    H3335497   1.540   4.765   4.643 -2.6116 -2.2431 -0.1890
   53MOL    H3435498   1.557   4.603   4.589 -3.7377  2.2206  0.2814
   53MOL    H3535499   1.924   3.605   5.249 -2.9670 -0.1328  0.4015
   53MOL    N3635500   1.790   4.629   4.486  0.2515  0.9869  0.3170
   53MOL    C3735501   1.903   4.638   4.389  0.0363 -0.7635 -0.6213
   53MOL    C3835502   1.864   4.549   4.270 -0.0081 -0.4511 -0.0166
   53MOL    C3935503   1.976   4.535   4.169 -0.8432  0.3148  0.2294
   53MOL    C4035504   1.939   4.470   4.036  0.1640  0.3542 -0.2452
   53MOL    C4135505   2.044   4.494   3.922  0.2804  0.3772  0.0428
   53MOL    C4235506   1.993   4.439   3.791 -1.0906 -0.1990  0.6618
   53MOL    C4335507   2.103   4.402   3.688  0.2963 -0.1598 -0.2807
   53MOL    C4435508   2.189   4.275   3.699  0.1710  0.3104  0.0921
   53MOL    C4535509   2.301   4.276   3.600  0.3267  0.1909  0.0850
   53MOL    C4635510   2.386   4.146   3.607  0.1577  0.0044  0.4213
   53MOL    C4735511   2.515   4.158   3.529  0.6642 -0.3153  0.1201
   53MOL    O4835512   2.608   4.189   3.601  0.0387 -0.3348 -0.3748
   53MOL    H4935513   1.744   4.539   4.480 -1.7318  1.9361  0.7494
   53MOL    H5035514   1.903   4.738   4.345 -0.0655 -1.0993 -1.4006
   53MOL    H5135515   2.004   4.614   4.423 -0.7466 -1.9234  0.9481
   53MOL    H5235516   1.775   4.594   4.225  0.9655  0.2961 -1.2412
   53MOL    H5335517   1.835   4.451   4.307 -1.2642 -0.2077 -0.3396
   53MOL    H5435518   2.012   4.634   4.145 -0.3768  0.0844 -0.0167
   53MOL    H5535519   2.063   4.484   4.211  0.3253  2.1221  0.0220
   53MOL    H5635520   1.843   4.505   3.998 -0.0848  2.3483  2.0621
   53MOL    H5735521   1.917   4.365   4.055  1.5489  0.3611  1.5762
   53MOL    H5835522   2.130   4.431   3.945 -0.1427 -0.6504 -1.0898
   53MOL    H5935523   2.078   4.598   3.918  2.2588 -0.3045 -1.8173
   53MOL    H6035524   1.950   4.341   3.811 -0.0787 -0.9075 -0.5271
   53MOL    H6135525   1.916   4.510   3.761 -0.6252  0.8736  1.9671
   53MOL    H6235526   2.168   4.489   3.685 -0.5453  0.6278  2.3594
   53MOL    H6335527   2.051   4.399   3.592 -0.1795 -1.3453  0.0019
   53MOL    H6435528   2.239   4.256   3.794 -3.6826 -0.6923  2.0185
   53MOL    H6535529   2.131   4.184   3.681  1.7709 -0.9223  1.0054
   53MOL    H6635530   2.367   4.361   3.613  1.4023 -0.9252  2.0982
   53MOL    H6735531   2.255   4.283   3.501 -3.5116  2.3613  1.9326
   53MOL    H6835532   2.324   4.063   3.575  3.0566 -2.0352 -0.0915
   53MOL    H6935533   2.408   4.119   3.710  0.1700  1.1300  0.7268
   53MOL    N7035534   2.529   4.129   3.396  0.0140 -0.6404  0.1932
   53MOL    C7135535   2.647   4.155   3.307 -0.2200  0.2808  0.2090
   53MOL    C7235536   2.663   4.299   3.256 -0.1246  0.1765 -0.1793
   53MOL    C7335537   2.791   4.313   3.168  0.4280  0.0636 -0.3841
   53MOL    C7435538   2.802   4.427   3.073  0.2900 -0.4215  0.5823
   53MOL    C7535539   2.945   4.457   3.027 -0.7474 -0.0219 -0.2399
   53MOL    C7635540   2.955   4.560   2.907  0.1395  0.2845 -0.6041
   53MOL    C7735541   3.107   4.603   2.878  0.5294  0.0703 -0.2011
   53MOL    C7835542   3.098   4.691   2.754 -0.1900 -0.0423 -0.3691
   53MOL    C7935543   3.230   4.739   2.693 -0.0339 -0.6351  0.8492
   53MOL    C8035544   3.228   4.776   2.546 -0.0030 -0.3749  0.1548
   53MOL    C8135545   3.155   4.898   2.499  0.1294 -0.4800  0.2682
   53MOL    O8235546   3.216   5.003   2.510 -0.4899 -0.3034  0.1513
   53MOL    H8335547   2.446   4.095   3.350 -0.3305  2.5315 -1.7013
   53MOL    H8435548   2.739   4.136   3.363 -1.0083 -1.8301  0.8542
   53MOL    H8535549   2.646   4.083   3.225  1.5095  2.3364 -1.6770
   53MOL    H8635550   2.666   4.367   3.342  0.7491  0.0356 -0.0959
   53MOL    H8735551   2.581   4.324   3.189  0.0870  0.9062 -0.1729
   53MOL    H8835552   2.876   4.303   3.235  0.1127 -0.4784 -0.0675
   53MOL    H8935553   2.793   4.224   3.106  0.3427 -0.2844  0.1132
   53MOL    H9035554   2.747   4.514   3.110  0.5128  0.3663 -0.8971
   53MOL    H9135555   2.731   4.409   2.992 -0.8686  1.0002  1.2551
   53MOL    H9235556   3.001   4.370   2.991 -0.5449  0.5810 -1.4060
   53MOL    H9335557   2.997   4.493   3.116 -0.8914 -1.3224  0.3769
   53MOL    H9435558   2.915   4.508   2.820 -3.5829  2.5446 -0.3543
   53MOL    H9535559   2.885   4.644   2.912 -0.4038 -0.2189  0.3637
   53MOL    H9635560   3.165   4.513   2.861 -0.7296 -0.8006  0.1156
   53MOL    H9735561   3.150   4.641   2.972  3.5600 -0.6499 -1.2272
   53MOL    H9835562   3.039   4.644   2.675 -0.7197 -1.2234  0.7064
   53MOL    H9935563   3.035   4.777   2.778  0.9268  0.7633 -0.2829
   53MOL   H10035564   3.296   4.653   2.702  2.0564  0.6954 -1.0376
   53MOL   H10135565   3.269   4.821   2.753 -2.4419  1.5406 -0.4351
   53MOL   H10235566   3.185   4.690   2.494 -1.3765 -0.0466  0.7324
   53MOL   H10335567   3.331   4.791   2.517 -0.5383 -2.0399 -2.8347
   53MOL   N10435568   3.038   4.882   2.441 -0.2827 -0.6035 -0.1815
   53MOL   C10535569   2.963   4.988   2.387 -0.4689 -0.4165  0.1660
   53MOL   C10635570   2.999   5.021   2.245 -0.5109  0.4401 -0.0021
   53MOL   C10735571   2.900   5.118   2.180  0.3856  0.0928 -0.4088
   53MOL   C10835572   2.912   5.143   2.024  0.6381 -0.6629  0.1749
   53MOL   C10935573   2.803   5.243   1.988 -0.0035  0.3208 -0.6280
   53MOL   C11035574   2.780   5.259   1.836  0.8287 -0.2366 -0.6303
   53MOL   C11135575   2.897   5.349   1.776  0.4385  0.4539  0.2477
   53MOL   C11235576   2.886   5.373   1.628 -0.3660  0.2207  0.0343
   53MOL   C11335577   3.005   5.444   1.562  0.0441  0.0994 -0.1278
   53MOL   C11435578   3.012   5.405   1.412  0.3954  0.2305 -0.1252
   53MOL   C11535579   3.080   5.272   1.383  0.0124  0.0881 -0.6287
   53MOL   O11635580   3.078   5.232   1.265 -0.5298 -0.8458 -0.4639
   53MOL   H11735581   2.991   4.793   2.454 -0.4993 -0.5591 -0.6647
   53MOL   H11835582   2.855   4.977   2.397 -1.1304  1.4713 -3.7783
   53MOL   H11935583   2.977   5.082   2.442  1.4495 -2.1174  2.6941
   53MOL   H12035584   3.009   4.924   2.196 -2.0191  0.0780  0.3761
   53MOL   H12135585   3.097   5.068   2.244 -0.3639  0.1423 -1.4632
   53MOL   H12235586   2.794   5.097   2.190 -0.4366  3.1531 -2.0812
   53MOL   H12335587   2.923   5.217   2.219 -2.5030  0.0349  1.5559
   53MOL   H12435588   2.916   5.053   1.961  2.9256 -0.2451 -0.3061
   53MOL   H12535589   3.003   5.203   2.018  0.0444  0.1449 -0.9335
   53MOL   H12635590   2.823   5.343   2.029 -2.8737  0.9800 -0.7179
   53MOL   H12735591   2.707   5.214   2.031  0.2598  0.7852  0.2840
   53MOL   H12835592   2.796   5.166   1.781 -0.0376  0.6801 -2.4767
   53MOL   H12935593   2.682   5.300   1.815  0.2269 -1.9164 -1.1564
   53MOL   H13035594   2.993   5.299   1.790 -0.8124 -2.0881  0.0499
   53MOL   H13135595   2.895   5.440   1.835 -0.7873  0.5221  0.1141
   53MOL   H13235596   2.872   5.280   1.574 -0.4341  0.3266 -0.1320
   53MOL   H13335597   2.794   5.431   1.618 -0.5929  0.1104  1.3236
   53MOL   H13435598   3.096   5.418   1.616 -0.7098 -0.7840  0.7361
   53MOL   H13535599   2.998   5.552   1.575 -2.2643  0.1808 -1.6779
   53MOL   H13635600   3.070   5.472   1.348  3.0537 -1.3644  0.5331
   53MOL   H13735601   2.916   5.396   1.361 -0.3762  0.1669  1.3309
   53MOL   N13835602   3.129   5.203   1.484  0.0770 -0.3839 -0.2438
   53MOL   C13935603   3.212   5.074   1.478  0.2409  0.5192  0.0079
   53MOL   C14035604   3.255   5.044   1.621 -0.1344  0.6597 -0.6279
   53MOL   C14135605   3.141   5.016   1.720 -0.1988  0.5064  0.3686
   53MOL   C14235606   3.188   4.934   1.838 -0.6478  0.2937 -0.5702
   53MOL   C14335607   3.266   5.019   1.934  0.5174 -0.2533  0.4462
   53MOL   C14435608   3.333   4.929   2.051  0.1342  0.4267 -0.3830
   53MOL   C14535609   3.425   5.016   2.137 -0.5857  0.2965  0.1610
   53MOL   C14635610   3.471   4.955   2.266 -0.6050  0.2888  0.7409
   53MOL   C14735611   3.562   5.042   2.357 -0.0699  0.4044  0.9488
   53MOL   C14835612   3.500   5.144   2.452 -0.0435 -0.3961  0.2367
   53MOL   C14935613   3.414   5.248   2.374 -0.3029  0.5821 -0.4070
   53MOL   O15035614   3.467   5.309   2.280 -0.0158 -0.4638  0.4350
   53MOL   H15135615   3.090   5.238   1.570 -0.1596  2.1826 -1.3454
   53MOL   H15235616   3.158   4.990   1.433  0.2500  1.1054 -1.1126
   53MOL   H15335617   3.292   5.099   1.408  1.4058 -0.3666  0.9988
   53MOL   H15435618   3.321   5.125   1.654 -0.3383  0.9067 -0.8290
   53MOL   H15535619   3.327   4.963   1.613 -1.5430 -0.6464 -0.1886
   53MOL   H15635620   3.070   5.093   1.751 -1.3877  0.1636 -1.4458
   53MOL   H15735621   3.059   4.965   1.670  1.2312  0.1559 -1.7016
   53MOL   H15835622   3.244   4.852   1.795  0.9687  1.1079 -0.0368
   53MOL   H15935623   3.110   4.895   1.905 -0.0908  0.4218  0.1619
   53MOL   H16035624   3.199   5.095   1.974  1.6331  0.7767  0.4104
   53MOL   H16135625   3.351   5.067   1.885 -0.3207 -1.0134 -1.7736
   53MOL   H16235626   3.257   4.898   2.122 -0.1057  1.2935 -0.2602
   53MOL   H16335627   3.396   4.851   2.008 -1.2801 -0.2950 -1.1934
   53MOL   H16435628   3.377   5.112   2.160 -0.9735 -0.2387  1.6209
   53MOL   H16535629   3.512   5.047   2.079  0.5526 -2.0297  0.5833
   53MOL   H16635630   3.384   4.933   2.328  0.0426 -1.8149  0.9299
   53MOL   H16735631   3.514   4.857   2.245 -1.0685  0.1191  0.5758
   53MOL   H16835632   3.622   5.098   2.285 -1.0988  0.0709 -0.1773
   53MOL   H16935633   3.636   4.976   2.402  0.0725 -0.6094 -0.6996
   53MOL   H17035634   3.579   5.188   2.514 -1.9608  1.9212  1.1431
   53MOL   H17135635   3.448   5.077   2.520  0.2877 -0.5139  0.3746
   53MOL   N17235636   3.293   5.261   2.418 -0.5353 -0.2512  0.7422
   53MOL   C17335637   3.178   5.320   2.350 -0.4118  1.0591  0.1170
   53MOL   C17435638   3.179   5.473   2.373  0.9328  0.2760  0.8292
   53MOL   C17535639   3.194   5.519   2.524 -0.4926  0.3524 -0.8679
   53MOL   C17635640   3.168   5.669   2.539 -0.1455  0.2439  0.3903
   53MOL   C17735641   3.221   5.718   2.672 -0.4138 -0.3023  0.2664
   53MOL   C17835642   3.172   5.641   2.796  0.0629  0.4411  0.1705
   53MOL   C17935643   3.238   5.678   2.930  0.6139 -0.4375  0.6490
   53MOL   C18035644   3.331   5.570   2.986 -0.3803  0.2232  0.1457
   53MOL   C18135645   3.452   5.542   2.903  0.2218  0.3579  0.6784
   53MOL   C18235646   3.528   5.408   2.940  0.5201 -0.0739  0.0476
   53MOL   C18335647   3.468   5.291   2.869 -0.3836 -0.2091  0.2534
   53MOL   O18435648   3.524   5.236   2.771 -0.0815 -0.0084 -0.1236
   53MOL   H18535649   3.268   5.203   2.497 -2.1223  0.0078  0.4371
   53MOL   H18635650   3.176   5.305   2.242  0.7947 -1.0267  0.3774
   53MOL   H18735651   3.085   5.286   2.397 -0.6277  1.1438 -0.2493
   53MOL   H18835652   3.092   5.520   2.327  1.8913  0.0001 -1.3162
   53MOL   H18935653   3.266   5.515   2.322  0.1830 -1.1887 -1.7894
   53MOL   H19035654   3.114   5.462   2.571 -0.1096 -0.7123 -1.4988
   53MOL   H19135655   3.287   5.493   2.575 -1.4804 -1.0737  0.2572
   53MOL   H19235656   3.062   5.694   2.527 -0.3065 -0.0511  1.1741
   53MOL   H19335657   3.203   5.732   2.457 -0.0823  1.7593  1.5706
   53MOL   H19435658   3.189   5.821   2.688  0.9707  0.0326  0.9889
   53MOL   H19535659   3.330   5.715   2.670 -0.3633  1.2281 -0.3977
   53MOL   H19635660   3.065   5.649   2.814  0.0655  1.2601 -0.1585
   53MOL   H19735661   3.179   5.533   2.784 -0.4462  0.4100  0.1628
   53MOL   H19835662   3.163   5.683   3.010 -1.9395 -0.7433 -1.6357
   53MOL   H19935663   3.280   5.778   2.932 -0.8214  0.1929  0.0348
   53MOL   H20035664   3.371   5.605   3.081  0.8316 -2.5903  0.7478
   53MOL   H20135665   3.273   5.484   3.019 -1.5685  0.6292 -0.8547
   53MOL   H20235666   3.516   5.629   2.904  3.3969 -1.8905  0.8402
   53MOL   H20335667   3.415   5.534   2.801 -1.2756  1.9467  1.0639
   53MOL   H20435668   3.504   5.393   3.045  1.7224  1.3214  0.5335
   53MOL   H20535669   3.634   5.405   2.917  0.7276  1.4860  0.7638
   53MOL   N20635670   3.354   5.240   2.920  0.2159 -0.3701 -0.2991
   53MOL   C20735671   3.295   5.112   2.873 -0.4733 -0.5073  0.6406
   53MOL   C20835672   3.161   5.140   2.797 -0.1754  0.4443 -0.2906
   53MOL   C20935673   3.057   5.230   2.866 -0.1660  0.2673  0.1381
   53MOL   C21035674   2.935   5.272   2.784  0.0091 -0.4116 -0.4121
   53MOL   C21135675   2.852   5.144   2.753 -0.0167  0.1063 -0.1789
   53MOL   C21235676   2.839   5.037   2.865 -0.1556  0.3110  0.5002
   53MOL   C21335677   2.735   4.931   2.840  0.4112 -0.1650  0.5187
   53MOL   C21435678   2.741   4.882   2.690  0.8858  0.3148  0.4159
   53MOL   C21535679   2.657   4.753   2.664 -0.5152  0.4068  0.8803
   53MOL   C21635680   2.631   4.718   2.518 -0.1521 -0.1145  0.1947
   53MOL   C21735681   2.752   4.664   2.440  0.2138  0.3048 -0.0077
   53MOL   O21835682   2.856   4.667   2.491 -0.5481 -0.6331 -0.2901
   53MOL   H21935683   3.323   5.272   3.011  1.2469 -1.8878  0.6287
   53MOL   H22035684   3.275   5.045   2.957 -0.6246 -1.0374  0.1879
   53MOL   H22135685   3.353   5.053   2.802 -1.5180 -0.0342 -0.6174
   53MOL   H22235686   3.110   5.047   2.775 -0.3428  0.1742  1.1886
   53MOL   H22335687   3.191   5.191   2.705 -1.2880  0.9658 -0.3694
   53MOL   H22435688   3.022   5.193   2.962 -0.9383 -0.5636 -0.4552
   53MOL   H22535689   3.108   5.319   2.905  0.4774 -1.4732  3.4566
   53MOL   H22635690   2.963   5.331   2.697 -2.4025 -0.3821 -1.1862
   53MOL   H22735691   2.879   5.344   2.844  1.1752 -0.1620  0.4060
   53MOL   H22835692   2.894   5.095   2.665 -0.3685  3.0345 -2.0285
   53MOL   H22935693   2.762   5.182   2.705 -1.9149 -1.4855  2.0397
   53MOL   H23035694   2.934   4.990   2.887  0.2133  1.8644  2.3587
   53MOL   H23135695   2.814   5.088   2.958  0.0326  0.2885  0.5641
   53MOL   H23235696   2.636   4.968   2.865  0.9332  2.3750 -1.0071
   53MOL   H23335697   2.756   4.853   2.913  1.1038 -0.3165  0.1665
   53MOL   H23435698   2.701   4.961   2.626  3.0291 -0.0067 -1.3908
   53MOL   H23535699   2.840   4.868   2.646  0.9238  0.1159  0.5633
   53MOL   H23635700   2.560   4.771   2.711 -1.0474  1.9057 -0.7397
   53MOL   H23735701   2.705   4.675   2.724 -1.3801 -2.2777 -1.7791
   53MOL   H23835702   2.600   4.812   2.472  3.0233  1.5792  1.3751
   53MOL   H23935703   2.541   4.658   2.505 -1.1775  0.9202  2.4030
   53MOL   N24035704   2.736   4.629   2.317 -0.4767 -0.0849  0.4808
   53MOL   C24135705   2.842   4.588   2.229 -0.4248  0.4764 -0.1430
   53MOL   C24235706   2.844   4.657   2.096  0.2451  0.9573 -0.3603
   53MOL   C24335707   2.953   4.602   2.011 -0.2481  0.2584  0.6941
   53MOL   C24435708   2.925   4.633   1.858 -0.2969  0.7673  0.1299
   53MOL   C24535709   3.038   4.568   1.772 -0.6951 -0.5306 -0.1490
   53MOL   C24635710   3.045   4.420   1.731  0.4860 -0.7079  0.0019
   53MOL   C24735711   3.172   4.390   1.652  0.3713 -0.3714 -0.3563
   53MOL   C24835712   3.224   4.248   1.648  0.4300  0.3645 -0.2166
   53MOL   C24935713   3.123   4.140   1.608 -0.3523  0.7604  0.4302
   53MOL   C25035714   3.179   4.000   1.581  0.7128  0.2774 -0.1743
   53MOL   C25135715   3.235   3.921   1.702  0.3369 -0.2376  0.4048
   53MOL   O25235716   3.348   3.940   1.725 -0.1381 -0.3036  0.5699
   53MOL   H25335717   2.645   4.657   2.282 -0.0265 -0.4491 -1.0173
   53MOL   H25435718   2.830   4.480   2.222 -0.5127  0.3293  2.0317
   53MOL   H25535719   2.939   4.609   2.273 -0.8873  3.2804 -0.3532
   53MOL   H25635720   2.849   4.765   2.111  0.1877  0.6896  1.7454
   53MOL   H25735721   2.750   4.640   2.044  1.5813  1.9527 -3.2322
   53MOL   H25835722   3.048   4.646   2.044 -0.7056  0.5084  1.6705
   53MOL   H25935723   2.960   4.494   2.019 -1.5408  0.1789  0.8434
   53MOL   H26035724   2.926   4.738   1.830 -0.9572  0.1709 -2.2438
   53MOL   H26135725   2.826   4.595   1.832  0.3760  0.8340 -2.6655
   53MOL   H26235726   3.134   4.601   1.811 -0.6974  2.0044 -2.1054
   53MOL   H26335727   3.031   4.634   1.685  2.5323  0.1942  0.0865
   53MOL   H26435728   3.035   4.381   1.833  0.2147  1.8441  0.9942
   53MOL   H26535729   2.950   4.392   1.685 -0.4375  0.5934  1.0850
   53MOL   H26635730   3.252   4.453   1.692 -0.4315  1.0249 -0.9315
   53MOL   H26735731   3.157   4.435   1.554 -1.6417  2.0304  1.0119
   53MOL   H26835732   3.308   4.257   1.579  2.2855  3.2297  2.2921
   53MOL   H26935733   3.268   4.228   1.745  0.5091 -1.6683 -0.6445
   53MOL   H27035734   3.079   4.175   1.515 -0.1833 -0.8469 -0.2686
   53MOL   H27135735   3.053   4.118   1.689  0.2321 -0.2663  0.6679
   53MOL   H27235736   3.258   4.010   1.506  1.6286 -1.2440  0.5435
   53MOL   H27335737   3.098   3.944   1.534  0.7437  0.7957 -0.8638
   53MOL   N27435738   3.151   3.838   1.764 -0.2374  0.2842  0.7739
   53MOL   C27535739   3.193   3.750   1.869 -0.3664 -0.0228 -0.5222
   53MOL   C27635740   3.140   3.803   2.001  0.1202 -0.2043 -0.1535
   53MOL   C27735741   3.200   3.731   2.125 -0.3879 -0.5600  0.0127
   53MOL   C27835742   3.139   3.777   2.265 -0.9006  0.3300  0.2726
   53MOL   C27935743   3.168   3.677   2.378 -0.1839 -0.8129 -0.3254
   53MOL   C28035744   3.317   3.635   2.371  0.1158 -0.2247  0.3354
   53MOL   C28135745   3.347   3.556   2.496 -0.5242 -0.1008  0.1643
   53MOL   C28235746   3.484   3.489   2.504 -0.4006 -0.4115 -0.6937
   53MOL   C28335747   3.488   3.364   2.590 -0.2168 -0.5072 -0.0870
   53MOL   C28435748   3.621   3.298   2.608  0.5077  0.9614 -0.3177
   53MOL   C28535749   3.637   3.187   2.710 -0.1190  0.4922 -0.2985
   53MOL   O28635750   3.612   3.071   2.675  0.0821 -0.1537 -0.2410
   53MOL   H28735751   3.055   3.827   1.737  0.4606 -0.1911 -1.6261
   53MOL   H28835752   3.302   3.748   1.874 -0.3439 -0.2753 -1.0821
   53MOL   H28935753   3.167   3.646   1.852  0.7084 -0.0657 -1.9835
   53MOL   H29035754   3.032   3.809   1.995  0.1847  0.9953 -0.1765
   53MOL   H29135755   3.167   3.908   2.014 -0.2924 -0.3469  2.0199
   53MOL   H29235756   3.179   3.623   2.125  1.0198 -0.8447 -0.2979
   53MOL   H29335757   3.308   3.745   2.117 -0.1050 -1.4310  1.9884
   53MOL   H29435758   3.033   3.800   2.256 -0.9698 -0.0620  0.0652
   53MOL   H29535759   3.194   3.862   2.305  0.2387  0.7448 -2.0578
   53MOL   H29635760   3.100   3.594   2.363  0.9657 -1.6175 -1.1078
   53MOL   H29735761   3.144   3.721   2.475 -2.2643  0.7580 -1.5040
   53MOL   H29835762   3.329   3.568   2.286  0.0717  0.2188 -0.0177
   53MOL   H29935763   3.382   3.722   2.372  1.0013 -0.8815  1.3551
   53MOL   H30035764   3.281   3.469   2.496 -1.4351  0.5895  0.0425
   53MOL   H30135765   3.317   3.601   2.590  0.3104 -1.3120  1.0240
   53MOL   H30235766   3.521   3.467   2.404  3.4746  0.4643  0.4946
   53MOL   H30335767   3.556   3.562   2.538 -1.8574  0.9530 -0.4755
   53MOL   H30435768   3.437   3.296   2.521 -0.8569  1.8015 -1.9714
   53MOL   H30535769   3.424   3.370   2.679 -1.4117 -1.5049 -0.8613
   53MOL   H30635770   3.692   3.374   2.641  1.2983 -0.2293  0.7888
   53MOL   H30735771   3.665   3.260   2.515  0.8251 -1.2620  0.6923
   53MOL   N30835772   3.683   3.224   2.827 -0.1492 -0.3368 -0.3830
   53MOL   C30935773   3.715   3.139   2.937  0.2116  0.0206 -0.8078
   53MOL   C31035774   3.825   3.038   2.926 -0.2502  0.2281  0.3790
   53MOL   C31135775   3.825   2.943   3.051 -0.5973 -0.5585  1.0247
   53MOL   C31235776   3.920   2.821   3.051  0.1623  0.9469 -0.4052
   53MOL   C31335777   4.074   2.854   3.026  0.0756  0.7995  0.1652
   53MOL   C31435778   4.155   2.721   3.052  0.2080  0.9953  0.0040
   53MOL   C31535779   4.304   2.744   3.057 -0.0081 -0.0305 -0.5229
   53MOL   C31635780   4.386   2.619   3.079 -0.0928 -0.1669  0.3557
   53MOL   C31735781   4.539   2.641   3.065 -0.3810  0.1249 -0.6817
   53MOL   C31835782   4.628   2.514   3.064  0.3443 -0.6053  0.1388
   53MOL   C31935783   4.620   2.434   3.192 -0.5981  0.0086  0.2662
   53MOL   O32035784   4.650   2.488   3.304 -0.0601  0.3159  0.2794
   53MOL   H32135785   3.676   3.324   2.839 -2.3348 -0.1075 -3.1618
   53MOL   H32235786   3.626   3.096   2.983  0.7616  2.3812  2.6811
   53MOL   H32335787   3.745   3.211   3.014  1.0725 -2.4005  1.2008
   53MOL   H32435788   3.918   3.095   2.915 -1.1241  1.4514 -0.9427
   53MOL   H32535789   3.820   2.976   2.837  0.2520 -1.5922  1.5985
   53MOL   H32635790   3.845   2.997   3.143  0.0049  1.1191 -0.0756
   53MOL   H32735791   3.722   2.907   3.055 -1.3333  1.4633  0.7558
   53MOL   H32835792   3.890   2.752   2.973  1.1977 -1.3124  1.1563
   53MOL   H32935793   3.917   2.780   3.152  0.7360  0.8231 -0.4369
   53MOL   H33035794   4.096   2.921   3.109 -1.6066  0.3000  1.0325
   53MOL   H33135795   4.094   2.905   2.931  1.0912  0.9342  0.4502
   53MOL   H33235796   4.118   2.670   3.141  0.5649 -0.0571 -0.4376
   53MOL   H33335797   4.129   2.659   2.966 -0.6920 -1.5617  2.0891
   53MOL   H33435798   4.318   2.817   3.137 -0.5914 -1.5536  0.9946
   53MOL   H33535799   4.337   2.793   2.966  2.0385 -0.2223  0.0857
   53MOL   H33635800   4.364   2.581   3.178 -3.5842 -1.0191 -0.6644
   53MOL   H33735801   4.358   2.542   3.008  0.2043  0.3638 -0.3512
   53MOL   H33835802   4.577   2.701   3.148  1.0882 -1.4297 -0.2148
   53MOL   H33935803   4.565   2.699   2.976  0.0024 -0.5199 -0.9893
   53MOL   H34035804   4.731   2.547   3.045  0.5813 -2.4410 -2.0322
   53MOL   H34135805   4.603   2.449   2.980 -1.2102  0.8925 -0.5818
   53MOL   N34235806   4.606   2.304   3.180 -0.0433 -0.2526 -0.0357
   53MOL   C34335807   4.604   2.211   3.291 -0.5889 -0.1097 -0.7083
   53MOL   C34435808   4.746   2.150   3.315  0.1582 -1.0047 -0.6310
   53MOL   C34535809   4.867   2.243   3.340  0.3664 -0.0067  0.6851
   53MOL   C34635810   5.003   2.173   3.395 -0.4815  0.4563  0.0901
   53MOL   C34735811   5.094   2.283   3.438  0.0987  0.2319 -0.0498
   53MOL   C34835812   5.243   2.235   3.463  0.1177 -0.1384  0.3541
   53MOL   C34935813   5.330   2.363   3.507  0.4080 -0.1323 -0.8219
   53MOL   C35035814   5.352   2.394   3.656  0.4641 -0.6840  0.1679
   53MOL   C35135815   5.223   2.408   3.737  0.7869 -0.2877 -0.1222
   53MOL   C35235816   5.256   2.431   3.887 -0.2671  0.4449  0.6250
   53MOL   C35335817   5.279   2.588   3.920  0.4592  0.4392  0.2506
   53MOL   O35435818   5.373   2.625   3.984 -0.1328  0.2563  0.0034
   53MOL   H35535819   4.597   2.264   3.087 -0.7143  1.3074 -0.6548
   53MOL   H35635820   4.558   2.261   3.377  1.9583 -1.9755  1.8496
   53MOL   H35735821   4.532   2.132   3.275  0.5790 -1.3396 -0.0323
   53MOL   H35835822   4.780   2.088   3.232 -0.7607 -0.4976 -1.3830
   53MOL   H35935823   4.742   2.078   3.397 -3.6427 -2.1075 -1.7328
   53MOL   H36035824   4.898   2.297   3.251  0.1187 -0.2974  0.4201
   53MOL   H36135825   4.821   2.318   3.405  0.4398 -0.0866  0.8302
   53MOL   H36235826   5.062   2.114   3.325  0.7544 -1.4003  2.6396
   53MOL   H36335827   4.977   2.116   3.484  0.4925 -2.9543 -1.7380
   53MOL   H36435828   5.046   2.334   3.522  0.9608  0.8385  0.0817
   53MOL   H36535829   5.099   2.364   3.365  1.5761 -0.4394 -0.7263
   53MOL   H36635830   5.246   2.148   3.529  0.3822  0.2316  0.8349
   53MOL   H36735831   5.280   2.199   3.367 -0.4584  0.8555 -0.2541
   53MOL   H36835832   5.290   2.451   3.457 -0.7873 -0.1722  0.0345
   53MOL   H36935833   5.431   2.367   3.466 -0.2656  0.6962 -2.4362
   53MOL   H37035834   5.407   2.310   3.698 -0.6373  0.0430  3.1501
   53MOL   H37135835   5.423   2.477   3.663  2.0484 -2.0245  0.1832
   53MOL   H37235836   5.165   2.316   3.739 -0.9647  0.7673 -1.3813
   53MOL   H37335837   5.167   2.487   3.688  1.4021  0.2857  0.0995
   53MOL   H37435838   5.342   2.366   3.906  0.5412  0.9277 -1.2848
   53MOL   H37535839   5.180   2.404   3.961 -1.9861  0.5956 -1.0587
   53MOL   N37635840   5.177   2.667   3.881  0.5295 -0.2564  0.9098
   53MOL   C37735841   5.173   2.808   3.924  0.3089 -0.0293  0.2851
   53MOL   C37835842   5.045   2.874   3.899 -0.3944 -0.2194  0.2699
   53MOL   C37935843   5.060   3.029   3.934  0.6387 -0.4022  0.1376
   53MOL   C38035844   5.130   3.122   3.827  0.4030 -0.3040 -1.4658
   53MOL   C38135845   5.087   3.104   3.682  0.0276 -0.2680  0.0979
   53MOL   C38235846   5.193   3.159   3.593 -0.1411  0.0567  0.1448
   53MOL   C38335847   5.162   3.142   3.439  0.1677  0.1950  0.5332
   53MOL   C38435848   5.281   3.166   3.347  0.1240 -0.5957  0.0704
   53MOL   C38535849   5.247   3.136   3.194 -0.8070  0.1102  0.4704
   53MOL   C38635850   5.354   3.153   3.088 -0.5647  0.6422 -0.4717
   53MOL   C38735851   5.414   3.293   3.065  0.0227  0.1754  0.2448
   53MOL   O38835852   5.440   3.372   3.154  0.0071  0.1401 -0.1035
   53MOL   H38935853   5.095   2.627   3.836  1.6785  0.0910 -1.5679
   53MOL   H39035854   5.175   2.797   4.032 -1.3160  1.1211  0.4521
   53MOL   H39135855   5.244   2.866   3.866 -1.4218  1.5877 -0.2582
   53MOL   H39235856   4.966   2.828   3.958  0.1543 -0.4545  0.8277
   53MOL   H39335857   5.016   2.857   3.795  2.3425 -0.3084 -0.5157
   53MOL   H39435858   4.959   3.070   3.941  0.6922 -0.0879 -0.8410
   53MOL   H39535859   5.101   3.051   4.033  1.4289  0.6181 -0.4042
   53MOL   H39635860   5.239   3.119   3.834  0.3947  0.0035 -1.2187
   53MOL   H39735861   5.102   3.224   3.851  0.4740 -0.2297 -1.6978
   53MOL   H39835862   4.991   3.142   3.649 -0.1350 -0.7333  0.0282
   53MOL   H39935863   5.070   3.001   3.651 -2.5177 -0.0650  0.7562
   53MOL   H40035864   5.213   3.265   3.610  1.5462 -0.2311  0.0808
   53MOL   H40135865   5.290   3.113   3.611  0.6268  0.4008 -2.8577
   53MOL   H40235866   5.081   3.208   3.409  2.1073  1.8268 -1.3017
   53MOL   H40335867   5.120   3.042   3.426  0.4045  0.1969 -0.3350
   53MOL   H40435868   5.329   3.263   3.360  0.8316 -1.0125  0.6248
   53MOL   H40535869   5.360   3.102   3.386 -0.2165 -0.6127  0.7420
   53MOL   H40635870   5.163   3.194   3.156 -1.7382 -0.3527  1.7856
   53MOL   H40735871   5.228   3.029   3.188  0.7528 -0.1152 -1.1056
   53MOL   H40835872   5.329   3.102   2.994 -1.5103  0.1715  0.0303
   53MOL   H40935873   5.436   3.088   3.117  0.9424  2.5605 -0.4014
   53MOL   N41035874   5.437   3.325   2.934 -0.1126 -0.4613 -0.3544
   53MOL   C41135875   5.490   3.455   2.890  0.9214 -0.1464  0.5841
   53MOL   C41235876   5.621   3.435   2.816  0.0735  0.6136 -0.4836
   53MOL   C41335877   5.708   3.561   2.799 -0.1096 -1.2584 -0.1427
   53MOL   C41435878   5.831   3.534   2.724  0.2167  1.2486  0.5724
   53MOL   C41535879   5.913   3.662   2.696 -0.1198 -0.3745 -0.5288
   53MOL   C41635880   5.863   3.762   2.588  0.0972 -1.0003  0.4688
   53MOL   C41735881   5.962   3.879   2.569  0.0268  0.4528 -0.2122
   53MOL   C41835882   5.945   3.953   2.434  0.1890  0.6506 -0.3586
   53MOL   C41935883   6.060   4.054   2.410 -0.6234 -0.4912  0.6152
   53MOL   C42035884   6.048   4.129   2.275 -0.3585 -0.5009  0.4574
   53MOL   C42135885   6.104   4.048   2.155  0.0645  1.0326  0.7108
   53MOL   O42235886   6.044   3.944   2.110  0.5115  0.2218  0.1388
   53MOL   H42335887   5.435   3.254   2.862  1.6682  0.2862 -1.1605
   53MOL   H42435888   5.421   3.511   2.827  0.9575 -0.2630  0.4435
   53MOL   H42535889   5.499   3.524   2.975  0.1364  0.1637  0.4144
   53MOL   H42635890   5.595   3.387   2.722  0.3100  0.4463 -0.4628
   53MOL   H42735891   5.679   3.364   2.875  0.2097  1.6085  0.6030
   53MOL   H42835892   5.646   3.635   2.749  0.4108 -1.0428 -0.4746
   53MOL   H42935893   5.736   3.605   2.894 -0.3679 -0.4977 -0.4185
   53MOL   H43035894   5.810   3.490   2.627  0.4541  1.5818  0.3664
   53MOL   H43135895   5.883   3.457   2.779  1.6563  0.6495 -1.5658
   53MOL   H43235896   6.013   3.632   2.665 -1.4233 -3.3320 -2.1211
   53MOL   H43335897   5.945   3.719   2.783 -0.0290 -1.6551  0.2873
   53MOL   H43435898   5.867   3.705   2.495 -1.4197 -0.1221 -0.1487
   53MOL   H43535899   5.760   3.795   2.594  0.3191 -0.1712 -0.0896
   53MOL   H43635900   6.061   3.835   2.563 -0.3910 -0.3487 -1.3077
   53MOL   H43735901   5.948   3.954   2.647 -1.2539 -0.4430  0.4389
   53MOL   H43835902   5.950   3.881   2.353  2.0130  0.0230  0.2881
   53MOL   H43935903   5.849   4.005   2.433 -0.0521  0.2377  0.5360
   53MOL   H44035904   6.161   4.013   2.410  0.3466  1.7676 -0.0326
   53MOL   H44135905   6.065   4.134   2.484 -1.4847  0.0441  0.1059
   53MOL   H44235906   6.107   4.221   2.276  0.3365 -0.9523  2.0975
   53MOL   H44335907   5.946   4.163   2.259 -1.0260 -2.3971  0.5316
   53MOL   N44435908   6.220   4.091   2.111 -0.0555 -0.4794  0.4360
   53MOL   C44535909   6.302   4.023   2.004  0.5099  0.5945  0.0701
   53MOL   C44635910   6.365   3.893   2.054  0.3575 -0.0660 -0.6619
   53MOL   C44735911   6.439   3.820   1.938  0.0885  0.7643 -0.6565
   53MOL   C44835912   6.508   3.700   1.989 -0.2396  0.4024  0.2373
   53MOL   C44935913   6.588   3.630   1.880  0.1374  0.1123 -0.2918
   53MOL   C45035914   6.671   3.514   1.933 -0.5229 -0.8483  0.2551
   53MOL   C45135915   6.766   3.453   1.824 -0.1828 -0.3922 -0.0260
   53MOL   C45235916   6.817   3.307   1.865 -0.5581  0.1421  0.3591
   53MOL   C45335917   6.893   3.237   1.752  0.3754  0.3584  0.0411
   53MOL   C45435918   6.937   3.096   1.792  0.6971  0.0234  0.1667
   53MOL   C45535919   7.037   3.094   1.910  0.5987 -0.0780 -0.3181
   53MOL   O45635920   7.140   3.167   1.904  0.2130 -0.1631  0.1939
   53MOL   H45735921   6.260   4.170   2.159 -3.3653  0.3709  1.9467
   53MOL   H45835922   6.243   4.000   1.915  0.8447  1.6180 -0.4227
   53MOL   H45935923   6.381   4.088   1.965  1.7237  0.5313  2.3496
   53MOL   H46035924   6.288   3.826   2.093  0.4651  0.9596  1.4110
   53MOL   H46135925   6.432   3.913   2.138  0.4872 -0.7029 -0.6058
   53MOL   H46235926   6.369   3.787   1.860 -0.1619 -0.0473 -0.0922
   53MOL   H46335927   6.509   3.891   1.894 -0.8364  1.5038 -0.9629
   53MOL   H46435928   6.442   3.634   2.045  0.1968 -0.9063 -0.7704
   53MOL   H46535929   6.573   3.723   2.074 -1.8254 -0.2409  1.6393
   53MOL   H46635930   6.652   3.710   1.842  1.0552 -0.0547  0.8471
   53MOL   H46735931   6.526   3.596   1.798  0.0699 -1.5402  0.4215
   53MOL   H46835932   6.737   3.558   2.008 -1.0595 -1.3956  1.0543
   53MOL   H46935933   6.612   3.429   1.967 -0.0199 -1.5377 -0.5868
   53MOL   H47035934   6.853   3.513   1.797 -0.6438  0.0054 -0.6301
   53MOL   H47135935   6.704   3.435   1.736 -1.1187 -0.5387  0.6590
   53MOL   H47235936   6.879   3.324   1.953 -0.5963 -1.5578  0.7476
   53MOL   H47335937   6.737   3.241   1.900 -0.6276 -0.3186 -0.6539
   53MOL   H47435938   6.981   3.296   1.723  0.0543  1.8513  1.9306
   53MOL   H47535939   6.835   3.232   1.660  0.0901 -1.1385  0.2964
   53MOL   H47635940   6.972   3.050   1.699  0.0896 -1.3571  0.6154
   53MOL   H47735941   6.853   3.031   1.813 -0.8157  2.1139  0.7778
   53MOL   N47835942   7.007   3.014   2.016 -0.5956 -0.7252  0.7147
   53MOL   C47935943   7.097   2.992   2.129  0.8234 -0.7005  0.5391
   53MOL   C48035944   7.014   2.996   2.253 -0.5464 -0.2297  0.6757
   53MOL   C48135945   7.108   2.980   2.373  0.6673 -0.3647  0.2649
   53MOL   C48235946   7.035   2.967   2.507 -0.4139  0.0863  0.5646
   53MOL   C48335947   7.127   2.899   2.609  0.0775 -0.3388 -0.8958
   53MOL   C48435948   7.070   2.878   2.749  1.2397  0.0535 -0.5408
   53MOL   C48535949   7.132   2.764   2.833  0.7933 -0.1786  0.0443
   53MOL   C48635950   7.072   2.741   2.970  0.4434  0.0816  0.0266
   53MOL   C48735951   7.127   2.611   3.036 -0.7530 -0.1064 -0.7239
   53MOL   C48835952   7.092   2.592   3.183 -0.6010  0.0448 -0.0115
   53MOL   C48935953   7.201   2.526   3.270 -0.2388 -0.1457  0.5364
   53MOL   O49035954   7.325   2.526   3.243 -0.5628 -0.1117 -1.1861
   53MOL   H49135955   6.924   2.957   2.019 -0.2626 -1.1672  1.5955
   53MOL   H49235956   7.140   2.893   2.119 -1.9273 -1.7841 -0.9384
   53MOL   H49335957   7.172   3.071   2.137  1.4250 -1.4240  2.1128
   53MOL   H49435958   6.947   2.911   2.252  1.1600 -1.6269  2.3280
   53MOL   H49535959   6.952   3.085   2.267  1.1498  1.0777  0.1579
   53MOL   H49635960   7.149   2.882   2.350 -2.6214 -1.8248  0.4346
   53MOL   H49735961   7.185   3.058   2.374  2.1108 -1.7793  1.2344
   53MOL   H49835962   6.943   2.909   2.498 -1.2295  1.5335 -0.6940
   53MOL   H49935963   7.000   3.063   2.547 -0.2807  1.6475 -2.8988
   53MOL   H50035964   7.213   2.965   2.612 -1.5280  1.7494  1.0108
   53MOL   H50135965   7.148   2.797   2.577 -1.3725 -0.5204 -1.3461
   53MOL   H50235966   7.076   2.970   2.808  1.4360 -0.7370  0.6850
   53MOL   H50335967   6.970   2.847   2.718 -0.2038  2.3514  1.5854
   53MOL   H50435968   7.235   2.798   2.840  1.8799 -3.0451 -1.2149
   53MOL   H50535969   7.128   2.669   2.779 -0.4156 -0.4370  0.5570
   53MOL   H50635970   7.095   2.834   3.022 -1.0630  0.4388  0.0681
   53MOL   H50735971   6.964   2.738   2.958  0.3421 -1.3183  1.2299
   53MOL   H50835972   7.233   2.593   3.018 -1.0052 -1.0527 -1.2513
   53MOL   H50935973   7.104   2.524   2.975  0.3776  0.4886 -2.0375
   53MOL   H51035974   6.997   2.538   3.184 -0.6131  0.0577 -0.4659
   53MOL   H51135975   7.073   2.690   3.227  1.1024 -0.0546  0.9916
   53MOL   N51235976   7.158   2.463   3.383  0.3622 -0.1612 -0.1453
   53MOL   C51335977   7.232   2.395   3.486  0.2998 -0.5368 -0.4194
   53MOL   C51435978   7.244   2.253   3.467  0.6224 -0.2433 -0.0331
   53MOL   C51535979   7.323   2.191   3.585 -0.4586  0.3443 -0.6096
   53MOL   C51635980   7.351   2.045   3.551 -0.3619  0.1955  0.3745
   53MOL   C51735981   7.447   1.975   3.652 -0.6182 -0.0698  0.5817
   53MOL   C51835982   7.481   1.831   3.602  0.4715  0.7454  0.1429
   53MOL   C51935983   7.564   1.752   3.695  0.2284  0.6134  0.3355
   53MOL   C52035984   7.615   1.617   3.646  0.0634  0.5723 -0.1879
   53MOL   C52135985   7.672   1.520   3.755 -0.1937 -0.7937  0.7425
   53MOL   C52235986   0.022   1.388   3.687 -0.4787 -0.1703 -0.1482
   53MOL   C52335987   0.169   1.412   3.656  1.1252  0.6358 -0.1867
   53MOL   O52435988   0.249   1.420   3.747 -0.0096 -0.3241  0.2106
   53MOL   H52535989   7.061   2.488   3.400 -0.1785 -1.1781 -1.6846
   53MOL   H52635990   7.327   2.446   3.494 -0.4157  0.5963  0.9113
   53MOL   H52735991   7.185   2.414   3.582  3.0187 -1.9898  1.2449
   53MOL   H52835992   7.301   2.234   3.376 -0.4161 -1.5136 -0.4345
   53MOL   H52935993   7.141   2.216   3.465  1.0083 -1.3225 -0.2507
   53MOL   H53035994   7.419   2.238   3.606  0.0503 -0.2607 -1.5221
   53MOL   H53135995   7.263   2.200   3.675 -0.3623  1.5545 -0.6626
   53MOL   H53235996   7.403   2.034   3.456  1.0096  1.6078  0.9365
   53MOL   H53335997   7.260   1.986   3.541 -0.2693  0.2826 -1.1205
   53MOL   H53435998   7.403   1.971   3.752 -0.4549 -1.8373  0.6116
   53MOL   H53535999   7.538   2.034   3.657 -1.7400  1.5707  2.5678
   53MOL   H53636000   7.392   1.771   3.584  1.6779 -1.2900  0.8675
   53MOL   H53736001   7.535   1.837   3.507 -0.8495  0.3546 -0.6398
   53MOL   H53836002   7.506   1.734   3.786  0.6238  0.3398  0.5373
   53MOL   H53936003   7.650   1.815   3.719 -0.2909  0.8257  1.6805
   53MOL   H54036004   7.551   1.559   3.579  0.5284 -0.3491  0.1543
   53MOL   H54136005   7.693   1.632   3.571  0.4138  1.7057  0.4035
   53MOL   H54236006   7.589   1.484   3.816 -1.8180 -1.6350 -1.8640
   53MOL   H54336007   0.029   1.572   3.818 -0.7184  1.0073 -0.1115
   53MOL   H54436008   7.690   1.358   3.594 -0.0661  0.6375 -0.6231
   53MOL   H54536009   7.715   1.304   3.752 -0.9217 -0.1418 -0.2676
   53MOL   N54636010   0.206   1.410   3.524 -0.3043 -0.3018 -0.0017
   53MOL   C54736011   0.335   1.431   3.463  0.5112 -0.3243 -0.1020
   53MOL   C54836012   0.409   1.295   3.427 -0.4031 -0.4700  0.1659
   53MOL   C54936013   0.361   1.231   3.296  0.2270 -0.0373  0.1803
   53MOL   C55036014   0.438   1.280   3.173 -0.1644  0.7766  0.1010
   53MOL   C55136015   0.405   1.216   3.034  0.5332  0.2332 -0.2799
   53MOL   C55236016   0.498   1.249   2.913  0.6050  0.6368 -0.2555
   53MOL   C55336017   0.493   1.397   2.865 -0.3337 -0.6929 -0.4015
   53MOL   C55436018   0.599   1.433   2.762 -0.6019 -0.3929  0.0886
   53MOL   C55536019   0.588   1.570   2.705  0.1372 -0.5818 -0.3834
   53MOL   C55636020   0.667   1.572   2.572  0.3838  0.0036  0.2702
   53MOL   C55736021   0.667   1.709   2.503 -0.3414 -0.1477 -0.9283
   53MOL   O55836022   0.696   1.806   2.574 -0.0980  0.2632  0.4783
   53MOL   H55936023   0.134   1.406   3.453  1.6410  0.6916 -2.0775
   53MOL   H56036024   0.318   1.494   3.375  0.4395  1.4953  1.1810
   53MOL   H56136025   0.398   1.509   3.507 -0.0743  0.8832 -1.3286
   53MOL   H56236026   0.413   1.224   3.509 -0.7353 -1.0348 -0.3004
   53MOL   H56336027   0.511   1.332   3.413 -0.8066  1.7897  2.7330
   53MOL   H56436028   0.380   1.125   3.311  0.0943 -0.0768  0.0698
   53MOL   H56536029   0.254   1.243   3.277  0.2222 -1.2433 -0.5705
   53MOL   H56636030   0.545   1.285   3.194 -0.0594  1.7030 -0.6274
   53MOL   H56736031   0.413   1.384   3.156 -0.3811  0.3128 -2.7452
   53MOL   H56836032   0.303   1.245   3.006  0.5271 -0.5886 -1.1409
   53MOL   H56936033   0.392   1.109   3.049 -1.6951  0.5339  0.1419
   53MOL   H57036034   0.597   1.214   2.941  1.3635  1.4733 -1.8265
   53MOL   H57136035   0.472   1.188   2.827 -1.6079  0.3351  0.5849
   53MOL   H57236036   0.509   1.465   2.949 -1.0452 -2.3112  1.0655
   53MOL   H57336037   0.393   1.410   2.824 -0.7862 -1.8027  0.3321
   53MOL   H57436038   0.692   1.423   2.817 -1.9383 -1.6008  2.1950
   53MOL   H57536039   0.576   1.361   2.683 -0.1509 -0.4918  0.0468
   53MOL   H57636040   0.609   1.650   2.777  1.8765 -0.1087 -1.3932
   53MOL   H57736041   0.486   1.580   2.670  0.6810  1.0188 -1.5715
   53MOL   H57836042   0.622   1.489   2.517  0.5164  0.0328  0.1179
   53MOL   H57936043   0.771   1.546   2.589 -0.3845 -2.8732  0.8343
   53MOL   N58036044   0.639   1.717   2.373 -0.3194  0.0608 -0.1761
   53MOL   C58136045   0.618   1.842   2.300  0.4143 -0.0861 -0.7001
   53MOL   C58236046   0.724   1.870   2.198  0.0707  0.4499 -0.1245
   53MOL   C58336047   0.668   1.989   2.114  0.1074 -0.6426 -0.1316
   53MOL   C58436048   0.761   2.042   2.001 -0.1514 -0.3142 -0.4248
   53MOL   C58536049   0.691   2.146   1.912 -0.0237 -0.5114 -0.1959
   53MOL   C58636050   0.587   2.071   1.821  0.1870 -0.5622  0.5676
   53MOL   C58736051   0.641   1.935   1.760 -0.3631 -0.2090  0.6439
   53MOL   C58836052   0.540   1.871   1.668 -0.5000  0.3300  0.1660
   53MOL   C58936053   0.495   1.951   1.551  0.8485  0.5511  0.1478
   53MOL   C59036054   0.416   1.861   1.453 -0.3265 -0.3680  0.0759
   53MOL   C59136055   0.277   1.827   1.503 -0.1023 -0.2647 -0.1345
   53MOL   O59236056   0.218   1.913   1.571  0.2273  0.0295 -0.3058
   53MOL   H59336057   0.609   1.634   2.325  0.5672 -0.9073  0.9286
   53MOL   H59436058   0.519   1.833   2.255  0.2678 -0.1726 -0.3617
   53MOL   H59536059   0.603   1.926   2.368 -0.9030  1.3495 -2.7015
   53MOL   H59636060   0.746   1.775   2.149 -2.1646 -0.1982  0.0693
   53MOL   H59736061   0.811   1.902   2.254 -1.2414  0.9246  1.6992
   53MOL   H59836062   0.571   1.961   2.075  0.5697 -0.5728 -1.3554
   53MOL   H59936063   0.659   2.070   2.186  0.6876 -1.4501  0.8617
   53MOL   H60036064   0.817   1.967   1.945  1.3398 -0.0313  0.6489
   53MOL   H60136065   0.840   2.096   2.053 -0.7924 -1.3531  1.6676
   53MOL   H60236066   0.765   2.194   1.850  2.4615 -1.9043  1.5808
   53MOL   H60336067   0.646   2.223   1.975 -0.4963 -0.7559 -0.2312
   53MOL   H60436068   0.499   2.045   1.878  0.3074 -0.2040  0.9177
   53MOL   H60536069   0.561   2.144   1.744 -2.0458 -2.9818 -1.0696
   53MOL   H60636070   0.678   1.862   1.832  0.0377  0.0971  0.7476
   53MOL   H60736071   0.723   1.973   1.699 -1.7194 -1.6180 -2.1287
   53MOL   H60836072   0.591   1.778   1.644 -0.3184  0.2231  0.9344
   53MOL   H60936073   0.455   1.841   1.729  0.0173  1.0836  1.2656
   53MOL   H61036074   0.578   1.995   1.496  0.1541  2.3253  0.4854
   53MOL   H61136075   0.428   2.035   1.571 -0.4376 -0.3070 -0.5138
   53MOL   H61236076   0.479   1.777   1.423  1.3679 -0.1432  2.8508
   53MOL   H61336077   0.401   1.920   1.363 -2.0699  0.1213  0.6771
   53MOL   N61436078   0.232   1.707   1.474 -0.0984 -0.6015 -0.1308
   53MOL   C61536079   0.111   1.654   1.532  0.6362  0.3003 -0.2072
   53MOL   C61636080   0.130   1.587   1.669 -0.4284 -0.1049  0.4207
   53MOL   C61736081   0.017   1.504   1.704  0.7007 -0.4931 -0.3012
   53MOL   C61836082   0.031   1.428   1.840 -0.1343  0.0563 -0.6621
   53MOL   C61936083   7.630   1.328   1.871 -0.1773  0.1395  0.5720
   53MOL   C62036084   7.629   1.219   1.764 -0.6699 -0.2880  0.7022
   53MOL   C62136085   7.524   1.109   1.786 -0.9111 -0.7002 -0.1062
   53MOL   C62236086   7.525   1.011   1.664  0.9384  0.6637 -0.0272
   53MOL   C62336087   7.632   0.898   1.682  0.3665 -0.2824 -0.1111
   53MOL   C62436088   7.606   0.762   1.603  0.0242 -0.6017  0.0045
   53MOL   C62536089   7.653   0.781   1.456  0.1854 -0.1389  1.2027
   53MOL   O62636090   0.051   0.748   1.429 -0.3585 -0.1930  0.6992
   53MOL   H62736091   0.299   1.649   1.425  1.9286  1.0253  0.6008
   53MOL   H62836092   0.074   1.576   1.467  1.6551 -0.5035  0.1603
   53MOL   H62936093   0.029   1.725   1.539 -1.1123 -1.5396 -1.5562
   53MOL   H63036094   0.133   1.672   1.737 -0.2925  1.1833 -1.1468
   53MOL   H63136095   0.221   1.527   1.669 -0.6111 -0.3936 -0.4276
   53MOL   H63236096   7.640   1.560   1.693  0.5272 -1.0344 -1.7903
   53MOL   H63336097   0.018   1.428   1.626 -0.5388 -0.1766 -0.6482
   53MOL   H63436098   0.028   1.492   1.928  0.5507 -2.4183  1.1996
   53MOL   H63536099   0.128   1.378   1.849 -0.1824  0.0109 -0.3978
   53MOL   H63636100   7.532   1.375   1.864 -0.7081 -1.1209 -0.9677
   53MOL   H63736101   7.649   1.269   1.960  1.0656  1.1843  0.9980
   53MOL   H63836102   7.615   1.253   1.661 -1.5378 -0.0148  0.9091
   53MOL   H63936103   0.013   1.175   1.761 -1.1096 -1.1917 -2.0567
   53MOL   H64036104   7.425   1.153   1.795  0.3842  1.6234  3.6898
   53MOL   H64136105   7.546   1.062   1.881 -1.7878 -1.7366 -0.4041
   53MOL   H64236106   7.430   0.957   1.671  1.4488 -0.1771  0.5698
   53MOL   H64336107   7.519   1.054   1.565  0.1412  2.6491  0.8592
   53MOL   H64436108   7.633   0.883   1.790 -0.8576  1.9058  0.2311
   53MOL   H64536109   0.009   0.949   1.656 -1.3203  2.3830 -1.0734
   53MOL   H64636110   7.502   0.730   1.604 -0.3392  0.2282 -4.1841
   53MOL   H64736111   7.672   0.686   1.643  1.0112  0.3428  0.1893
   53MOL   N64836112   7.568   0.850   1.374  0.0857  0.1893 -0.3295
   53MOL   C64936113   7.601   0.912   1.245 -0.6664 -0.1370 -0.4278
   53MOL   C65036114   7.516   0.827   1.145 -0.1375  0.1496 -0.6604
   53MOL   C65136115   7.534   0.874   1.005 -0.1826 -0.4731 -0.0748
   53MOL   C65236116   7.459   0.803   0.893 -0.1511  0.7870 -1.1278
   53MOL   C65336117   7.485   0.875   0.754 -0.0564  0.2615 -0.4873
   53MOL   C65436118   7.380   0.836   0.648  0.5518  0.6638 -0.1911
   53MOL   C65536119   7.381   0.691   0.611 -0.5625  0.2796 -0.2240
   53MOL   C65636120   7.269   0.644   0.521 -0.2340 -0.0750  0.1746
   53MOL   C65736121   7.252   0.492   0.514 -0.1148 -0.3267  0.3684
   53MOL   C65836122   7.176   0.439   0.388  0.0231  0.5150  0.4739
   53MOL   C65936123   7.028   0.480   0.371 -0.0219 -0.3471  0.4284
   53MOL   O66036124   6.938   0.397   0.397 -0.6775  0.5212 -0.0110
   53MOL   H66136125   7.477   0.873   1.411  0.9399  3.8581 -0.3631
   53MOL   H66236126   7.706   0.915   1.216 -0.9230  2.8302 -1.2428
   53MOL   H66336127   7.568   1.016   1.239  0.7464  0.1235 -4.8262
   53MOL   H66436128   7.410   0.833   1.169 -0.0115 -1.7089  0.4649
   53MOL   H66536129   7.541   0.721   1.147  0.1275  0.1824 -1.7365
   53MOL   H66636130   7.504   0.978   1.014  4.6369  1.2983 -2.2182
   53MOL   H66736131   7.643   0.864   0.995 -0.2411 -0.5524 -0.6549
   53MOL   H66836132   7.352   0.817   0.911 -0.4383 -0.5769 -1.7097
   53MOL   H66936133   7.483   0.697   0.903 -1.3281  0.6032 -0.0878
   53MOL   H67036134   7.583   0.858   0.710  0.3806  2.8164 -0.6106
   53MOL   H67136135   7.482   0.984   0.765 -0.7162  0.3206 -1.2419
   53MOL   H67236136   7.283   0.863   0.690  1.5349  1.1923  1.7731
   53MOL   H67336137   7.392   0.902   0.562 -1.1660  0.5652 -0.5268
   53MOL   H67436138   7.379   0.610   0.684 -1.5088  1.4489  1.0554
   53MOL   H67536139   7.472   0.670   0.554 -0.3510 -0.9538  0.5415
   53MOL   H67636140   7.174   0.682   0.559 -0.3046 -0.8857  0.8275
   53MOL   H67736141   7.288   0.685   0.422 -0.8088  1.9871  0.8974
   53MOL   H67836142   7.204   0.451   0.603 -1.9663  1.4129  0.2039
   53MOL   H67936143   7.349   0.444   0.527  0.2655  0.8748  2.1235
   53MOL   H68036144   7.184   0.331   0.385  0.1790  0.5587 -0.7195
   53MOL   H68136145   7.227   0.478   0.300 -1.5079  1.2526 -0.1039
   53MOL   H68236146   7.003   0.583   0.350  3.4925  0.9933  2.3102
   54MOL     N136147   0.259   5.711   0.715 -0.2682  0.6812  0.4935
   54MOL     C236148   0.295   5.704   0.576  0.1741  0.5258  0.6086
   54MOL     C336149   0.373   5.574   0.552  0.6166  0.7619  0.5539
   54MOL     C436150   0.390   5.532   0.402  0.5417  0.4724  0.2500
   54MOL     C536151   0.474   5.626   0.314  0.3387 -1.1808  0.3041
   54MOL     C636152   0.484   5.579   0.171  0.1171  0.2820  0.3781
   54MOL     C736153   0.548   5.691   0.080  0.0436 -0.3610  0.1079
   54MOL     C836154   0.580   5.640   7.653 -0.1397 -0.5685  0.6619
   54MOL     C936155   0.460   5.599   7.573  0.6821 -0.1298 -0.0127
   54MOL    C1036156   0.479   5.540   7.432  0.1571  0.6314 -0.6881
   54MOL    C1136157   0.350   5.542   7.351 -0.1648 -0.3280 -0.1550
   54MOL    C1236158   0.357   5.480   7.212  0.2226  0.1326  0.5353
   54MOL    O1336159   0.466   5.419   7.186 -0.1707  0.3768  0.4279
   54MOL    H1436160   0.198   5.792   0.708 -3.6142 -1.7932 -0.8337
   54MOL    H1536161   0.358   5.790   0.549  0.7370 -0.4106 -1.1293
   54MOL    H1636162   0.207   5.709   0.513  0.2795 -1.3974  0.2862
   54MOL    H1736163   0.319   5.492   0.599 -0.6381  1.4718  0.3537
   54MOL    H1836164   0.471   5.577   0.600  1.1337  0.9874 -0.4902
   54MOL    H1936165   0.438   5.435   0.409 -0.0352 -0.0388 -2.1650
   54MOL    H2036166   0.294   5.513   0.353 -1.0445 -1.4301  3.9667
   54MOL    H2136167   0.571   5.626   0.363  0.6207  1.6735 -0.1678
   54MOL    H2236168   0.426   5.724   0.324  1.5381 -0.6260  0.6952
   54MOL    H2336169   0.384   5.557   0.133  0.4642  0.8750 -0.9127
   54MOL    H2436170   0.545   5.490   0.154 -0.0495 -0.1035  1.7608
   54MOL    H2536171   0.479   5.775   0.085 -1.9755 -1.9113 -1.1059
   54MOL    H2636172   0.641   5.724   0.127  0.5549  0.4510 -1.4364
   54MOL    H2736173   0.651   5.558   7.667 -0.5761 -0.9425  0.7057
   54MOL    H2836174   0.622   5.729   7.606  1.5847 -1.1090  1.1358
   54MOL    H2936175   0.411   5.521   7.630  0.3703  0.2325  0.2128
   54MOL    H3036176   0.391   5.683   7.563  0.3678 -0.3790  0.0598
   54MOL    H3136177   0.536   5.448   7.424  0.3180  0.5602  0.9730
   54MOL    H3236178   0.543   5.606   7.373  2.0649 -0.4326  0.1355
   54MOL    H3336179   0.312   5.644   7.342  0.2916 -0.3481 -2.8711
   54MOL    H3436180   0.271   5.499   7.412  1.9501 -1.1043  2.1128
   54MOL    H3536181   0.194   5.639   0.743  1.7519 -1.0229  0.8722
   54MOL    N3636182   0.257   5.491   7.125  0.2023  0.0833  0.0945
   54MOL    C3736183   0.241   5.426   6.995  0.0581  0.0064  0.7632
   54MOL    C3836184   0.093   5.382   6.984 -0.4925  0.2857  0.4162
   54MOL    C3936185   0.082   5.283   6.865 -0.4874  0.1834 -0.4527
   54MOL    C4036186   0.027   5.362   6.744  0.0474  0.5556  1.1130
   54MOL    C4136187   0.141   5.431   6.665  0.3829 -0.3396 -0.2079
   54MOL    C4236188   0.097   5.484   6.532 -0.6852  0.2962  0.2981
   54MOL    C4336189   0.205   5.568   6.455  0.7237  0.5517  0.1187
   54MOL    C4436190   0.238   5.702   6.526  0.4554  0.1483  0.9622
   54MOL    C4536191   0.334   5.784   6.453 -0.0440  0.3298  0.1521
   54MOL    C4636192   0.332   5.936   6.480 -0.1098 -0.3093 -0.1544
   54MOL    C4736193   0.248   6.001   6.380  0.3670 -0.4637  0.2165
   54MOL    O4836194   0.284   6.006   6.265 -0.5045  0.1502  0.0388
   54MOL    H4936195   0.171   5.540   7.148 -0.5538 -1.9495  1.7468
   54MOL    H5036196   0.268   5.493   6.913  2.2457 -0.9370  0.6518
   54MOL    H5136197   0.311   5.342   6.992  0.4044  0.2884  0.8585
   54MOL    H5236198   0.018   5.461   6.977 -0.3621  0.2506 -1.7710
   54MOL    H5336199   0.078   5.324   7.075 -1.5172 -1.4801 -0.8527
   54MOL    H5436200   0.175   5.229   6.847 -2.0429 -2.6005 -0.4589
   54MOL    H5536201   0.013   5.202   6.889  1.1221 -1.0950 -0.0134
   54MOL    H5636202   7.664   5.435   6.764 -1.3603 -0.2476 -1.2650
   54MOL    H5736203   7.695   5.280   6.690  2.5444 -0.3563  0.2257
   54MOL    H5836204   0.219   5.357   6.648  1.0215  0.4849 -0.9341
   54MOL    H5936205   0.179   5.513   6.725 -0.6425 -1.3807  1.8953
   54MOL    H6036206   0.075   5.399   6.468  0.6931  0.8671 -0.9844
   54MOL    H6136207   0.007   5.542   6.548 -0.0551  0.6643  2.7174
   54MOL    H6236208   0.171   5.592   6.354 -0.5060 -0.8323  0.1693
   54MOL    H6336209   0.295   5.510   6.434  1.8032  2.7123 -1.3075
   54MOL    H6436210   0.143   5.753   6.541 -0.3649 -1.7210  2.2774
   54MOL    H6536211   0.275   5.703   6.629 -0.9554 -1.3653  1.5132
   54MOL    H6636212   0.319   5.769   6.346  0.3247  2.4543 -0.2187
   54MOL    H6736213   0.436   5.746   6.452  0.1749  0.9046  0.2919
   54MOL    H6836214   0.433   5.975   6.474 -0.6360  1.0037 -0.5867
   54MOL    H6936215   0.307   5.960   6.583  0.6071  0.5321 -0.1780
   54MOL    N7036216   0.122   6.044   6.407 -0.1111  0.3933  0.6805
   54MOL    C7136217   0.040   6.118   6.314  0.1064  0.5560 -0.0217
   54MOL    C7236218   7.613   6.076   6.342  0.1231 -0.2405  0.4550
   54MOL    C7336219   7.509   6.146   6.252  0.3194 -0.1113 -0.8412
   54MOL    C7436220   7.359   6.124   6.290  0.4416 -0.0761 -0.1306
   54MOL    C7536221   7.313   5.977   6.269  0.0171  0.3736 -0.1934
   54MOL    C7636222   7.160   5.959   6.294  0.7198  0.7054 -0.9049
   54MOL    C7736223   7.095   5.838   6.231 -0.2084 -0.4246  0.9947
   54MOL    C7836224   7.031   5.881   6.088 -0.1106 -0.0212  0.0383
   54MOL    C7936225   6.945   5.763   6.029 -0.2246 -0.2617  0.3435
   54MOL    C8036226   6.841   5.700   6.121  0.2109  0.0862 -0.4824
   54MOL    C8136227   6.740   5.793   6.191 -0.2705  0.5184  0.6753
   54MOL    O8236228   6.705   5.889   6.127  0.2032 -0.1289  0.6304
   54MOL    H8336229   0.088   6.015   6.497 -0.3592  0.6368  0.6666
   54MOL    H8436230   0.047   6.223   6.340 -2.8166  0.2648  2.3035
   54MOL    H8536231   0.062   6.093   6.210  0.9149 -1.0964  0.5271
   54MOL    H8636232   7.595   6.104   6.446  0.9363 -1.5698  0.9544
   54MOL    H8736233   7.605   5.967   6.341  0.4119 -0.2612  0.3911
   54MOL    H8836234   7.530   6.253   6.261  1.8044 -0.6366  2.4466
   54MOL    H8936235   7.527   6.133   6.145  0.9851  0.0054 -0.7465
   54MOL    H9036236   7.300   6.189   6.226 -0.2368  0.4255  0.9990
   54MOL    H9136237   7.337   6.157   6.391 -0.8983  0.9726 -0.7561
   54MOL    H9236238   7.367   5.924   6.348 -0.1213  0.2637 -0.1731
   54MOL    H9336239   7.342   5.928   6.176 -0.1831 -1.1554  0.5398
   54MOL    H9436240   7.151   5.959   6.403 -1.5647 -3.1357 -0.9963
   54MOL    H9536241   7.107   6.043   6.249  0.7113  0.5760 -1.1346
   54MOL    H9636242   7.025   5.806   6.308 -0.6779 -0.1632  0.6809
   54MOL    H9736243   7.166   5.756   6.224  1.4133  1.0485 -0.0896
   54MOL    H9836244   6.955   5.957   6.106 -0.3328 -0.7309  2.2553
   54MOL    H9936245   7.104   5.918   6.017  0.8834 -0.1676  0.9702
   54MOL   H10036246   7.015   5.687   5.995 -1.8280 -1.3130 -0.6110
   54MOL   H10136247   6.904   5.808   5.938  0.8363  0.8931  0.4155
   54MOL   H10236248   6.900   5.647   6.195  0.3602  0.8537 -0.0495
   54MOL   H10336249   6.796   5.621   6.060  2.2818  0.3140 -2.3990
   54MOL   N10436250   6.683   5.763   6.312 -0.8025  0.2464  0.3117
   54MOL   C10536251   6.581   5.832   6.384 -0.0204 -0.1740 -0.3758
   54MOL   C10636252   6.646   5.898   6.510 -0.4148  0.2813  0.3907
   54MOL   C10736253   6.692   5.790   6.610 -0.1987  0.2162 -0.2768
   54MOL   C10836254   6.758   5.854   6.730 -1.1803  0.3722  0.0154
   54MOL   C10936255   6.892   5.928   6.700  0.1239 -0.3200  0.6062
   54MOL   C11036256   7.010   5.832   6.671 -0.0339 -0.0048 -0.0186
   54MOL   C11136257   7.147   5.910   6.678  0.1077  0.7879  0.0581
   54MOL   C11236258   7.264   5.815   6.640  0.0006  0.3980 -0.4782
   54MOL   C11336259   7.392   5.887   6.645 -0.0806  0.3352 -0.4199
   54MOL   C11436260   7.501   5.797   6.590 -0.0143  0.0179  0.2037
   54MOL   C11536261   7.630   5.847   6.665 -0.4625  0.0653 -0.6759
   54MOL   O11636262   7.690   5.947   6.617  0.4147  0.6089  0.4537
   54MOL   H11736263   6.707   5.672   6.348 -0.9483  0.2833  0.4998
   54MOL   H11836264   6.535   5.907   6.319  0.4748 -0.2874 -0.8599
   54MOL   H11936265   6.498   5.766   6.408  0.1166 -0.0798  0.3667
   54MOL   H12036266   6.579   5.972   6.554 -1.9402  0.3346 -1.8974
   54MOL   H12136267   6.732   5.960   6.483  0.3220 -0.7074  0.4655
   54MOL   H12236268   6.613   5.723   6.645  0.8124 -0.9906 -0.2537
   54MOL   H12336269   6.756   5.720   6.557 -2.0537 -1.4791 -0.3367
   54MOL   H12436270   6.773   5.778   6.807 -0.7053  0.0847 -0.3527
   54MOL   H12536271   6.691   5.923   6.780  1.0283  1.5600  1.3970
   54MOL   H12636272   6.910   5.990   6.788 -0.0814  1.1404 -0.3584
   54MOL   H12736273   6.885   6.016   6.636 -0.2783 -1.7589 -1.3766
   54MOL   H12836274   7.005   5.746   6.738  0.5170  0.6540  0.8874
   54MOL   H12936275   6.994   5.786   6.574  0.7968 -2.2821  0.8933
   54MOL   H13036276   7.175   5.949   6.776 -0.6260 -1.4384  1.1726
   54MOL   H13136277   7.146   5.997   6.612 -2.2581 -0.0285 -1.0430
   54MOL   H13236278   7.272   5.736   6.715  0.0007 -0.1458 -1.0416
   54MOL   H13336279   7.236   5.760   6.550  0.2008  0.1179 -0.3704
   54MOL   H13436280   7.413   5.936   6.740 -1.8058  2.9632 -1.3228
   54MOL   H13536281   7.390   5.969   6.572 -0.7995  1.0980  0.4395
   54MOL   H13636282   7.510   5.810   6.482 -0.3806 -0.9766  0.0519
   54MOL   H13736283   7.472   5.695   6.617 -0.8553  0.5265  1.2190
   54MOL   N13836284   7.660   5.791   6.783 -0.4961  0.4072 -0.3606
   54MOL   C13936285   0.032   5.856   6.879  0.6347  0.1733  0.7377
   54MOL   C14036286   0.134   5.764   6.941  0.2041 -0.1526 -0.1746
   54MOL   C14136287   0.256   5.842   6.995 -0.0193  0.2405 -0.1337
   54MOL   C14236288   0.240   5.903   7.139  1.1274 -0.1959 -0.2366
   54MOL   C14336289   0.372   5.950   7.199 -0.6126 -0.1397  0.1135
   54MOL   C14436290   0.365   5.956   7.357  0.1979 -0.0575 -0.5894
   54MOL   C14536291   0.501   5.946   7.427  0.3633  0.4220  0.3120
   54MOL   C14636292   0.592   6.070   7.401  0.2164  0.4797 -0.5206
   54MOL   C14736293   0.730   6.049   7.333 -0.7103 -1.1500  0.4073
   54MOL   C14836294   0.810   6.179   7.295  0.1262 -0.3859 -0.1245
   54MOL   C14936295   0.793   6.216   7.153 -0.2444  0.9010  0.1072
   54MOL   O15036296   0.706   6.292   7.115  0.4222  0.1962  0.3724
   54MOL   H15136297   7.596   5.720   6.816 -0.6141  0.8742  0.4125
   54MOL   H15236298   0.080   5.942   6.832  0.9177 -1.5249 -2.1935
   54MOL   H15336299   7.684   5.895   6.959 -1.9761 -0.1371 -1.1087
   54MOL   H15436300   0.180   5.693   6.872 -0.6787 -0.4034 -0.5075
   54MOL   H15536301   0.078   5.714   7.020 -2.7448  2.8144 -0.3159
   54MOL   H15636302   0.339   5.772   6.991  0.8246  0.9868  2.6490
   54MOL   H15736303   0.279   5.918   6.920 -1.8655 -0.3423 -1.3202
   54MOL   H15836304   0.199   5.831   7.210  0.8761  0.9144  0.7538
   54MOL   H15936305   0.161   5.977   7.129  0.2049 -1.4013 -2.1565
   54MOL   H16036306   0.402   6.045   7.153 -0.5198 -0.5641 -0.7197
   54MOL   H16136307   0.454   5.884   7.171  1.1536  1.5460  1.1508
   54MOL   H16236308   0.314   6.047   7.386 -0.5373 -0.4913 -0.5162
   54MOL   H16336309   0.304   5.878   7.404 -0.7611  0.3741 -1.1242
   54MOL   H16436310   0.544   5.850   7.398 -2.6705 -0.1649 -2.5401
   54MOL   H16536311   0.474   5.937   7.532 -1.8001  0.6017 -0.2005
   54MOL   H16636312   0.528   6.145   7.354 -1.3750  0.6861  1.8983
   54MOL   H16736313   0.604   6.115   7.499 -0.1121 -0.4021 -0.0793
   54MOL   H16836314   0.712   5.984   7.247  1.4857 -1.7828  0.3972
   54MOL   H16936315   0.795   6.001   7.406  0.3574  1.0810  0.9772
   54MOL   H17036316   0.911   6.149   7.322 -0.2095 -2.3320 -0.9470
   54MOL   H17136317   0.782   6.266   7.355  0.7806  0.9625 -1.7051
   54MOL   N17236318   0.873   6.155   7.062 -0.3737  0.0589 -0.2767
   54MOL   C17336319   0.894   6.209   6.926 -0.0999  0.4967  0.1365
   54MOL   C17436320   1.029   6.161   6.860  0.6848 -0.2761 -0.2160
   54MOL   C17536321   1.062   6.225   6.723  0.7114  0.7848  0.0776
   54MOL   C17636322   1.185   6.162   6.666  0.0219 -0.0864  0.8299
   54MOL   C17736323   1.241   6.235   6.550  0.3547  0.4190 -0.2172
   54MOL   C17836324   1.394   6.232   6.522  0.2680  0.8172 -0.0273
   54MOL   C17936325   1.436   6.323   6.405 -0.3652  0.4014 -0.5030
   54MOL   C18036326   1.572   6.383   6.445 -0.4471 -0.4239  0.6357
   54MOL   C18136327   1.681   6.279   6.466  0.4384 -0.1057  0.0542
   54MOL   C18236328   1.820   6.342   6.472 -0.0856 -0.1155 -0.1067
   54MOL   C18336329   1.918   6.251   6.535 -0.5318  1.0363 -0.1294
   54MOL   O18436330   1.897   6.130   6.540 -0.7177  0.1792 -0.1945
   54MOL   H18536331   0.934   6.085   7.100 -0.8364 -0.0492  0.2641
   54MOL   H18636332   0.810   6.187   6.861 -0.9720 -0.5829  1.6257
   54MOL   H18736333   0.901   6.318   6.934 -0.1462  0.6254 -1.3380
   54MOL   H18836334   1.020   6.055   6.838  1.7377  0.0381 -2.2720
   54MOL   H18936335   1.114   6.170   6.928  0.1460  0.7279  0.3415
   54MOL   H19036336   0.983   6.214   6.649  2.7571 -0.1597 -1.9920
   54MOL   H19136337   1.086   6.331   6.733 -3.6052  1.7374  1.7228
   54MOL   H19236338   1.167   6.057   6.643  0.4967  0.0047  0.0020
   54MOL   H19336339   1.258   6.155   6.747 -1.4378  0.6480  2.2273
   54MOL   H19436340   1.226   6.343   6.553 -1.2393  0.2175 -0.3816
   54MOL   H19536341   1.188   6.212   6.458 -1.0844 -0.3557  0.7829
   54MOL   H19636342   1.437   6.259   6.618  0.4518 -2.6543  0.9532
   54MOL   H19736343   1.440   6.133   6.514 -2.4409 -0.4505 -0.4679
   54MOL   H19836344   1.359   6.399   6.387 -0.1422  0.8104  0.2590
   54MOL   H19936345   1.448   6.272   6.309 -0.4169 -0.7824  0.1188
   54MOL   H20036346   1.600   6.437   6.355  0.3898 -1.1817  0.4368
   54MOL   H20136347   1.582   6.457   6.524 -0.6194 -0.1887  0.4368
   54MOL   H20236348   1.692   6.207   6.385  1.5402 -2.3738  2.1595
   54MOL   H20336349   1.655   6.217   6.552  1.4377 -0.1561  0.3271
   54MOL   H20436350   1.823   6.424   6.544  3.3250 -2.0074  2.0634
   54MOL   H20536351   1.854   6.378   6.374 -0.5118 -1.1372 -0.6379
   54MOL   N20636352   2.030   6.310   6.576 -0.0949 -0.2231  0.4940
   54MOL   C20736353   2.142   6.235   6.636  0.2256 -0.6636 -0.5857
   54MOL   C20836354   2.224   6.335   6.719 -0.0344  0.6880 -0.6283
   54MOL   C20936355   2.376   6.297   6.728  0.1682 -0.4608 -0.7887
   54MOL   C21036356   2.462   6.413   6.783  0.2143 -0.2747 -0.5051
   54MOL   C21136357   2.609   6.386   6.744 -0.2172  0.9747  1.0833
   54MOL   C21236358   2.700   6.487   6.818 -0.5935  0.3057 -0.3986
   54MOL   C21336359   2.848   6.496   6.753  0.4001 -0.3887  0.1335
   54MOL   C21436360   2.936   6.612   6.803  0.3190 -0.0044 -1.2100
   54MOL   C21536361   2.991   6.584   6.944 -0.2380 -0.7101 -0.6576
   54MOL   C21636362   3.053   6.708   7.010  0.3429 -0.1941 -0.2553
   54MOL   C21736363   3.188   6.749   6.959  0.7088  0.2644 -0.3930
   54MOL   O21836364   3.213   6.738   6.842 -0.2805  0.1199 -0.0442
   54MOL   H21936365   2.044   6.409   6.560 -0.4685 -0.3071 -0.3629
   54MOL   H22036366   2.212   6.215   6.555  0.6026  2.9749 -1.2095
   54MOL   H22136367   2.121   6.143   6.691 -2.6150  0.2554 -0.0383
   54MOL   H22236368   2.184   6.346   6.820 -0.5818 -0.6026 -0.7011
   54MOL   H22336369   2.220   6.437   6.682 -1.1345  0.2339 -1.7601
   54MOL   H22436370   2.394   6.205   6.783  2.3129 -0.0867 -0.8461
   54MOL   H22536371   2.413   6.268   6.630  0.2159 -3.0049 -0.0487
   54MOL   H22636372   2.463   6.413   6.892  1.0618 -2.2200 -0.4914
   54MOL   H22736373   2.430   6.509   6.744 -0.5710 -0.0589  0.6402
   54MOL   H22836374   2.623   6.408   6.638  1.0631 -1.4830  0.7014
   54MOL   H22936375   2.642   6.283   6.762 -1.7387  0.1591 -0.5729
   54MOL   H23036376   2.649   6.583   6.810  0.3625  0.8259 -0.2872
   54MOL   H23136377   2.706   6.478   6.926 -1.9440  0.1597 -0.3243
   54MOL   H23236378   2.834   6.505   6.645 -0.5112 -3.3906 -0.0582
   54MOL   H23336379   2.898   6.402   6.776 -1.5006 -0.7388  3.0545
   54MOL   H23436380   3.015   6.634   6.731  1.7193  0.5032  0.4467
   54MOL   H23536381   2.878   6.704   6.805 -1.1273 -0.9136  2.1149
   54MOL   H23636382   3.069   6.510   6.931  0.1111 -0.7114  1.3104
   54MOL   H23736383   2.920   6.541   7.015  2.1082  0.9066  2.8092
   54MOL   H23836384   3.058   6.702   7.119  0.7966 -0.6592 -0.2979
   54MOL   H23936385   3.002   6.799   6.982 -0.3635  0.4041  2.8185
   54MOL   N24036386   3.280   6.785   7.054 -0.8170 -0.4704  0.4364
   54MOL   C24136387   3.420   6.807   7.021 -1.0537  0.2231  0.3398
   54MOL   C24236388   3.470   6.949   7.002 -0.2906 -0.3707 -0.3135
   54MOL   C24336389   3.371   7.035   6.910 -0.0958  0.1257 -0.6269
   54MOL   C24436390   3.424   7.179   6.890  0.2465  0.0078 -0.5353
   54MOL   C24536391   3.317   7.273   6.835  0.0053  0.5419  0.2368
   54MOL   C24636392   3.359   7.418   6.831  0.3682 -0.3078  0.3097
   54MOL   C24736393   3.471   7.442   6.723  0.1753 -0.1291  0.1354
   54MOL   C24836394   3.443   7.423   6.574  0.8984  0.6512 -0.5556
   54MOL   C24936395   3.563   7.447   6.480  0.3126 -0.0522  0.1591
   54MOL   C25036396   3.515   7.502   6.347  0.8785  0.4324  0.0871
   54MOL   C25136397   3.525   7.656   6.349  0.2955  0.6763 -0.5247
   54MOL   O25236398   3.634   7.707   6.354  0.3352  0.4982  0.5729
   54MOL   H25336399   3.264   6.783   7.153 -0.3394 -1.6280  0.5075
   54MOL   H25436400   3.434   6.745   6.933 -1.2558  0.6134  0.0325
   54MOL   H25536401   3.486   6.770   7.100 -0.0767  0.7742 -0.2006
   54MOL   H25636402   3.566   6.947   6.952  0.4084 -1.0379  1.0455
   54MOL   H25736403   3.495   6.988   7.101  0.0653 -0.7495 -0.2580
   54MOL   H25836404   3.358   6.976   6.820  1.2534 -1.2951  0.0855
   54MOL   H25936405   3.270   7.034   6.950  0.5564  1.5920  1.1393
   54MOL   H26036406   3.503   7.185   6.815 -0.3995 -0.1054 -1.2275
   54MOL   H26136407   3.448   7.217   6.990  0.6036 -1.0167 -0.2195
   54MOL   H26236408   3.233   7.260   6.903  0.5927  1.5059  1.1696
   54MOL   H26336409   3.279   7.239   6.739 -0.4752  1.2649  0.1741
   54MOL   H26436410   3.271   7.482   6.826  0.3524 -0.2564  1.2776
   54MOL   H26536411   3.403   7.449   6.925  0.8766 -0.8696  0.2628
   54MOL   H26636412   3.564   7.390   6.744 -0.9431 -1.6621  1.4573
   54MOL   H26736413   3.491   7.549   6.726 -0.7511  0.0141  2.6387
   54MOL   H26836414   3.405   7.323   6.554 -0.9222  1.0875  0.5153
   54MOL   H26936415   3.369   7.496   6.539  1.1024  0.3825 -1.5528
   54MOL   H27036416   3.614   7.352   6.468 -2.1967 -1.6207  1.4351
   54MOL   H27136417   3.628   7.520   6.527  2.7653 -1.6757 -0.6436
   54MOL   H27236418   3.417   7.469   6.312  0.5721  0.0729  1.2541
   54MOL   H27336419   3.586   7.465   6.274  0.2484  0.3039 -0.4629
   54MOL   N27436420   3.405   0.007   6.338 -0.3791  0.3018  0.0644
   54MOL   C27536421   3.376   0.151   6.342  0.1761 -0.0881 -0.1176
   54MOL   C27636422   3.430   0.226   6.468  0.6918  0.2361 -0.3889
   54MOL   C27736423   3.380   0.165   6.600  0.5099  0.3549  0.8431
   54MOL   C27836424   3.440   0.233   6.721  0.2313 -0.3676 -0.3924
   54MOL   C27936425   3.372   0.176   6.846 -0.1759 -0.1723  0.4635
   54MOL   C28036426   3.418   0.259   6.964  0.5002  0.4311 -0.6683
   54MOL   C28136427   3.318   0.279   7.078 -0.3620  0.1814  0.4883
   54MOL   C28236428   3.314   0.160   7.176 -0.2367 -0.2950  0.6306
   54MOL   C28336429   3.225   0.180   7.302 -0.6775  0.3315  0.1629
   54MOL   C28436430   3.201   0.046   7.374  0.1280  0.0977  0.3460
   54MOL   C28536431   3.088   0.052   7.480  0.0802  0.3999  0.7021
   54MOL   O28636432   2.973   0.018   7.458 -0.3169  0.1649  0.2626
   54MOL   H28736433   3.325   7.661   6.330 -0.7776  0.5335  1.9963
   54MOL   H28836434   3.269   0.174   6.345  0.4039  1.0497 -0.3092
   54MOL   H28936435   3.417   0.186   6.247 -1.8650 -1.5677 -1.5911
   54MOL   H29036436   3.406   0.331   6.451 -1.4608 -0.6328 -3.0921
   54MOL   H29136437   3.538   0.218   6.454  0.5218  0.4449 -1.9336
   54MOL   H29236438   3.271   0.170   6.609  0.4051  1.2650 -0.7410
   54MOL   H29336439   3.391   0.057   6.610 -1.9320 -0.2002 -1.8431
   54MOL   H29436440   3.416   0.338   6.704 -0.1191 -0.6945 -2.0222
   54MOL   H29536441   3.545   0.207   6.733  0.9795  2.3481 -0.9241
   54MOL   H29636442   3.386   0.069   6.861  1.1809  0.1702  1.8918
   54MOL   H29736443   3.267   0.204   6.836  0.1474  0.8063 -0.2668
   54MOL   H29836444   3.514   0.231   7.008 -1.3579  0.4194  3.5828
   54MOL   H29936445   3.431   0.358   6.920 -0.1222  0.6239 -0.4143
   54MOL   H30036446   3.225   0.309   7.029 -0.9719  1.6680  2.4860
   54MOL   H30136447   3.355   0.358   7.144  1.1936  1.2377 -1.5606
   54MOL   H30236448   3.267   0.074   7.127  0.6410 -0.2446 -0.3137
   54MOL   H30336449   3.411   0.115   7.196  0.1162 -0.4969 -1.4026
   54MOL   H30436450   3.132   0.224   7.266 -0.5657 -0.2695 -0.8841
   54MOL   H30536451   3.273   0.248   7.372  0.0996 -0.9996  0.9249
   54MOL   H30636452   3.292   0.015   7.426 -0.9297 -0.5430  1.8491
   54MOL   H30736453   3.179   7.694   7.292 -0.4227 -1.6481  1.8939
   54MOL   N30836454   3.117   0.104   7.599 -0.1701  0.6214  0.2729
   54MOL   C30936455   3.031   0.107   7.713  0.3192 -0.2090 -0.1505
   54MOL   C31036456   3.103   0.120   0.132 -0.0639 -0.4613 -0.3209
   54MOL   C31136457   3.022   0.086   0.255 -0.1042  0.2100 -0.3927
   54MOL   C31236458   2.970   7.657   0.258 -0.1048 -0.3361  0.3208
   54MOL   C31336459   2.893   7.620   0.382  0.2496 -0.2969 -0.0912
   54MOL   C31436460   2.860   7.475   0.403 -0.0735  0.1247 -0.2424
   54MOL   C31536461   2.792   7.453   0.542  0.4904  0.6049 -0.6463
   54MOL   C31636462   2.728   7.308   0.552  0.5977  0.7082 -0.1785
   54MOL   C31736463   2.649   7.283   0.684  0.3462  0.1537 -0.4142
   54MOL   C31836464   2.722   7.308   0.821 -0.4702 -0.2331 -0.3627
   54MOL   C31936465   2.645   7.265   0.942  0.1063  0.1296  0.9872
   54MOL   O32036466   2.547   7.192   0.931 -0.0205 -0.4024  0.1982
   54MOL   H32136467   3.199   0.162   7.609  0.5954 -0.7364  2.1780
   54MOL   H32236468   2.967   0.019   0.001 -1.5204  1.1274  5.4081
   54MOL   H32336469   2.958   0.188   7.701 -1.6555 -1.7595  1.1659
   54MOL   H32436470   3.137   0.223   0.142  3.5185 -1.6079 -0.0756
   54MOL   H32536471   3.187   0.051   0.133 -0.0438 -0.4224  1.4237
   54MOL   H32636472   3.076   0.107   0.347 -0.0683  2.0201 -0.8032
   54MOL   H32736473   2.934   0.151   0.258 -0.1379  0.3018 -2.5091
   54MOL   H32836474   3.052   7.585   0.249 -0.2264 -0.5259  0.6806
   54MOL   H32936475   2.900   7.625   0.180  0.1319  1.2293 -0.5401
   54MOL   H33036476   2.808   7.681   0.413 -0.7582 -1.7812  0.1081
   54MOL   H33136477   2.966   7.649   0.458 -1.2813  1.1269  0.8686
   54MOL   H33236478   2.790   7.450   0.324 -1.1663  2.8862 -0.2151
   54MOL   H33336479   2.938   7.401   0.382 -0.4487 -0.2516 -0.3210
   54MOL   H33436480   2.711   7.526   0.554  1.2768  1.9352 -2.9937
   54MOL   H33536481   2.866   7.471   0.620 -2.2689  1.6231  1.8155
   54MOL   H33636482   2.664   7.297   0.465  0.5216 -0.6040  0.0309
   54MOL   H33736483   2.804   7.231   0.533 -0.2298  0.1146 -1.0989
   54MOL   H33836484   2.610   7.182   0.696  0.5890  0.1432  0.3070
   54MOL   H33936485   2.554   7.336   0.695  1.2180  1.7722 -0.4756
   54MOL   H34036486   2.763   7.408   0.830  0.2500 -0.7985  3.2295
   54MOL   H34136487   2.808   7.242   0.817  0.9068  1.3625  2.0576
   54MOL   N34236488   2.704   7.294   1.053  0.1852 -0.0008 -0.2632
   54MOL   C34336489   2.656   7.256   1.184  0.2835 -0.2248  0.3565
   54MOL   C34436490   2.666   7.370   1.284  0.1916 -0.3151  0.0988
   54MOL   C34536491   2.582   7.484   1.234  0.2068  0.6195  0.1167
   54MOL   C34636492   2.591   7.608   1.318  0.5000 -0.5819  0.6054
   54MOL   C34736493   2.522   0.009   1.249  0.0962  0.4338 -0.2409
   54MOL   C34836494   2.529   0.130   1.323  0.1779 -0.2281 -0.8157
   54MOL   C34936495   2.440   0.139   1.447  0.5510  0.6464 -0.3522
   54MOL   C35036496   2.455   0.261   1.539  0.0685 -0.0119  0.4170
   54MOL   C35136497   2.590   0.327   1.552  0.0363 -0.2415  0.5780
   54MOL   C35236498   2.600   0.458   1.619  0.3573 -0.2770 -0.5399
   54MOL   C35336499   2.731   0.520   1.585  0.5954 -0.1627  0.0783
   54MOL   O35436500   2.835   0.458   1.609 -0.0035  0.7292  0.3254
   54MOL   H35536501   2.794   7.340   1.048  0.2178 -0.1139 -0.7401
   54MOL   H35636502   2.561   7.203   1.192  0.3668 -0.5668 -0.8627
   54MOL   H35736503   2.731   7.180   1.203 -0.3118 -0.3566  2.2576
   54MOL   H35836504   2.767   7.409   1.291  0.0028  0.3925 -0.9717
   54MOL   H35936505   2.636   7.338   1.384 -1.1025  0.2851 -0.0893
   54MOL   H36036506   2.615   7.515   1.135  3.0531  0.2117  0.8846
   54MOL   H36136507   2.479   7.456   1.215  0.7141 -0.8124 -0.5751
   54MOL   H36236508   2.694   7.630   1.346  0.6641 -0.6343  0.0579
   54MOL   H36336509   2.530   7.589   1.406 -2.3094 -1.2502 -1.4368
   54MOL   H36436510   2.419   7.693   1.232 -0.0398  0.0864  1.2293
   54MOL   H36536511   2.564   0.022   1.149 -0.3982  0.3881 -0.4558
   54MOL   H36636512   2.632   0.149   1.350 -0.1680 -0.4478  0.6647
   54MOL   H36736513   2.496   0.213   1.261  0.3182 -0.5381 -1.3158
   54MOL   H36836514   2.463   0.053   1.510 -2.2284  0.6825  0.7588
   54MOL   H36936515   2.334   0.131   1.423  0.6311 -0.3667 -0.3789
   54MOL   H37036516   2.381   0.336   1.513 -0.2540 -0.8098 -1.0296
   54MOL   H37136517   2.416   0.229   1.636 -2.2820 -0.9266 -0.7999
   54MOL   H37236518   2.623   0.333   1.449 -3.2072 -1.4898 -0.6186
   54MOL   H37336519   2.653   0.250   1.596 -1.4233 -1.6128  0.3474
   54MOL   H37436520   2.603   0.436   1.726 -1.2424 -1.3464 -0.6900
   54MOL   H37536521   2.512   0.519   1.595  1.4224  0.7284 -1.9526
   54MOL   N37636522   2.730   0.640   1.531  0.1984  0.1911  0.0285
   54MOL   C37736523   2.844   0.724   1.501 -0.3147  0.1854  0.1151
   54MOL   C37836524   2.845   0.761   1.349  0.4206 -0.6705 -0.0123
   54MOL   C37936525   2.944   0.863   1.310 -0.2888 -0.1599  0.5605
   54MOL   C38036526   2.915   0.922   1.170  0.6325 -0.2551 -0.0759
   54MOL   C38136527   3.018   1.019   1.114 -0.7872 -0.4226  0.1152
   54MOL   C38236528   2.986   1.073   0.967 -0.1676  0.4974  0.5065
   54MOL   C38336529   3.094   1.157   0.912  0.0543  0.0245 -0.3447
   54MOL   C38436530   3.072   1.188   0.764  0.9683  0.5368 -0.1545
   54MOL   C38536531   3.168   1.292   0.706 -0.1475  0.1089 -0.1714
   54MOL   C38636532   3.147   1.432   0.756 -0.2812  0.3957 -0.0352
   54MOL   C38736533   3.274   1.502   0.805 -0.2032  0.0753  0.2361
   54MOL   O38836534   3.387   1.457   0.769  0.5441  1.2677  0.1640
   54MOL   H38936535   2.641   0.687   1.519  0.6449  0.6294 -1.5571
   54MOL   H39036536   2.844   0.810   1.567  0.7585  0.2033  0.0938
   54MOL   H39136537   2.943   0.677   1.502  0.1022  1.0445 -0.4585
   54MOL   H39236538   2.745   0.802   1.335 -1.2362 -3.2900  3.2353
   54MOL   H39336539   2.844   0.679   1.278 -1.0087 -0.7150  0.0538
   54MOL   H39436540   2.970   0.938   1.384 -0.5144  1.8239 -1.3117
   54MOL   H39536541   3.035   0.805   1.295 -0.1389  0.0146  0.7888
   54MOL   H39636542   2.816   0.966   1.164 -0.2075 -2.2008 -1.2653
   54MOL   H39736543   2.903   0.834   1.106  0.7789 -0.6300  0.4147
   54MOL   H39836544   3.111   0.962   1.121 -1.7577 -2.1020 -0.4018
   54MOL   H39936545   3.028   1.099   1.187  1.5661  0.3157 -0.9712
   54MOL   H40036546   2.981   0.988   0.899  2.0414  1.6012 -1.0991
   54MOL   H40136547   2.885   1.113   0.956 -1.5729 -2.9757 -0.0079
   54MOL   H40236548   3.189   1.106   0.928 -0.5965 -0.7112  1.2773
   54MOL   H40336549   3.114   1.247   0.970  1.1332  0.7352 -1.7882
   54MOL   H40436550   3.098   1.102   0.702  0.8221  1.3493 -1.3602
   54MOL   H40536551   2.976   1.227   0.728  1.5314  1.6443 -0.4888
   54MOL   H40636552   3.139   1.286   0.602  0.8104  0.4719 -0.4673
   54MOL   H40736553   3.268   1.252   0.718  0.9342  2.6960 -0.1460
   54MOL   H40836554   3.076   1.438   0.838  1.8400 -2.8686  2.1337
   54MOL   H40936555   3.117   1.493   0.671 -1.3772 -0.0427  0.0382
   54MOL   N41036556   3.261   1.604   0.897 -0.2160  0.1619 -0.4231
   54MOL   C41136557   3.376   1.649   0.972  0.9929  0.4254  0.2239
   54MOL   C41236558   3.360   1.794   1.016  0.1569 -1.0534  0.3711
   54MOL   C41336559   3.334   1.882   0.892  0.2877 -0.0319  0.2021
   54MOL   C41436560   3.330   2.031   0.921 -0.6013 -0.3085  0.3280
   54MOL   C41536561   3.310   2.123   0.794  0.1072  0.4491 -0.2072
   54MOL   C41636562   3.312   2.272   0.836 -0.5732 -0.1855 -0.4426
   54MOL   C41736563   3.448   2.333   0.876  0.4311  0.2018 -0.8516
   54MOL   C41836564   3.543   2.318   0.761  0.3371  0.5383  0.8464
   54MOL   C41936565   3.657   2.419   0.771 -0.3249 -0.1555 -0.3707
   54MOL   C42036566   3.771   2.397   0.666  0.8679 -0.4421  0.0085
   54MOL   C42136567   3.859   2.280   0.703 -0.7223  0.3998 -0.4270
   54MOL   O42236568   3.815   2.167   0.699  0.1523  0.0038 -0.0611
   54MOL   H42336569   3.173   1.629   0.941  0.5157  0.8151  0.7120
   54MOL   H42436570   3.390   1.582   1.057 -0.1985  0.7967  0.7306
   54MOL   H42536571   3.471   1.637   0.921 -0.4168 -3.4121 -1.6857
   54MOL   H42636572   3.443   1.845   1.066 -0.5929  2.4396 -1.7765
   54MOL   H42736573   3.266   1.795   1.070 -0.3586 -1.7800 -0.4989
   54MOL   H42836574   3.415   1.886   0.819 -1.7053  1.4840 -2.0126
   54MOL   H42936575   3.245   1.861   0.832 -0.7388  0.5869  1.4784
   54MOL   H43036576   3.415   2.061   0.981  0.7151 -0.4934 -1.3959
   54MOL   H43136577   3.242   2.040   0.985 -0.7645 -0.0581  0.0689
   54MOL   H43236578   3.208   2.104   0.762  0.2400 -0.0790 -0.3207
   54MOL   H43336579   3.373   2.105   0.707  0.2515 -1.1743  0.2271
   54MOL   H43436580   3.273   2.335   0.756 -0.7860  1.5656  1.0193
   54MOL   H43536581   3.250   2.282   0.925 -0.3237 -1.0053 -0.1718
   54MOL   H43636582   3.493   2.283   0.962  1.2951  1.6149 -0.4629
   54MOL   H43736583   3.428   2.438   0.896 -0.4350 -0.0571 -0.3575
   54MOL   H43836584   3.571   2.213   0.764  1.1329  0.7067 -0.1986
   54MOL   H43936585   3.498   2.323   0.662  0.4922  0.2171  0.7597
   54MOL   H44036586   3.704   2.406   0.868 -2.5739 -0.1614  0.7435
   54MOL   H44136587   3.619   2.521   0.782  0.0085 -0.3353  2.7437
   54MOL   H44236588   3.832   2.485   0.645 -1.0713  0.7375 -0.7765
   54MOL   H44336589   3.737   2.361   0.569  2.9296  1.4006 -1.4204
   54MOL   N44436590   3.982   2.298   0.743 -0.0523  0.0643 -0.2386
   54MOL   C44536591   4.082   2.198   0.777  0.0538 -0.6694  0.3201
   54MOL   C44636592   4.168   2.233   0.895  0.9276 -0.0327  0.3109
   54MOL   C44736593   4.271   2.124   0.924 -0.1174 -0.6048  0.1637
   54MOL   C44836594   4.385   2.161   1.023  0.0589  0.5931 -0.3008
   54MOL   C44936595   4.472   2.038   1.049  0.0287  0.0991  0.6503
   54MOL   C45036596   4.589   2.067   1.149 -0.0730 -0.1414  0.4481
   54MOL   C45136597   4.552   2.116   1.291 -0.1639  0.6796  0.7476
   54MOL   C45236598   4.667   2.101   1.391 -0.1944 -0.0590  0.8039
   54MOL   C45336599   4.621   2.134   1.533  0.4059 -0.2196 -0.3999
   54MOL   C45436600   4.501   2.046   1.603 -0.2693 -0.4364 -0.4504
   54MOL   C45536601   4.531   1.898   1.612  0.5905 -0.8580 -0.0168
   54MOL   O45636602   4.629   1.859   1.672  0.0220 -0.2199 -0.0197
   54MOL   H45736603   4.005   2.396   0.755  0.8394 -0.1803  0.0874
   54MOL   H45836604   4.061   2.091   0.777  2.2699 -1.1500  2.4291
   54MOL   H45936605   4.159   2.209   0.701  0.8412 -0.1711  1.1734
   54MOL   H46036606   4.100   2.249   0.979 -0.4039 -2.6285 -0.2415
   54MOL   H46136607   4.221   2.327   0.878 -0.8091  0.8282 -0.4967
   54MOL   H46236608   4.217   2.039   0.967  1.2960 -2.3822 -1.5003
   54MOL   H46336609   4.309   2.083   0.831 -0.2594  2.8972 -1.5087
   54MOL   H46436610   4.330   2.202   1.108  2.2995 -0.1461  1.5721
   54MOL   H46536611   4.443   2.237   0.970 -0.1058  0.6824 -0.3551
   54MOL   H46636612   4.526   2.009   0.959  1.7224  0.7639  1.4296
   54MOL   H46736613   4.414   1.957   1.094  0.9390 -1.1766 -0.4347
   54MOL   H46836614   4.647   1.975   1.161 -0.9867 -0.4854  2.4931
   54MOL   H46936615   4.656   2.141   1.106  0.7465 -0.5280  1.0423
   54MOL   H47036616   4.470   2.051   1.320 -0.8868  1.4962  0.5328
   54MOL   H47136617   4.506   2.214   1.294 -1.0730  0.3006 -0.3875
   54MOL   H47236618   4.709   2.000   1.393  2.8376  1.1338  0.7589
   54MOL   H47336619   4.756   2.157   1.361 -1.2024  1.5021  0.6756
   54MOL   H47436620   4.599   2.241   1.534  0.6309 -0.1771  0.2930
   54MOL   H47536621   4.700   2.122   1.607  0.0659 -1.3287 -0.2053
   54MOL   H47636622   4.411   2.067   1.545 -0.4186  0.5472  0.1329
   54MOL   H47736623   4.490   2.098   1.698  1.4415  1.2843 -1.1597
   54MOL   N47836624   4.450   1.812   1.556 -0.0421  0.8163 -0.1767
   54MOL   C47936625   4.472   1.667   1.539 -0.7810  0.3299 -0.4912
   54MOL   C48036626   4.505   1.634   1.389 -0.4055 -0.6906 -0.8593
   54MOL   C48136627   4.626   1.712   1.340  0.2050 -0.0452  0.9357
   54MOL   C48236628   4.686   1.652   1.213  0.3880 -0.3116 -0.5076
   54MOL   C48336629   4.817   1.719   1.180 -0.1894 -0.6214  0.0521
   54MOL   C48436630   4.895   1.666   1.057  0.8735 -0.4099  0.4756
   54MOL   C48536631   5.010   1.761   1.014  0.4173  0.4407  0.4105
   54MOL   C48636632   5.074   1.696   0.898  0.2362 -0.4343  0.2225
   54MOL   C48736633   5.187   1.780   0.842  0.2305 -0.1309  0.8706
   54MOL   C48836634   5.257   1.703   0.726 -0.0697  0.4216  0.1129
   54MOL   C48936635   5.388   1.773   0.678  0.4635  0.5436 -0.2090
   54MOL   O49036636   5.377   1.875   0.609 -0.5095 -0.3625  0.4424
   54MOL   H49136637   4.360   1.841   1.520  0.3878  0.4456 -1.5895
   54MOL   H49236638   4.558   1.627   1.593  1.0641 -0.0886 -3.6499
   54MOL   H49336639   4.379   1.621   1.571 -0.3282  0.9218  1.7494
   54MOL   H49436640   4.418   1.641   1.324 -0.8067 -1.0700 -0.3589
   54MOL   H49536641   4.516   1.526   1.389 -2.2918 -0.8858 -0.0775
   54MOL   H49636642   4.592   1.814   1.321  1.0097  0.0382 -0.1166
   54MOL   H49736643   4.705   1.708   1.415  1.3746 -1.0792 -0.3139
   54MOL   H49836644   4.623   1.658   1.124  1.0815 -0.9389 -1.0445
   54MOL   H49936645   4.692   1.543   1.219  1.1811 -0.2635 -0.3664
   54MOL   H50036646   4.884   1.727   1.266  1.0663  1.8134 -1.0858
   54MOL   H50136647   4.802   1.826   1.164 -0.4146 -0.5798  0.5181
   54MOL   H50236648   4.926   1.567   1.090  2.0172 -1.5592 -3.7798
   54MOL   H50336649   4.821   1.664   0.977  1.5936  1.1785 -0.2537
   54MOL   H50436650   5.084   1.777   1.092  1.3110 -1.7804  0.0500
   54MOL   H50536651   4.964   1.853   0.978 -0.7791 -0.1905  0.2877
   54MOL   H50636652   5.122   1.601   0.921  2.5347  0.5111 -0.4575
   54MOL   H50736653   4.997   1.680   0.823  1.1782 -2.3490 -0.3684
   54MOL   H50836654   5.259   1.795   0.923  0.0096 -0.0473  1.0536
   54MOL   H50936655   5.149   1.872   0.800  1.2835  0.2200  0.6681
   54MOL   H51036656   5.191   1.705   0.639 -0.9410 -2.0407  0.6656
   54MOL   H51136657   5.285   1.600   0.747  0.8510  0.9265  1.3758
   54MOL   N51236658   5.503   1.713   0.703  0.3803 -0.0066 -0.2059
   54MOL   C51336659   5.625   1.735   0.628 -0.2612  0.1971 -0.1459
   54MOL   C51436660   5.661   1.623   0.531  0.4772  0.4104 -0.8000
   54MOL   C51536661   5.752   1.667   0.418 -0.3214  0.5260  0.4582
   54MOL   C51636662   5.804   1.537   0.350 -0.3515 -0.8663 -0.2477
   54MOL   C51736663   5.868   1.568   0.219  0.4091  0.0196  0.6428
   54MOL   C51836664   6.009   1.627   0.217  0.3734 -0.0924  0.8393
   54MOL   C51936665   6.113   1.522   0.252  0.0576  0.1994 -0.3770
   54MOL   C52036666   6.259   1.574   0.233  1.0114 -0.4983  0.0242
   54MOL   C52136667   6.296   1.672   0.350  0.3860 -0.5743 -0.6445
   54MOL   C52236668   6.443   1.715   0.339 -0.3028 -0.6066  0.3010
   54MOL   C52336669   6.482   1.824   0.446  0.1999 -0.4749  0.1132
   54MOL   O52436670   6.462   1.807   0.571 -0.0876  0.0200 -0.0737
   54MOL   H52536671   5.485   1.635   0.765 -2.3965  1.7730  1.3441
   54MOL   H52636672   5.626   1.838   0.591 -3.4519  0.3970  0.1645
   54MOL   H52736673   5.701   1.737   0.706 -0.0287 -2.0981 -0.2801
   54MOL   H52836674   5.566   1.582   0.494 -0.9161  1.7287  1.2348
   54MOL   H52936675   5.718   1.550   0.589 -0.4608  0.7844  0.6055
   54MOL   H53036676   5.702   1.736   0.349  0.5017  0.1226 -0.5593
   54MOL   H53136677   5.830   1.726   0.466  0.3413  0.3827 -0.4250
   54MOL   H53236678   5.720   1.474   0.323 -2.2149  0.1962  2.8516
   54MOL   H53336679   5.865   1.484   0.422  2.6319  0.4222 -1.7056
   54MOL   H53436680   5.799   1.633   0.166  0.1168  1.3213  2.5631
   54MOL   H53536681   5.885   1.484   0.152  2.0763  0.1136  0.9404
   54MOL   H53636682   6.041   1.645   0.115 -1.3236  0.2885  0.3690
   54MOL   H53736683   6.013   1.719   0.275 -1.0570 -0.6124  1.7737
   54MOL   H53836684   6.113   1.443   0.177  0.4171  1.0465 -1.2777
   54MOL   H53936685   6.099   1.485   0.354  1.2081  1.2930  0.1895
   54MOL   H54036686   6.340   1.502   0.224  1.2353 -0.3342  0.6878
   54MOL   H54136687   6.269   1.630   0.140  1.3403  0.9159  0.8917
   54MOL   H54236688   6.289   1.618   0.444  2.1192  2.3673  1.2510
   54MOL   H54336689   6.233   1.760   0.364  0.1645 -0.7762 -0.3534
   54MOL   H54436690   6.456   1.754   0.239 -0.9284 -3.6708 -1.0306
   54MOL   H54536691   6.509   1.630   0.358 -0.8320 -0.6010  2.2806
   54MOL   N54636692   6.530   1.941   0.402  0.3382  0.7945 -0.3313
   54MOL   C54736693   6.554   2.061   0.485  0.3113  0.3813 -0.2032
   54MOL   C54836694   6.674   2.143   0.441 -0.1929 -0.2780 -0.1382
   54MOL   C54936695   6.810   2.071   0.459 -0.1528  0.3722 -0.1178
   54MOL   C55036696   6.924   2.139   0.378  0.5819 -0.2164 -0.0138
   54MOL   C55136697   6.973   2.268   0.434  0.9961  0.3169  0.0584
   54MOL   C55236698   7.082   2.331   0.349  0.1824  0.3490  0.1780
   54MOL   C55336699   7.195   2.229   0.314 -1.0350  0.5701 -0.8028
   54MOL   C55436700   7.312   2.289   0.233  0.4821 -0.4807 -0.5948
   54MOL   C55536701   7.400   2.385   0.317 -0.0593 -0.0319  0.7459
   54MOL   C55636702   7.492   2.475   0.227  0.8962  0.6782  0.1549
   54MOL   C55736703   7.598   2.403   0.149 -0.0461 -0.3309 -0.0375
   54MOL   O55836704   7.702   2.369   0.201 -0.3503 -0.6137  0.3075
   54MOL   H55936705   6.565   1.950   0.308 -1.0752  0.7423 -0.8707
   54MOL   H56036706   6.462   2.118   0.494  1.7172  2.5430  1.1653
   54MOL   H56136707   6.579   2.017   0.582  4.0329 -0.0964 -1.2689
   54MOL   H56236708   6.681   2.241   0.488  0.5186  0.1071 -1.0469
   54MOL   H56336709   6.667   2.154   0.333  0.8962  0.7945 -0.1159
   54MOL   H56436710   6.836   2.054   0.563  1.8951  1.6255 -0.3969
   54MOL   H56536711   6.792   1.977   0.408  0.8522 -0.3622  0.8783
   54MOL   H56636712   6.885   2.137   0.276 -1.2634 -2.0373  0.6907
   54MOL   H56736713   7.004   2.066   0.385 -0.7398 -1.6360  0.4723
   54MOL   H56836714   7.015   2.247   0.532  1.3120  0.0002 -0.1466
   54MOL   H56936715   6.895   2.343   0.448 -0.7938 -1.1733 -1.6707
   54MOL   H57036716   7.036   2.384   0.265  0.7924  0.2764 -0.2078
   54MOL   H57136717   7.128   2.408   0.411  0.2059  0.9452 -0.5649
   54MOL   H57236718   7.158   2.145   0.256 -3.1234  0.1010  1.1326
   54MOL   H57336719   7.233   2.176   0.401 -1.1782  0.4197 -0.8337
   54MOL   H57436720   7.365   2.203   0.191  1.7467 -0.8395  1.6805
   54MOL   H57536721   7.266   2.345   0.152 -0.8121  0.4084  0.7309
   54MOL   H57636722   7.465   2.336   0.390  0.0432 -1.1081 -0.0573
   54MOL   H57736723   7.341   2.455   0.376 -3.6565 -3.9166  2.0280
   54MOL   H57836724   7.550   2.542   0.291 -0.5860  0.8937  1.2825
   54MOL   H57936725   7.435   2.534   0.156  0.8059  1.7836  1.1485
   54MOL   N58036726   7.566   2.359   0.030  0.0156  0.0507 -0.1944
   54MOL   C58136727   7.621   2.252   7.667  0.0730  0.0668  0.0920
   54MOL   C58236728   7.544   2.246   7.534  0.3621  0.0741  0.4530
   54MOL   C58336729   7.591   2.138   7.431  0.4709  0.0966 -0.2756
   54MOL   C58436730   7.494   2.118   7.313  0.6839 -0.4643  0.2755
   54MOL   C58536731   7.493   2.228   7.199 -0.7156  0.7387 -0.0967
   54MOL   C58636732   7.411   2.180   7.080  0.2813 -0.4357 -0.5342
   54MOL   C58736733   7.403   2.275   6.958  0.4918 -0.4491 -0.3124
   54MOL   C58836734   7.312   2.223   6.850  0.6694  0.0380  0.8033
   54MOL   C58936735   7.324   2.292   6.712 -0.0373 -0.4047 -0.4967
   54MOL   C59036736   7.298   2.438   6.707 -0.3125  0.1990 -0.0881
   54MOL   C59136737   7.174   2.486   6.633  0.0105  0.0383  0.6563
   54MOL   O59236738   7.152   2.450   6.517  0.4443 -0.5144 -0.0864
   54MOL   H59336739   7.487   2.408   7.707 -0.3392  0.2105  0.7257
   54MOL   H59436740   0.011   2.267   7.651  0.3459 -1.7644  0.0272
   54MOL   H59536741   7.609   2.167   0.019  0.6560 -0.7394 -0.8028
   54MOL   H59636742   7.555   2.344   7.486  0.8924  1.1055  2.5977
   54MOL   H59736743   7.437   2.232   7.552  0.1973  0.7745  0.0479
   54MOL   H59836744   7.692   2.164   7.399  0.2136 -1.7394 -2.7814
   54MOL   H59936745   7.599   2.044   7.486 -2.1800 -0.5261 -0.8918
   54MOL   H60036746   7.398   2.082   7.350  0.5496  0.4203  0.7696
   54MOL   H60136747   7.536   2.026   7.272 -0.5728 -1.3015  0.8385
   54MOL   H60236748   7.595   2.253   7.170 -0.6024 -0.2982 -0.6163
   54MOL   H60336749   7.444   2.319   7.232 -0.7760  0.2474  1.2287
   54MOL   H60436750   7.443   2.078   7.060  1.8888  0.0555 -0.5036
   54MOL   H60536751   7.306   2.168   7.109  1.2317 -1.8389  2.6532
   54MOL   H60636752   7.506   2.295   6.930  0.2865  1.9171  0.5155
   54MOL   H60736753   7.379   2.378   6.982  0.2405  0.3597 -3.7602
   54MOL   H60836754   7.320   2.116   6.835  2.1563  0.3437 -0.7526
   54MOL   H60936755   7.208   2.237   6.880 -0.0120 -0.6103 -1.1780
   54MOL   H61036756   7.262   2.239   6.640  1.4311 -1.1614 -1.2255
   54MOL   H61136757   7.432   2.288   6.697  0.3216  0.3293  1.7289
   54MOL   H61236758   7.392   2.475   6.666 -0.8225 -0.5557 -1.9579
   54MOL   H61336759   7.301   2.474   6.810 -0.1873  2.8346 -0.9752
   54MOL   N61436760   7.093   2.576   6.689 -0.5450 -0.3070  0.4018
   54MOL   C61536761   6.995   2.656   6.622  0.2992 -0.7268  0.1300
   54MOL   C61636762   6.875   2.571   6.566  0.0694  0.7557  0.1821
   54MOL   C61736763   6.757   2.652   6.517 -0.2586 -0.2624  0.1735
   54MOL   C61836764   6.637   2.683   6.618  0.2427 -1.0823  0.1916
   54MOL   C61936765   6.689   2.777   6.736 -0.6315  0.1526 -0.0809
   54MOL   C62036766   6.579   2.837   6.817  0.5441 -0.1664 -0.6304
   54MOL   C62136767   6.643   2.921   6.924  0.1142  0.0380 -0.1205
   54MOL   C62236768   6.548   2.989   7.030 -0.2432  0.6851  0.3352
   54MOL   C62336769   6.624   3.053   7.148 -0.5466  0.5569  0.9661
   54MOL   C62436770   6.538   3.148   7.226 -0.8498 -0.0806 -0.4683
   54MOL   C62536771   6.434   3.086   7.323  0.1771 -0.0264  0.5306
   54MOL   O62636772   6.475   3.017   7.419  0.1364 -0.0127  0.1340
   54MOL   H62736773   7.099   2.605   6.786  0.3259  1.7507 -0.2396
   54MOL   H62836774   7.050   2.715   6.548  1.3793  0.5769  1.9118
   54MOL   H62936775   6.955   2.735   6.685 -0.1601 -0.2338 -0.7760
   54MOL   H63036776   6.851   2.490   6.635 -1.2120 -0.2889 -1.4447
   54MOL   H63136777   6.906   2.523   6.473 -1.7579  0.1809 -0.1408
   54MOL   H63236778   6.796   2.750   6.487  2.3682 -0.6556  2.1518
   54MOL   H63336779   6.723   2.603   6.426  2.5638 -2.0795  0.0201
   54MOL   H63436780   6.588   2.590   6.646 -0.6706 -0.4834  0.6035
   54MOL   H63536781   6.567   2.746   6.564  1.0326 -1.2603 -1.0626
   54MOL   H63636782   6.755   2.853   6.694  0.0887 -0.6118 -0.3426
   54MOL   H63736783   6.764   2.716   6.787  0.1335  1.0847 -0.0536
   54MOL   H63836784   6.521   2.903   6.752 -0.5405 -1.5450 -1.0761
   54MOL   H63936785   6.512   2.767   6.867  1.7061 -0.6000  0.3454
   54MOL   H64036786   6.709   3.002   6.892 -1.8994  1.7286 -0.1074
   54MOL   H64136787   6.703   2.861   6.993  0.7093 -0.3206 -0.9381
   54MOL   H64236788   6.482   3.051   6.969 -0.4596  0.4671  0.3465
   54MOL   H64336789   6.470   2.923   7.067  0.8930 -0.5878  0.5063
   54MOL   H64436790   6.709   3.109   7.110 -0.4320 -0.0844  0.2763
   54MOL   H64536791   6.670   2.977   7.211  0.9312  2.1121  1.7777
   54MOL   H64636792   6.487   3.207   7.149  0.7660 -0.7861 -2.1188
   54MOL   H64736793   6.601   3.215   7.285  0.7170 -1.3602 -0.6427
   54MOL   N64836794   6.307   3.108   7.295 -0.5574 -0.2884 -0.4793
   54MOL   C64936795   6.198   3.038   7.376  0.0057  0.1790 -0.3621
   54MOL   C65036796   6.186   2.887   7.329 -0.1112 -0.3626  1.0134
   54MOL   C65136797   6.156   2.871   7.177  0.5466 -0.2834  0.0824
   54MOL   C65236798   6.134   2.731   7.125  0.0136  0.4938 -0.0794
   54MOL   C65336799   6.125   2.731   6.971 -0.4896 -0.0271 -0.9282
   54MOL   C65436800   6.090   2.589   6.915  0.2397  0.2519 -0.0798
   54MOL   C65536801   6.084   2.581   6.764 -0.3170 -0.7657  0.0462
   54MOL   C65636802   5.968   2.502   6.704  0.3184 -0.1893 -0.0913
   54MOL   C65736803   5.997   2.475   6.555  0.5312  0.3738 -0.0268
   54MOL   C65836804   5.885   2.408   6.478  0.0775 -0.1642  0.1562
   54MOL   C65936805   5.848   2.265   6.530  0.5416 -0.1081  0.2208
   54MOL   O66036806   5.923   2.181   6.587 -0.0417 -0.0572 -0.6459
   54MOL   H66136807   6.284   3.174   7.223  1.0770 -0.2595 -0.9864
   54MOL   H66236808   6.106   3.091   7.350 -0.5933 -0.5057  0.3340
   54MOL   H66336809   6.218   3.037   7.483  2.5164 -0.4492 -0.8245
   54MOL   H66436810   6.097   2.846   7.377 -0.9295  1.0078  0.6907
   54MOL   H66536811   6.279   2.834   7.350 -0.0312 -0.3801  0.6202
   54MOL   H66636812   6.078   2.944   7.152 -2.5626 -2.9722  1.5288
   54MOL   H66736813   6.245   2.898   7.122  0.7250 -1.4872 -0.2250
   54MOL   H66836814   6.047   2.680   7.167 -0.2030 -1.0415 -2.2497
   54MOL   H66936815   6.224   2.680   7.158  1.1951  2.3159 -0.4113
   54MOL   H67036816   6.213   2.777   6.926 -0.9043  0.3749 -1.3353
   54MOL   H67136817   6.044   2.801   6.951 -0.2846  0.3256 -0.5321
   54MOL   H67236818   6.164   2.517   6.950 -1.6483 -1.6194  0.1398
   54MOL   H67336819   5.995   2.559   6.958  0.6648  1.4774  1.7873
   54MOL   H67436820   6.173   2.524   6.738 -0.9891 -2.1182  0.6264
   54MOL   H67536821   6.088   2.676   6.711 -0.0191 -0.4787  0.5695
   54MOL   H67636822   5.957   2.411   6.764 -0.1871 -1.3748 -1.9569
   54MOL   H67736823   5.876   2.560   6.708 -0.4660 -1.4717  0.8549
   54MOL   H67836824   6.088   2.415   6.553  0.2473 -0.1126  1.5035
   54MOL   H67936825   6.011   2.568   6.500 -0.3705 -1.0308 -2.7163
   54MOL   H68036826   5.928   2.384   6.380 -1.6169 -1.7074 -0.2243
   54MOL   H68136827   5.796   2.466   6.456 -0.0655  0.0783  1.3533
   54MOL   H68236828   5.747   2.231   6.510  0.0749  1.9153 -1.0500
   55MOL     N136829   0.459   4.195   4.705 -0.0819  0.2024 -0.3705
   55MOL     C236830   0.573   4.282   4.691  0.5326 -1.1442 -0.7986
   55MOL     C336831   0.599   4.324   4.551  0.6895  0.1262  0.1507
   55MOL     C436832   0.679   4.454   4.528 -0.2314  0.6550 -0.4108
   55MOL     C536833   0.826   4.431   4.573  0.0287  0.4779  0.6361
   55MOL     C636834   0.896   4.569   4.600 -0.9028  0.0830 -0.1875
   55MOL     C736835   1.030   4.559   4.685  0.3019  0.6611  0.1950
   55MOL     C836836   1.139   4.458   4.629  0.3926 -0.7205 -0.0602
   55MOL     C936837   1.277   4.455   4.698  0.3021  0.0554  1.2801
   55MOL    C1036838   1.382   4.355   4.645  0.3613 -0.0736 -0.5151
   55MOL    C1136839   1.408   4.356   4.487 -0.0550 -0.4447  0.6753
   55MOL    C1236840   1.543   4.309   4.440 -0.4239 -0.0431  0.6285
   55MOL    O1336841   1.638   4.374   4.487  0.2643 -0.0619  0.3592
   55MOL    H1436842   0.473   4.129   4.630 -3.7969 -0.5894 -0.4871
   55MOL    H1536843   0.660   4.226   4.726  0.3006  0.0959  1.8456
   55MOL    H1636844   0.560   4.368   4.756 -1.8512 -2.3976  0.4563
   55MOL    H1736845   0.502   4.344   4.505  1.0467  4.3559  1.0273
   55MOL    H1836846   0.641   4.245   4.489  0.8172  0.0767  0.2999
   55MOL    H1936847   0.673   4.496   4.427  1.1982  0.6328 -0.5177
   55MOL    H2036848   0.652   4.520   4.611  3.0872  0.1584  1.1295
   55MOL    H2136849   0.878   4.391   4.487  0.5307 -0.9872  1.6033
   55MOL    H2236850   0.839   4.359   4.654 -0.4036  0.6271  0.8421
   55MOL    H2336851   0.837   4.628   4.671 -0.6967 -0.1931  0.2186
   55MOL    H2436852   0.906   4.619   4.504  0.9884 -1.0270 -0.5938
   55MOL    H2536853   1.068   4.658   4.710  1.8562  0.3333 -0.8112
   55MOL    H2636854   0.996   4.534   4.785 -1.9196  1.8349 -0.2304
   55MOL    H2736855   1.153   4.480   4.523  0.8182  0.3218  0.2091
   55MOL    H2836856   1.093   4.360   4.646 -1.9067  0.5049  1.0860
   55MOL    H2936857   1.323   4.553   4.693  0.7861 -0.2739 -2.5563
   55MOL    H3036858   1.260   4.442   4.805 -0.8798 -0.9325  0.9756
   55MOL    H3136859   1.352   4.254   4.670  0.6007 -0.2727 -1.0105
   55MOL    H3236860   1.470   4.371   4.706  0.4237 -0.1301 -0.5893
   55MOL    H3336861   1.401   4.459   4.450  0.7710 -0.7340 -0.2923
   55MOL    H3436862   1.329   4.299   4.440 -0.5832 -0.0356  1.0539
   55MOL    H3536863   0.382   4.252   4.671 -1.8862 -1.5263  0.6718
   55MOL    N3636864   1.549   4.218   4.346 -0.3552  0.0715  0.0966
   55MOL    C3736865   1.665   4.170   4.273  0.0212 -0.1552 -0.0493
   55MOL    C3836866   1.660   4.210   4.122 -0.6016 -0.5450  0.0337
   55MOL    C3936867   1.547   4.156   4.041  0.2395 -0.8827  0.6143
   55MOL    C4036868   1.535   4.208   3.901  0.2820  0.0369 -0.1531
   55MOL    C4136869   1.445   4.125   3.812 -0.2187 -0.0726 -0.3786
   55MOL    C4236870   1.408   4.187   3.671 -0.1912 -0.0060  0.4280
   55MOL    C4336871   1.323   4.309   3.675 -0.2760  0.3169 -0.5745
   55MOL    C4436872   1.263   4.355   3.540  0.6095  0.1518  0.4551
   55MOL    C4536873   1.148   4.272   3.482 -0.2096  0.1664 -0.3004
   55MOL    C4636874   1.144   4.278   3.328 -0.2331 -0.1692  0.6091
   55MOL    C4736875   1.008   4.249   3.270 -0.2520  0.7231  0.6358
   55MOL    O4836876   0.903   4.288   3.320 -1.0323  0.0261 -0.2762
   55MOL    H4936877   1.461   4.169   4.336  0.5622 -1.3466 -1.4473
   55MOL    H5036878   1.756   4.206   4.322  0.5864 -1.3919 -0.1704
   55MOL    H5136879   1.662   4.062   4.291  2.3120 -0.1159  0.7997
   55MOL    H5236880   1.752   4.177   4.074  0.0716  0.2975  0.7176
   55MOL    H5336881   1.651   4.318   4.116 -2.1360 -0.7968 -3.1055
   55MOL    H5436882   1.556   4.048   4.037  3.0176 -0.6576 -0.4575
   55MOL    H5536883   1.452   4.176   4.090 -0.2553  0.1074 -0.7328
   55MOL    H5636884   1.634   4.219   3.856  1.1892 -2.1514  1.2306
   55MOL    H5736885   1.491   4.308   3.903  1.4909  0.5675  0.3324
   55MOL    H5836886   1.352   4.127   3.869  0.1350  2.6802  0.1826
   55MOL    H5936887   1.487   4.024   3.808  1.5605  0.7002 -1.3607
   55MOL    H6036888   1.499   4.204   3.615 -0.7289  0.6906 -0.2375
   55MOL    H6136889   1.357   4.109   3.615  0.3210 -0.0305 -0.0067
   55MOL    H6236890   1.390   4.385   3.714 -2.5294  1.4455  1.2046
   55MOL    H6336891   1.247   4.294   3.752 -0.3248 -1.3901 -0.9430
   55MOL    H6436892   1.224   4.453   3.566  2.5853  0.9912  0.3723
   55MOL    H6536893   1.347   4.363   3.470 -1.1512  1.7764 -1.5402
   55MOL    H6636894   1.051   4.306   3.520 -0.0340  1.6578 -1.1542
   55MOL    H6736895   1.161   4.167   3.509  0.3333  0.4033  0.3963
   55MOL    H6836896   1.225   4.215   3.292  0.3585  1.3148 -0.7223
   55MOL    H6936897   1.160   4.379   3.291  2.5268 -0.9390 -0.3921
   55MOL    N7036898   1.003   4.174   3.158  1.1765  0.0774  0.1621
   55MOL    C7136899   0.884   4.126   3.089  0.4924 -0.3842  0.4244
   55MOL    C7236900   0.851   3.974   3.099  0.3612 -0.3236 -0.3795
   55MOL    C7336901   0.732   3.927   3.017 -0.2847  0.4301 -0.8654
   55MOL    C7436902   0.712   3.975   2.872  0.0071  0.2424 -0.0188
   55MOL    C7536903   0.837   3.937   2.790  0.1098  0.0520 -0.1424
   55MOL    C7636904   0.840   3.982   2.648 -0.3625  0.0086 -0.0498
   55MOL    C7736905   0.729   3.932   2.553  0.0725 -0.0580 -0.3831
   55MOL    C7836906   0.746   3.967   2.415 -0.1595 -0.4057 -0.4448
   55MOL    C7936907   0.628   3.917   2.336  0.0253 -0.0711  0.3367
   55MOL    C8036908   0.637   3.914   2.177 -0.3922  0.0247 -0.2926
   55MOL    C8136909   0.697   4.046   2.121  0.8845  0.0042  0.6123
   55MOL    O8236910   0.804   4.055   2.066  0.0618  0.4723  0.1622
   55MOL    H8336911   1.094   4.153   3.119  1.1591  1.7256 -0.8073
   55MOL    H8436912   0.795   4.182   3.118  0.6392 -0.3455  0.8032
   55MOL    H8536913   0.903   4.147   2.984 -0.1444 -2.9708 -0.2509
   55MOL    H8636914   0.829   3.950   3.203 -0.1703  0.1765 -0.3769
   55MOL    H8736915   0.939   3.920   3.064  0.3788 -2.2960  2.5528
   55MOL    H8836916   0.739   3.818   3.017 -0.1137  0.4416 -1.0213
   55MOL    H8936917   0.643   3.957   3.072  1.9744  1.1130  2.5843
   55MOL    H9036918   0.694   4.082   2.870  0.0409  0.2405 -0.8638
   55MOL    H9136919   0.621   3.926   2.838 -1.7230  2.4117  1.3759
   55MOL    H9236920   0.856   3.830   2.789 -1.7993 -0.3129 -0.2430
   55MOL    H9336921   0.930   3.977   2.830  0.0601 -0.1126  0.1346
   55MOL    H9436922   0.835   4.090   2.634 -1.1637  0.1731  1.4360
   55MOL    H9536923   0.941   3.979   2.608  0.3593  0.8529  1.6187
   55MOL    H9636924   0.638   3.976   2.594  0.8227 -1.7407  3.3533
   55MOL    H9736925   0.714   3.825   2.569  0.1735 -0.4500 -2.6970
   55MOL    H9836926   0.749   4.075   2.398 -0.9324 -0.3772 -0.4195
   55MOL    H9936927   0.841   3.940   2.370 -0.4277 -1.3263 -0.4679
   55MOL   H10036928   0.535   3.970   2.355 -1.2612 -3.0545  2.7270
   55MOL   H10136929   0.613   3.815   2.371 -0.9334 -0.1345 -0.2373
   55MOL   H10236930   0.542   3.889   2.130 -1.2970  1.0097  0.9707
   55MOL   H10336931   0.710   3.840   2.147 -0.7035 -1.1059  1.6468
   55MOL   N10436932   0.613   4.151   2.132 -0.4945 -0.2909 -0.8008
   55MOL   C10536933   0.634   4.275   2.057  1.3974 -0.0818  0.3902
   55MOL   C10636934   0.541   4.388   2.105 -0.0162 -1.0831 -0.4302
   55MOL   C10736935   0.572   4.515   2.027  0.3629 -0.4199 -0.1222
   55MOL   C10836936   0.466   4.624   2.042  0.1212  0.4536  0.0271
   55MOL   C10936937   0.495   4.742   1.951 -0.4461 -0.4595 -0.0629
   55MOL   C11036938   0.622   4.824   1.977 -0.4940 -0.2352  0.5537
   55MOL   C11136939   0.636   4.895   2.116  0.0436 -0.1010  0.2636
   55MOL   C11236940   0.537   5.016   2.128 -0.0522 -0.1057 -0.2613
   55MOL   C11336941   0.543   5.098   2.262  0.2857 -0.3527 -0.7646
   55MOL   C11436942   0.466   5.231   2.251  0.7216  0.0774  0.0587
   55MOL   C11536943   0.460   5.303   2.389 -0.3141  0.2945 -0.2614
   55MOL   O11636944   0.496   5.239   2.494 -0.7342  0.4273  0.0876
   55MOL   H11736945   0.522   4.141   2.174  0.8137 -0.5170  2.1686
   55MOL   H11836946   0.738   4.304   2.072  1.3650 -0.4583  1.3263
   55MOL   H11936947   0.618   4.250   1.952  1.2064  1.1554  0.1107
   55MOL   H12036948   0.551   4.409   2.212 -1.2935 -0.2960 -0.4556
   55MOL   H12136949   0.438   4.358   2.093 -0.6681  0.4778  0.9777
   55MOL   H12236950   0.659   4.560   2.074 -0.8517 -0.5229  2.2746
   55MOL   H12336951   0.589   4.490   1.922 -0.9946  2.1960 -1.0311
   55MOL   H12436952   0.444   4.650   2.146 -0.2610 -1.2258  0.3840
   55MOL   H12536953   0.371   4.583   2.009  0.7432 -0.3220 -0.8277
   55MOL   H12636954   0.409   4.807   1.965 -0.3786 -0.7886  1.9843
   55MOL   H12736955   0.497   4.706   1.848  1.8964 -3.0658  0.8234
   55MOL   H12836956   0.705   4.756   1.960 -0.7387 -0.0748 -1.3749
   55MOL   H12936957   0.643   4.905   1.906 -0.3094 -0.1497  0.7044
   55MOL   H13036958   0.738   4.929   2.137  0.3479  1.2316 -3.0343
   55MOL   H13136959   0.615   4.828   2.199  0.5257  0.8518  1.1643
   55MOL   H13236960   0.557   5.087   2.048  1.6644 -0.7099 -0.3809
   55MOL   H13336961   0.436   4.974   2.122  0.2665 -1.1512  1.2120
   55MOL   H13436962   0.647   5.114   2.293  0.2457  0.4853 -1.0416
   55MOL   H13536963   0.492   5.032   2.331 -0.8038  0.7891 -0.4562
   55MOL   H13636964   0.376   5.214   2.193  0.4931  1.4371  0.0076
   55MOL   H13736965   0.528   5.298   2.190 -0.3882  0.2947 -0.8367
   55MOL   N13836966   0.410   5.425   2.388 -0.2291 -0.1857  0.4430
   55MOL   C13936967   0.377   5.506   2.505 -0.2750 -0.5638  0.1117
   55MOL   C14036968   0.308   5.632   2.462  0.3081 -0.2661 -0.4007
   55MOL   C14136969   0.292   5.729   2.579  0.0889  0.3813  0.1406
   55MOL   C14236970   0.206   5.852   2.549  0.7439  0.3997  0.4764
   55MOL   C14336971   0.205   5.941   2.672 -0.3697  0.2833  0.1392
   55MOL   C14436972   0.102   6.062   2.652 -0.3873  0.2339 -0.6139
   55MOL   C14536973   0.169   6.187   2.604 -0.2403  0.5892 -0.0710
   55MOL   C14636974   0.059   6.298   2.598 -0.6360 -0.3903  0.0686
   55MOL   C14736975   0.115   6.436   2.555 -0.1075 -0.4991  0.7808
   55MOL   C14836976   0.027   6.561   2.553 -0.5394 -0.0115 -0.0202
   55MOL   C14936977   7.642   6.556   2.438  1.1921  0.6190 -0.0629
   55MOL   O15036978   7.671   6.590   2.324  0.2203 -0.1920  0.0717
   55MOL   H15136979   0.375   5.452   2.297 -2.8198  0.2984  1.5455
   55MOL   H15236980   0.317   5.450   2.578 -2.0567  0.7641 -0.2892
   55MOL   H15336981   0.467   5.534   2.560 -0.0571 -0.3524 -0.3545
   55MOL   H15436982   0.208   5.603   2.431  0.8526 -1.2180 -1.3201
   55MOL   H15536983   0.372   5.684   2.391 -0.1617  0.7231 -0.0959
   55MOL   H15636984   0.254   5.674   2.666 -2.0642 -0.8983 -1.5656
   55MOL   H15736985   0.394   5.754   2.610  0.6039 -0.9758 -0.4381
   55MOL   H15836986   0.107   5.829   2.509  0.4669  2.2459  0.0756
   55MOL   H15936987   0.258   5.911   2.474  2.1757 -0.6423  0.6230
   55MOL   H16036988   0.307   5.970   2.695 -0.1392  0.0053 -0.5243
   55MOL   H16136989   0.175   5.876   2.754 -1.3002  0.7870  0.2136
   55MOL   H16236990   0.016   6.031   2.593 -0.0117 -0.8437 -0.6102
   55MOL   H16336991   0.059   6.074   2.752  0.7875 -1.1887  0.0852
   55MOL   H16436992   0.222   6.171   2.510  1.2442 -1.2165  1.0452
   55MOL   H16536993   0.243   6.213   2.680 -0.1003  0.7085 -0.2503
   55MOL   H16636994   7.682   6.272   2.546 -0.2485  0.5541 -1.0975
   55MOL   H16736995   0.020   6.315   2.698  3.0079  1.2359  1.3017
   55MOL   H16836996   0.169   6.417   2.462 -1.4523  0.8948 -0.3072
   55MOL   H16936997   0.209   6.461   2.604  1.0883 -1.1719 -1.0846
   55MOL   H17036998   0.097   6.644   2.543 -1.1011  0.4332 -0.2817
   55MOL   H17136999   7.688   6.574   2.646  0.1520  2.8100  0.0627
   55MOL   N17237000   7.522   6.512   2.485  0.4398  0.1675  0.2621
   55MOL   C17337001   7.402   6.506   2.404  0.0270 -0.9076  1.2931
   55MOL   C17437002   7.395   6.382   2.307  0.1298 -0.3837 -0.8335
   55MOL   C17537003   7.429   6.245   2.378 -0.1148 -0.0796  0.4087
   55MOL   C17637004   7.369   6.114   2.305 -0.2958 -0.8184 -0.3547
   55MOL   C17737005   7.382   5.994   2.404  0.5179  0.0968  0.4386
   55MOL   C17837006   7.301   5.866   2.367  0.1404 -0.0659  0.4133
   55MOL   C17937007   7.293   5.758   2.476 -0.0807 -0.4184  0.4368
   55MOL   C18037008   7.399   5.658   2.517  0.4301 -0.0004  0.0935
   55MOL   C18137009   7.495   5.718   2.628 -0.4085 -0.2282 -0.0974
   55MOL   C18237010   7.622   5.627   2.670  0.1956 -0.6483  0.7771
   55MOL   C18337011   7.586   5.498   2.757  0.2441 -0.3692 -0.1316
   55MOL   O18437012   7.582   5.512   2.877  0.1334 -0.3303 -0.1958
   55MOL   H18537013   7.516   6.496   2.585 -1.2609  1.2362  0.3480
   55MOL   H18637014   7.314   6.505   2.468 -2.4888 -2.1337 -2.0341
   55MOL   H18737015   7.382   6.601   2.354 -2.5008 -1.7359  0.6676
   55MOL   H18837016   7.463   6.397   2.223  2.2660 -0.4094  0.8573
   55MOL   H18937017   7.298   6.370   2.258 -0.0754 -3.1428  0.1363
   55MOL   H19037018   7.535   6.227   2.398 -0.5526 -0.6390  2.2243
   55MOL   H19137019   7.389   6.255   2.479 -2.2727  3.7304 -0.7275
   55MOL   H19237020   7.433   6.097   2.218  0.5306 -0.9355  0.2644
   55MOL   H19337021   7.267   6.121   2.267 -0.3242  1.2333  0.0480
   55MOL   H19437022   7.354   6.031   2.502 -0.2378 -2.4730  1.2559
   55MOL   H19537023   7.488   5.969   2.407  0.5436  0.0022 -0.8363
   55MOL   H19637024   7.197   5.888   2.345  0.0202 -0.6981  0.3622
   55MOL   H19737025   7.332   5.836   2.267  0.6725 -0.5316  0.7125
   55MOL   H19837026   7.218   5.690   2.437  0.4559 -1.5302  1.3215
   55MOL   H19937027   7.241   5.804   2.560 -2.6352 -4.0380  0.9332
   55MOL   H20037028   7.357   5.566   2.557 -3.1476  2.6520  2.6802
   55MOL   H20137029   7.445   5.624   2.424 -1.8845 -2.4936 -0.1979
   55MOL   H20237030   7.445   5.763   2.714  2.4513  1.2544  0.8727
   55MOL   H20337031   7.536   5.813   2.591 -0.5408 -0.0960  0.0935
   55MOL   H20437032   7.690   5.687   2.731  0.6730 -1.1088  0.6940
   55MOL   H20537033   7.677   5.593   2.583 -0.6526 -0.6928  0.2549
   55MOL   N20637034   7.582   5.382   2.691  0.2335  0.4170 -0.0488
   55MOL   C20737035   7.538   5.257   2.739 -0.1348  0.0603  0.1431
   55MOL   C20837036   7.382   5.268   2.745  0.1860 -0.5812 -0.2605
   55MOL   C20937037   7.322   5.128   2.755 -0.3363 -0.2172  0.2580
   55MOL   C21037038   7.171   5.123   2.734  1.3205  0.1730  0.0257
   55MOL   C21137039   7.101   5.001   2.775  0.4928  0.5999 -0.0877
   55MOL   C21237040   6.953   5.004   2.747 -0.5382 -0.4228 -0.3375
   55MOL   C21337041   6.873   5.104   2.819  0.0625  0.5460 -0.4180
   55MOL   C21437042   6.728   5.106   2.789 -0.6034  0.0830  0.0853
   55MOL   C21537043   6.639   5.206   2.872 -0.2412  0.5845 -0.1943
   55MOL   C21637044   6.488   5.197   2.836 -0.9717 -0.1476  0.5283
   55MOL   C21737045   6.419   5.063   2.859  0.0253 -0.4713  0.2805
   55MOL   O21837046   6.402   5.020   2.971 -0.1623  0.1574  0.1693
   55MOL   H21937047   7.595   5.381   2.591 -0.3055  0.8253 -0.1276
   55MOL   H22037048   7.575   5.236   2.840  0.9078  0.9060 -0.0540
   55MOL   H22137049   7.586   5.187   2.671 -1.8681 -0.2776 -0.7673
   55MOL   H22237050   7.346   5.303   2.648 -3.4207  0.2392  1.2970
   55MOL   H22337051   7.347   5.339   2.820  1.9219 -0.0138  0.0415
   55MOL   H22437052   7.365   5.060   2.681  3.8556  2.8719 -0.3652
   55MOL   H22537053   7.348   5.085   2.852 -1.4057 -0.2329  0.5434
   55MOL   H22637054   7.137   5.144   2.633  1.8610 -0.3573 -0.2688
   55MOL   H22737055   7.138   5.197   2.808 -0.9411  0.8022 -1.5530
   55MOL   H22837056   7.106   4.978   2.881 -0.9546 -3.0096 -0.7098
   55MOL   H22937057   7.153   4.915   2.733  0.3941  0.3343  0.3317
   55MOL   H23037058   6.930   5.040   2.647 -3.6406 -0.3255  0.3621
   55MOL   H23137059   6.920   4.902   2.766  2.0873 -1.0458  1.1257
   55MOL   H23237060   6.913   5.204   2.809 -0.4087  0.9552  1.5900
   55MOL   H23337061   6.893   5.079   2.924 -0.2484  1.4512 -0.1439
   55MOL   H23437062   6.714   5.131   2.684  1.6594  2.8927  0.4133
   55MOL   H23537063   6.680   5.008   2.799 -0.0878 -0.2025 -0.2306
   55MOL   H23637064   6.673   5.309   2.863  0.6087  0.4168  0.9393
   55MOL   H23737065   6.640   5.185   2.979  1.2212  2.2398  0.1347
   55MOL   H23837066   6.478   5.229   2.733  0.7690  1.8644  0.9489
   55MOL   H23937067   6.429   5.270   2.893 -2.6458 -0.9796 -0.1064
   55MOL   N24037068   6.397   4.988   2.748  0.2051 -0.3952 -0.0432
   55MOL   C24137069   6.341   4.855   2.746 -0.3418  0.1309  0.3962
   55MOL   C24237070   6.460   4.752   2.746  0.3031 -0.9230 -0.1715
   55MOL   C24337071   6.421   4.605   2.761 -0.0686  0.5401 -0.0715
   55MOL   C24437072   6.542   4.508   2.762  0.2953  0.2589  0.4042
   55MOL   C24537073   6.502   4.368   2.796 -0.2520  0.0832 -0.1888
   55MOL   C24637074   6.586   4.244   2.764 -0.2444  0.3150 -0.4619
   55MOL   C24737075   6.707   4.229   2.853  0.6999 -0.9544 -0.4538
   55MOL   C24837076   6.798   4.108   2.800 -0.5845  0.5615 -0.0181
   55MOL   C24937077   6.933   4.095   2.868  0.1618  0.0882 -0.0267
   55MOL   C25037078   7.029   3.988   2.811  0.2932  0.1307 -0.3897
   55MOL   C25137079   7.095   4.031   2.677  0.2394  0.3522  0.2801
   55MOL   O25237080   7.154   4.137   2.680 -0.0482  0.2915 -0.7072
   55MOL   H25337081   6.430   5.024   2.659 -0.8700 -1.4977 -0.9124
   55MOL   H25437082   6.274   4.841   2.661 -1.8089  0.1930  1.5198
   55MOL   H25537083   6.281   4.845   2.837  2.3164 -1.8740  2.0045
   55MOL   H25637084   6.527   4.777   2.828 -0.6137 -0.8978  0.5766
   55MOL   H25737085   6.517   4.762   2.654 -1.8706 -0.3437 -1.4911
   55MOL   H25837086   6.384   4.609   2.863  0.0375  1.0995 -0.0532
   55MOL   H25937087   6.350   4.584   2.681 -0.6011  0.8455  0.3182
   55MOL   H26037088   6.629   4.538   2.820  1.9012 -1.2141 -1.1611
   55MOL   H26137089   6.578   4.518   2.659  2.2451 -0.8573  0.9439
   55MOL   H26237090   6.400   4.354   2.760  0.3986 -2.7877 -1.0513
   55MOL   H26337091   6.481   4.373   2.903  1.4983 -0.2149  0.1738
   55MOL   H26437092   6.526   4.154   2.763 -1.5008  1.1484 -1.7167
   55MOL   H26537093   6.620   4.244   2.660 -1.1296  2.5052 -0.7821
   55MOL   H26637094   6.674   4.199   2.952  0.6036 -1.4012 -0.6226
   55MOL   H26737095   6.762   4.323   2.852 -0.8726  0.0917  3.4739
   55MOL   H26837096   6.745   4.013   2.796 -2.4121  1.5024  0.9703
   55MOL   H26937097   6.822   4.112   2.694  2.5726  0.0592  0.6465
   55MOL   H27037098   6.899   4.062   2.966 -1.2311  0.9473 -0.2057
   55MOL   H27137099   6.989   4.185   2.889 -0.7889  0.7208 -0.1409
   55MOL   H27237100   6.976   3.894   2.790  2.0108 -1.6310  2.7558
   55MOL   H27337101   7.105   3.975   2.888  0.6107  1.3159 -0.4982
   55MOL   N27437102   7.066   3.964   2.564  0.3300 -0.5843 -0.0521
   55MOL   C27537103   7.106   3.998   2.431 -0.7955 -0.0576  0.1165
   55MOL   C27637104   6.988   4.026   2.334 -0.2620  0.6034 -0.2537
   55MOL   C27737105   6.918   4.155   2.366  0.2847  0.1481 -0.1892
   55MOL   C27837106   7.008   4.275   2.364 -0.2690 -0.0336  0.8159
   55MOL   C27937107   6.928   4.404   2.358  0.0093 -0.1104  0.3210
   55MOL   C28037108   6.859   4.452   2.489  0.4772  0.2888  0.6641
   55MOL   C28137109   6.877   4.598   2.515 -0.3725  0.0156  0.0276
   55MOL   C28237110   6.826   4.691   2.403  0.4626 -0.0359 -0.4961
   55MOL   C28337111   6.816   4.836   2.462 -0.4068 -0.0906 -0.5623
   55MOL   C28437112   6.753   4.942   2.368  0.1548 -0.1475  0.3618
   55MOL   C28537113   6.850   4.986   2.255 -0.0115 -0.3133 -0.3307
   55MOL   O28637114   6.956   5.043   2.280  0.0576 -0.5212 -0.8072
   55MOL   H28737115   6.994   3.893   2.570  0.5867 -0.8593 -0.1985
   55MOL   H28837116   7.159   3.915   2.385 -1.6221 -1.2745  1.3159
   55MOL   H28937117   7.175   4.082   2.440 -0.3169 -0.2916 -1.2666
   55MOL   H29037118   6.914   3.947   2.346  1.3545 -1.2347 -2.1520
   55MOL   H29137119   7.035   4.032   2.236 -1.8981  0.7794 -1.0497
   55MOL   H29237120   6.843   4.176   2.290 -0.2322  1.2948  0.6198
   55MOL   H29337121   6.865   4.161   2.461 -2.5512 -2.0413 -1.5742
   55MOL   H29437122   7.071   4.261   2.277  0.7410 -1.0726  1.6925
   55MOL   H29537123   7.079   4.280   2.447  2.2629  0.7772 -1.3158
   55MOL   H29637124   6.854   4.402   2.278  3.0365 -1.2511 -2.5603
   55MOL   H29737125   7.001   4.481   2.334 -0.5899  0.1613 -0.6451
   55MOL   H29837126   6.753   4.431   2.475  0.8203  0.6381 -2.8782
   55MOL   H29937127   6.896   4.390   2.571  0.0874 -1.4771 -0.4522
   55MOL   H30037128   6.981   4.617   2.542 -0.3671  1.1467 -0.7263
   55MOL   H30137129   6.832   4.615   2.613  0.8508 -0.1118  0.6190
   55MOL   H30237130   6.896   4.680   2.320 -1.0725 -0.5707 -1.7749
   55MOL   H30337131   6.735   4.658   2.352  2.0896 -1.2353 -2.7106
   55MOL   H30437132   6.914   4.858   2.504 -0.6305 -0.3368  0.0970
   55MOL   H30537133   6.749   4.832   2.548  0.9684 -0.4367  0.5102
   55MOL   H30637134   6.733   5.028   2.433 -0.3336 -0.1759  0.2510
   55MOL   H30737135   6.661   4.904   2.325 -0.2567  0.3471  0.7907
   55MOL   N30837136   6.803   4.963   2.130 -0.1581  0.4326 -0.0560
   55MOL   C30937137   6.877   4.989   2.001  0.3707 -0.0335 -0.7526
   55MOL   C31037138   6.999   4.898   1.975  0.1025 -0.0139  0.2981
   55MOL   C31137139   6.979   4.746   2.013 -0.3523  0.2840  0.2907
   55MOL   C31237140   7.120   4.669   2.034  0.3872 -0.6349  0.0703
   55MOL   C31337141   7.102   4.523   2.023  0.1167  0.0891  0.1998
   55MOL   C31437142   7.231   4.453   2.071  1.0117 -0.2313 -0.1850
   55MOL   C31537143   7.237   4.304   2.039 -0.4494  0.1647 -0.2739
   55MOL   C31637144   7.359   4.233   2.084  0.2007  0.4156  0.5267
   55MOL   C31737145   7.344   4.079   2.068 -0.1726  0.7619 -0.0778
   55MOL   C31837146   7.371   4.014   1.936 -0.5169  0.0822  0.3481
   55MOL   C31937147   7.514   3.983   1.918  0.3563 -0.0167  0.2805
   55MOL   O32037148   7.589   4.080   1.927  0.0598 -0.1162  0.1576
   55MOL   H32137149   6.718   4.909   2.126  0.5728 -0.7709  0.3763
   55MOL   H32237150   6.907   5.093   1.987 -2.4975  1.1509  1.5245
   55MOL   H32337151   6.807   4.979   1.918 -2.4350 -0.7477  1.6523
   55MOL   H32437152   7.094   4.931   2.017 -0.8127  4.0003 -0.5845
   55MOL   H32537153   7.021   4.902   1.868 -2.0476 -1.0121 -0.1979
   55MOL   H32637154   6.915   4.731   2.100 -1.1766 -1.0321 -0.5336
   55MOL   H32737155   6.928   4.700   1.929 -0.1317 -0.8403  0.7587
   55MOL   H32837156   7.156   4.695   2.133 -2.2421  0.5225  0.7801
   55MOL   H32937157   7.206   4.700   1.975 -0.7387 -0.0889 -1.3100
   55MOL   H33037158   7.075   4.500   1.920  0.4202  1.6631 -0.2358
   55MOL   H33137159   7.012   4.497   2.078  0.2672 -3.3313 -1.0014
   55MOL   H33237160   7.325   4.497   2.038  3.0169 -2.0643  2.8296
   55MOL   H33337161   7.236   4.459   2.180  1.4120  0.9360 -0.2644
   55MOL   H33437162   7.219   4.294   1.932  0.3828 -0.9097 -0.3213
   55MOL   H33537163   7.147   4.258   2.080  0.2503 -0.3089  0.7567
   55MOL   H33637164   7.441   4.272   2.024  0.6243 -2.5696 -0.9280
   55MOL   H33737165   7.384   4.244   2.190 -1.4062 -1.0708  1.0891
   55MOL   H33837166   7.239   4.057   2.090  0.3660  1.0483  2.9750
   55MOL   H33937167   7.400   4.025   2.144 -1.4252 -1.4770 -0.6678
   55MOL   H34037168   7.340   4.081   1.856 -2.4046 -0.3938  0.6573
   55MOL   H34137169   7.306   3.927   1.933  0.1936 -0.4502  0.2099
   55MOL   N34237170   7.565   3.864   1.879 -0.2259 -0.0156 -0.2011
   55MOL   C34337171   7.703   3.838   1.852 -0.2702 -0.2370 -0.4937
   55MOL   C34437172   0.034   3.886   1.715  0.5163 -0.3862 -1.1105
   55MOL   C34537173   0.185   3.856   1.696 -0.1718  0.3048  0.0635
   55MOL   C34637174   0.254   3.896   1.570  1.0861 -0.0138  0.1658
   55MOL   C34737175   0.406   3.861   1.557  0.2627 -0.3357 -0.6599
   55MOL   C34837176   0.499   3.903   1.667 -0.1715  0.4344 -0.5971
   55MOL   C34937177   0.642   3.914   1.615  0.0132  0.6923 -0.1784
   55MOL   C35037178   0.739   3.975   1.712  0.5612 -0.4788  0.1918
   55MOL   C35137179   0.879   3.976   1.656 -0.6401 -0.3016 -0.2078
   55MOL   C35237180   0.993   4.016   1.744  0.3864  0.5820 -0.3915
   55MOL   C35337181   1.008   4.169   1.739  0.0261  0.6986  0.5376
   55MOL   O35437182   1.058   4.226   1.646 -0.1732  0.4949  0.3191
   55MOL   H35537183   7.517   3.775   1.884  0.1644 -0.1599  1.0608
   55MOL   H35637184   0.043   3.886   1.933 -2.2832 -0.2114  0.9058
   55MOL   H35737185   0.011   3.733   1.864 -1.9998 -0.7118 -1.0273
   55MOL   H35837186   0.030   3.995   1.713 -1.2643 -0.3916  0.6138
   55MOL   H35937187   7.693   3.835   1.637 -0.3854 -1.4361  0.2218
   55MOL   H36037188   0.235   3.897   1.783  0.5279  0.7098 -0.5182
   55MOL   H36137189   0.204   3.749   1.702 -0.1429  0.2149 -1.3027
   55MOL   H36237190   0.261   4.004   1.562  2.7987 -0.2955 -3.4270
   55MOL   H36337191   0.194   3.864   1.485  0.2153  1.5177  0.1954
   55MOL   H36437192   0.435   3.902   1.460 -0.8430 -0.5700 -1.0897
   55MOL   H36537193   0.424   3.754   1.549  0.0020 -0.4526  0.2786
   55MOL   H36637194   0.463   4.002   1.696 -1.3960  0.4904 -2.2386
   55MOL   H36737195   0.503   3.833   1.751  1.2037  0.6309 -0.4838
   55MOL   H36837196   0.644   3.969   1.521 -0.4649  1.9149  0.5052
   55MOL   H36937197   0.666   3.811   1.593  1.0443  0.8506  0.1598
   55MOL   H37037198   0.711   4.073   1.751  2.3711  0.3228 -0.4684
   55MOL   H37137199   0.728   3.908   1.798 -2.7336 -1.1386 -0.6714
   55MOL   H37237200   0.886   4.026   1.560  1.0715 -0.5097 -0.2039
   55MOL   H37337201   0.891   3.871   1.631 -0.4187 -0.6271  1.2109
   55MOL   H37437202   1.086   3.969   1.712  0.7311  1.4628 -0.7311
   55MOL   H37537203   0.975   3.987   1.847  3.3592 -3.4859 -0.9113
   55MOL   N37637204   0.954   4.233   1.844 -0.1648 -0.0124  0.0340
   55MOL   C37737205   0.960   4.375   1.861 -0.1222 -0.7165 -0.6710
   55MOL   C37837206   1.022   4.414   1.995  0.2428 -0.2321  0.7690
   55MOL   C37937207   1.039   4.566   2.011  0.0264 -0.0117 -0.2471
   55MOL   C38037208   1.071   4.600   2.154 -0.1276  0.7752 -0.3603
   55MOL   C38137209   1.108   4.752   2.173  0.1174  0.3875 -0.2585
   55MOL   C38237210   1.169   4.791   2.308  0.3814 -0.1741 -0.3372
   55MOL   C38337211   1.079   4.765   2.428 -0.1258 -0.1904  0.7443
   55MOL   C38437212   0.944   4.831   2.421  0.0085 -0.3024 -0.2516
   55MOL   C38537213   0.868   4.830   2.552  0.2212 -0.1764 -0.4206
   55MOL   C38637214   0.739   4.922   2.537 -0.2703  0.2817 -0.0664
   55MOL   C38737215   0.658   4.917   2.667  0.2948  0.2452 -0.3023
   55MOL   O38837216   0.676   4.833   2.755 -0.2828 -0.2367  0.5422
   55MOL   H38937217   0.917   4.179   1.920  1.2360 -1.4318 -0.2859
   55MOL   H39037218   1.008   4.421   1.774  1.0320  1.8775  1.2683
   55MOL   H39137219   0.863   4.424   1.870  0.2386 -0.2237  0.6280
   55MOL   H39237220   1.120   4.368   2.003  1.1916  1.1727 -2.0894
   55MOL   H39337221   0.958   4.371   2.073 -3.9081 -0.0036 -2.3192
   55MOL   H39437222   1.124   4.598   1.950  1.5407 -1.5603  0.9949
   55MOL   H39537223   0.956   4.625   1.972  0.2929 -0.0327 -0.8584
   55MOL   H39637224   1.163   4.550   2.184 -0.9521  0.4324  1.7066
   55MOL   H39737225   1.001   4.555   2.224  2.8917 -2.6594  0.5893
   55MOL   H39837226   1.021   4.814   2.150 -0.2709  0.5440  1.6033
   55MOL   H39937227   1.189   4.776   2.104  1.5267 -0.9475  0.8798
   55MOL   H40037228   1.264   4.741   2.324 -0.2419 -0.8655  1.3287
   55MOL   H40137229   1.194   4.897   2.304 -0.2094  0.0199  0.9802
   55MOL   H40237230   1.133   4.789   2.520  1.6125  0.2490 -0.3681
   55MOL   H40337231   1.063   4.660   2.451 -2.8844  0.3562  1.4700
   55MOL   H40437232   0.956   4.931   2.381  1.8047  0.5620  2.3241
   55MOL   H40537233   0.878   4.799   2.340  0.4093  0.3150 -0.8245
   55MOL   H40637234   0.935   4.878   2.623 -0.9439  0.8240  0.0062
   55MOL   H40737235   0.849   4.725   2.575 -1.4270  0.8398  3.2524
   55MOL   H40837236   0.666   4.877   2.470 -1.1675 -1.4357  2.0029
   55MOL   H40937237   0.768   5.022   2.504 -0.7767  0.6906  0.6984
   55MOL   N41037238   0.567   5.014   2.683 -0.2562  0.7949 -0.1787
   55MOL   C41137239   0.489   5.042   2.799  0.5799 -0.3235  0.4374
   55MOL   C41237240   0.397   5.168   2.788  0.7947  0.2984 -0.4601
   55MOL   C41337241   0.289   5.183   2.895 -0.5549  1.1000  0.7017
   55MOL   C41437242   0.215   5.316   2.896  0.5659 -0.0778  0.1418
   55MOL   C41537243   0.160   5.351   3.031  0.4662  0.1811 -0.1317
   55MOL   C41637244   0.051   5.257   3.076  0.1249 -0.4070  0.4753
   55MOL   C41737245   0.005   5.280   3.220  0.1932  0.2029 -0.3387
   55MOL   C41837246   7.625   5.169   3.272 -0.1474  0.0085  0.2854
   55MOL   C41937247   7.572   5.199   3.408 -0.0645 -0.2861 -0.2733
   55MOL   C42037248   7.451   5.101   3.430 -0.6515  0.4848 -0.4975
   55MOL   C42137249   7.373   5.114   3.562  0.4069  0.7126  0.6912
   55MOL   O42237250   7.402   5.197   3.651 -0.0315 -0.4560 -0.2089
   55MOL   H42337251   0.564   5.083   2.610 -1.5155  0.8566 -0.0918
   55MOL   H42437252   0.421   4.957   2.796  1.0992 -0.7167 -3.7249
   55MOL   H42537253   0.552   5.039   2.887  0.7533  0.6697  0.3553
   55MOL   H42637254   0.351   5.158   2.689  2.0404  1.3552 -1.1680
   55MOL   H42737255   0.449   5.264   2.783 -0.6630  1.1110 -0.3115
   55MOL   H42837256   0.222   5.097   2.895  0.5824  0.2053  0.4076
   55MOL   H42937257   0.346   5.171   2.987 -1.3397 -2.0820  0.8253
   55MOL   H43037258   0.142   5.315   2.815 -0.8118  3.5994  1.2425
   55MOL   H43137259   0.282   5.399   2.872  1.3230 -0.8583 -0.4978
   55MOL   H43237260   0.109   5.447   3.031  1.3823  0.6605 -0.5992
   55MOL   H43337261   0.238   5.350   3.107  0.8464  4.0274 -0.3984
   55MOL   H43437262   7.680   5.270   3.011  1.1211 -1.4046 -1.0822
   55MOL   H43537263   0.092   5.157   3.064  1.5854 -0.0059  1.9015
   55MOL   H43637264   7.654   5.366   3.221 -1.3335 -0.9734  0.6731
   55MOL   H43737265   0.080   5.303   3.295  0.0270  1.1687 -0.4511
   55MOL   H43837266   7.546   5.159   3.198  0.3499 -1.8765 -0.0200
   55MOL   H43937267   7.689   5.081   3.266  0.0532  0.2629 -1.6800
   55MOL   H44037268   7.540   5.302   3.420  0.2991 -0.1060 -0.8493
   55MOL   H44137269   7.654   5.192   3.479 -1.4980 -2.0623  1.2543
   55MOL   H44237270   7.487   5.000   3.449 -0.2051  1.3789  3.9580
   55MOL   H44337271   7.384   5.102   3.344  0.3588 -0.3601 -1.2968
   55MOL   N44437272   7.268   5.030   3.567 -0.2417  0.0385  0.3962
   55MOL   C44537273   7.186   5.009   3.686  0.2542  0.3796  0.0525
   55MOL   C44637274   7.077   4.909   3.653  0.9383  0.9139  0.2806
   55MOL   C44737275   6.977   4.887   3.770 -0.1868 -0.3143 -0.1183
   55MOL   C44837276   6.876   4.995   3.811  0.3742  0.6644  0.3323
   55MOL   C44937277   6.791   5.063   3.705 -0.4864  0.4453 -0.0467
   55MOL   C45037278   6.713   5.179   3.770  0.2903 -0.1962  0.2799
   55MOL   C45137279   6.618   5.244   3.664  0.1859  0.1948  0.3792
   55MOL   C45237280   6.545   5.370   3.716 -0.1184 -0.3763  0.5295
   55MOL   C45337281   6.424   5.412   3.638 -0.9880  0.4741 -0.7648
   55MOL   C45437282   6.361   5.546   3.684 -0.4381 -0.0789 -0.2681
   55MOL   C45537283   6.459   5.662   3.651 -0.4518 -0.7135  0.1934
   55MOL   O45637284   6.437   5.708   3.540  0.2729  0.2730  0.4111
   55MOL   H45737285   7.249   4.977   3.483  0.7251  1.0599 -0.4812
   55MOL   H45837286   7.254   4.982   3.767  0.4969 -1.8954 -0.8625
   55MOL   H45937287   7.139   5.102   3.716 -1.1276 -0.0195 -0.8432
   55MOL   H46037288   7.121   4.820   3.610 -0.3355  1.0626 -1.4032
   55MOL   H46137289   7.011   4.951   3.576 -0.3389 -2.0924 -0.3230
   55MOL   H46237290   6.905   4.811   3.741  0.2237  0.0774 -2.2031
   55MOL   H46337291   7.031   4.857   3.860 -1.1747  0.2295  0.6657
   55MOL   H46437292   6.939   5.077   3.846  0.7528  2.5268 -4.3747
   55MOL   H46537293   6.822   4.960   3.899 -0.1077 -0.7076 -0.4899
   55MOL   H46637294   6.730   4.991   3.651  0.1341 -0.3304  0.2674
   55MOL   H46737295   6.856   5.101   3.626  0.6411  1.8853  1.5202
   55MOL   H46837296   6.656   5.142   3.855  1.4249 -2.5214  0.0914
   55MOL   H46937297   6.782   5.256   3.804 -0.5871  1.5371 -1.7664
   55MOL   H47037298   6.543   5.170   3.635  1.5702 -1.3468  0.6110
   55MOL   H47137299   6.663   5.259   3.566 -1.1037 -0.9782 -0.4147
   55MOL   H47237300   6.505   5.329   3.809 -0.8457 -1.6449 -0.3261
   55MOL   H47337301   6.615   5.451   3.736  0.5143 -0.7707 -0.0698
   55MOL   H47437302   6.354   5.328   3.641 -0.1750 -0.1643  1.2023
   55MOL   H47537303   6.455   5.417   3.534 -0.3644 -0.7339 -0.6440
   55MOL   H47637304   6.342   5.543   3.792 -1.3958 -0.7644 -0.4455
   55MOL   H47737305   6.265   5.558   3.633  0.1869 -0.8139 -1.6405
   55MOL   N47837306   6.546   5.713   3.740 -0.4303 -0.4934 -0.2451
   55MOL   C47937307   6.637   5.821   3.715 -0.5459 -0.7448  0.1331
   55MOL   C48037308   6.671   5.906   3.835  0.8026 -0.2242  0.0403
   55MOL   C48137309   6.752   6.035   3.800  0.5021  0.0267 -0.4127
   55MOL   C48237310   6.769   6.123   3.928  0.0758 -0.3198  0.2126
   55MOL   C48337311   6.861   6.235   3.903 -0.2227 -0.1507 -0.2294
   55MOL   C48437312   6.914   6.306   4.033 -0.0577 -0.6881  1.1035
   55MOL   C48537313   7.020   6.413   3.998  0.0787  0.2584 -0.2817
   55MOL   C48637314   7.075   6.470   4.126 -0.3723  0.4750  0.4543
   55MOL   C48737315   7.123   6.368   4.228  0.1682 -0.3361  0.1667
   55MOL   C48837316   7.222   6.409   4.327  0.4072 -0.0622  0.8930
   55MOL   C48937317   7.153   6.485   4.445  0.1534  0.1160  0.5587
   55MOL   O49037318   7.030   6.482   4.462 -0.5689  0.3888 -0.3599
   55MOL   H49137319   6.531   5.678   3.833 -0.3581 -1.0273 -0.4323
   55MOL   H49237320   6.724   5.785   3.659  0.3450  1.8630 -0.2253
   55MOL   H49337321   6.588   5.881   3.639  0.2954 -2.9504 -2.2336
   55MOL   H49437322   6.742   5.844   3.891  1.1929  0.9598  0.8796
   55MOL   H49537323   6.584   5.941   3.889  1.0998  1.1837 -0.3725
   55MOL   H49637324   6.851   6.006   3.763  0.0772 -0.2835 -1.3334
   55MOL   H49737325   6.694   6.089   3.725  0.8771  0.4830 -0.3774
   55MOL   H49837326   6.805   6.061   4.011  0.8851 -0.2846 -0.1085
   55MOL   H49937327   6.673   6.160   3.963  0.4845  0.3753  0.6060
   55MOL   H50037328   6.809   6.302   3.835 -0.1477  0.5464  0.3946
   55MOL   H50137329   6.955   6.194   3.864  0.3306  1.5368 -0.7157
   55MOL   H50237330   6.831   6.351   4.087 -1.1248 -0.1360 -0.9245
   55MOL   H50337331   6.959   6.227   4.093  0.9791 -0.3562  0.7884
   55MOL   H50437332   6.987   6.500   3.941  0.8710  1.5219  1.1667
   55MOL   H50537333   7.093   6.359   3.938  1.0078  0.3755  0.7300
   55MOL   H50637334   7.147   6.550   4.113  0.0469  0.6019  3.1700
   55MOL   H50737335   6.990   6.516   4.176  1.0909  1.5810  1.9684
   55MOL   H50837336   7.161   6.284   4.169  1.1284 -0.2185  0.6098
   55MOL   H50937337   7.039   6.317   4.276  1.7445 -2.7131  0.5064
   55MOL   H51037338   7.296   6.471   4.278 -1.4069  2.1648  0.8979
   55MOL   H51137339   7.285   6.331   4.370 -0.0149 -0.7007  0.3722
   55MOL   N51237340   7.234   6.560   4.524 -0.0657  0.2172 -0.4062
   55MOL   C51337341   7.195   6.656   4.623 -0.0478  0.1253 -0.2378
   55MOL   C51437342   7.254   6.795   4.589  0.2618  0.1911 -0.1526
   55MOL   C51537343   7.229   6.900   4.702  0.1117  0.1905 -0.0107
   55MOL   C51637344   7.280   7.038   4.659  0.3545 -0.5618  0.1694
   55MOL   C51737345   7.435   7.037   4.629  0.6206 -0.2736 -0.1965
   55MOL   C51837346   7.515   7.149   4.700 -0.6720 -0.0177 -0.1069
   55MOL   C51937347   7.669   7.137   4.685 -0.3536  0.4373  0.4067
   55MOL   C52037348   0.010   6.998   4.690  0.8753  0.8210  0.4643
   55MOL   C52137349   0.163   6.993   4.712  0.3228  0.6950 -0.3278
   55MOL   C52237350   0.262   7.016   4.599  0.2966 -0.0139  0.1546
   55MOL   C52337351   0.247   6.908   4.493  0.2831 -0.1505 -0.3189
   55MOL   O52437352   0.217   6.791   4.519  0.0737  0.2409 -0.0513
   55MOL   H52537353   7.329   6.555   4.491 -0.5864 -0.5137 -1.8573
   55MOL   H52637354   7.089   6.665   4.644  0.5836  2.0126  2.3544
   55MOL   H52737355   7.235   6.629   4.721 -2.2878  1.0841  0.9634
   55MOL   H52837356   7.216   6.839   4.496  0.0672 -0.8605 -0.5754
   55MOL   H52937357   7.361   6.786   4.572 -0.0627 -2.3126 -0.9651
   55MOL   H53037358   7.124   6.908   4.728  0.5021 -0.7353  1.9626
   55MOL   H53137359   7.275   6.861   4.793  2.2810 -0.6380 -1.4221
   55MOL   H53237360   7.253   7.106   4.740  1.0116  1.0292 -0.9311
   55MOL   H53337361   7.217   7.073   4.577 -0.7714 -0.8718  0.8838
   55MOL   H53437362   7.455   7.024   4.523 -1.8513 -2.3878 -0.4753
   55MOL   H53537363   7.473   6.940   4.663  0.1336 -0.3628  0.1005
   55MOL   H53637364   7.495   7.248   4.659 -0.0615  0.7970  1.5157
   55MOL   H53737365   7.490   7.149   4.806 -1.5269 -0.5328 -0.2993
   55MOL   H53837366   7.713   7.190   4.770  0.9731 -0.5702  0.3658
   55MOL   H53937367   7.703   7.192   4.597 -1.5768  0.5846  0.0256
   55MOL   H54037368   7.689   6.943   4.777  0.7287  1.2395  0.6685
   55MOL   H54137369   7.695   6.941   4.602 -0.7842 -0.4708  1.8363
   55MOL   H54237370   0.188   6.893   4.747  2.0610  1.8050  1.6530
   55MOL   H54337371   0.197   7.057   4.794  1.5770 -1.8381  1.1959
   55MOL   H54437372   0.362   7.036   4.637  0.4504 -1.1518  0.3429
   55MOL   H54537373   0.233   7.112   4.555 -0.9212  0.9564  2.9646
   55MOL   N54637374   0.272   6.950   4.366 -0.1686  0.5734  0.4615
   55MOL   C54737375   0.273   6.862   4.246 -0.2066 -0.4235 -0.0147
   55MOL   C54837376   0.141   6.867   4.166  0.2657  0.2371 -0.4535
   55MOL   C54937377   0.013   6.849   4.248 -0.4217  0.3746 -0.5735
   55MOL   C55037378   7.594   6.834   4.174  0.2928 -0.4190 -0.1064
   55MOL   C55137379   7.475   6.828   4.277  0.4955 -0.1387  0.1004
   55MOL   C55237380   7.347   6.794   4.200 -0.0818  0.9173  0.4885
   55MOL   C55337381   7.315   6.878   4.077 -0.6311 -0.7360  0.4813
   55MOL   C55437382   7.166   6.879   4.043 -0.5945  0.2322 -0.8015
   55MOL   C55537383   7.146   6.984   3.934  0.0971 -0.1103 -0.4509
   55MOL   C55637384   7.004   6.994   3.879 -1.0554 -0.1852  0.0333
   55MOL   C55737385   6.974   7.085   3.754  0.4262 -0.1411  0.8707
   55MOL   O55837386   7.066   7.128   3.687  0.0954 -0.3613 -0.4345
   55MOL   H55937387   0.278   7.049   4.347  2.3306  0.3754  0.1130
   55MOL   H56037388   0.355   6.894   4.181  1.4603  1.4424  2.9157
   55MOL   H56137389   0.283   6.755   4.267 -0.0818 -0.1898  1.1085
   55MOL   H56237390   0.133   6.789   4.090  1.9590 -0.7228  0.3331
   55MOL   H56337391   0.131   6.954   4.101 -1.0473  0.2226 -0.2783
   55MOL   H56437392   0.015   6.757   4.305 -1.9232  0.8630  0.3037
   55MOL   H56537393   0.009   6.915   4.334 -1.3033 -0.5284  0.0883
   55MOL   H56637394   7.603   6.747   4.109  0.1206 -0.1568 -0.4836
   55MOL   H56737395   7.595   6.921   4.107  0.8581  0.7876  1.4194
   55MOL   H56837396   7.470   6.928   4.319  4.0644 -1.8842  5.1552
   55MOL   H56937397   7.498   6.762   4.361 -0.7052 -1.6831 -0.7495
   55MOL   H57037398   7.357   6.695   4.157 -1.4813 -0.6221  3.5553
   55MOL   H57137399   7.265   6.793   4.273 -0.1110 -3.6501  0.5173
   55MOL   H57237400   7.375   6.841   3.994  1.8538  1.6655  1.1378
   55MOL   H57337401   7.352   6.978   4.097  1.8794 -1.5835  0.2288
   55MOL   H57437402   7.143   6.776   4.018  0.3297  0.1002 -1.1033
   55MOL   H57537403   7.108   6.914   4.129 -0.5397  1.2279 -1.1642
   55MOL   H57637404   7.224   6.961   3.861  1.9312  0.5302  1.2568
   55MOL   H57737405   7.179   7.082   3.969  0.0391 -0.3592  0.3001
   55MOL   H57837406   6.934   7.017   3.960 -1.2273 -0.4712 -0.0307
   55MOL   H57937407   6.974   6.890   3.864 -0.1282 -1.0168  3.5358
   55MOL   N58037408   6.844   7.109   3.728 -0.4852  0.5096 -0.6549
   55MOL   C58137409   6.773   7.183   3.624 -0.1707  0.2819  0.3415
   55MOL   C58237410   6.773   7.108   3.487  0.4049 -0.5618 -0.2948
   55MOL   C58337411   6.703   6.978   3.503  0.4457  0.0552  0.1884
   55MOL   C58437412   6.697   6.887   3.377  0.3800  0.2494  0.1031
   55MOL   C58537413   6.655   6.747   3.413 -0.7631 -0.2444  0.3208
   55MOL   C58637414   6.702   6.635   3.322  0.2610 -0.8713  0.0500
   55MOL   C58737415   6.637   6.637   3.179  0.0905 -0.1800 -0.3051
   55MOL   C58837416   6.655   6.513   3.104  0.5197  0.6597  0.2433
   55MOL   C58937417   6.573   6.493   2.977  0.3583  0.3512 -0.0034
   55MOL   C59037418   6.627   6.369   2.903 -0.1811  0.4327 -0.2116
   55MOL   C59137419   6.535   6.323   2.792 -0.5032  0.4264 -0.6098
   55MOL   O59237420   6.441   6.243   2.808  0.6831  0.0815 -0.0990
   55MOL   H59337421   6.776   7.062   3.786  2.1353 -1.3501  0.9895
   55MOL   H59437422   6.669   7.193   3.654  0.1275  2.2014  0.8022
   55MOL   H59537423   6.815   7.283   3.613 -1.6073  0.9569  0.8909
   55MOL   H59637424   6.874   7.095   3.449  0.0520 -1.2108 -1.0417
   55MOL   H59737425   6.723   7.157   3.403 -0.5736 -0.1337  0.5353
   55MOL   H59837426   6.746   6.918   3.584  0.5292  0.8675  0.7479
   55MOL   H59937427   6.602   6.996   3.538  0.5873  1.7126 -0.2174
   55MOL   H60037428   6.796   6.884   3.332  0.7438  1.0801  0.8157
   55MOL   H60137429   6.629   6.939   3.309  1.6140 -0.0058 -1.3601
   55MOL   H60237430   6.547   6.737   3.415 -0.8489 -0.5039 -2.8352
   55MOL   H60337431   6.682   6.713   3.513 -1.8108  2.0381  1.3949
   55MOL   H60437432   6.811   6.637   3.312  0.4041  0.4738  1.7279
   55MOL   H60537433   6.667   6.540   3.362  0.2608 -0.9409 -0.1126
   55MOL   H60637434   6.690   6.709   3.116 -0.3269 -0.5109 -1.0410
   55MOL   H60737435   6.535   6.673   3.190  0.7102  0.7904  2.6781
   55MOL   H60837436   6.757   6.490   3.076 -0.2273 -0.8826 -1.3291
   55MOL   H60937437   6.641   6.428   3.170 -0.3282 -0.2062 -1.0366
   55MOL   H61037438   6.581   6.586   2.920 -0.0689  0.4823  0.1506
   55MOL   H61137439   6.472   6.469   3.007  1.2172 -1.4450  1.5367
   55MOL   H61237440   6.635   6.285   2.972 -1.2014  0.9905  0.6134
   55MOL   H61337441   6.726   6.389   2.863 -0.7715 -0.0464 -1.9551
   55MOL   N61437442   6.574   6.358   2.666 -0.1476 -0.0291 -1.0362
   55MOL   C61537443   6.488   6.344   2.551 -0.4263 -0.2433 -0.3970
   55MOL   C61637444   6.404   6.474   2.530 -1.0359 -0.2452 -0.0550
   55MOL   C61737445   6.492   6.601   2.518  0.4872  0.2896 -0.1593
   55MOL   C61837446   6.438   6.714   2.428 -0.1168  0.2814  0.5195
   55MOL   C61937447   6.523   6.838   2.421 -0.0766 -0.3163 -0.3730
   55MOL   C62037448   6.543   6.914   2.561 -0.1713  0.1764  0.9467
   55MOL   C62137449   6.631   7.042   2.556 -0.0964  0.0401  0.6214
   55MOL   C62237450   6.548   7.174   2.559 -0.1635  0.1082 -0.7942
   55MOL   C62337451   6.464   7.207   2.435  0.3737 -0.2626 -0.4052
   55MOL   C62437452   6.412   7.350   2.439  0.2988 -1.5631 -0.2930
   55MOL   C62537453   6.285   7.374   2.530  0.3694  0.9374  0.0946
   55MOL   O62637454   6.286   7.323   2.645  0.1486 -0.1754  0.1765
   55MOL   H62737455   6.652   6.422   2.662 -0.7119  0.6657 -0.9116
   55MOL   H62837456   6.424   6.256   2.560 -0.2996 -0.4530 -1.4490
   55MOL   H62937457   6.548   6.325   2.462 -1.7597  1.0741 -1.5947
   55MOL   H63037458   6.340   6.498   2.615  1.1306 -0.2883  1.6385
   55MOL   H63137459   6.339   6.460   2.444  0.9527  1.5746 -1.8838
   55MOL   H63237460   6.516   6.642   2.616 -2.2986  0.1590  0.6287
   55MOL   H63337461   6.592   6.570   2.490 -0.2016 -3.5193  1.3155
   55MOL   H63437462   6.338   6.730   2.469 -0.4459 -0.6808  0.1112
   55MOL   H63537463   6.425   6.683   2.324  1.4180  0.1928  0.3510
   55MOL   H63637464   6.486   6.909   2.347  0.9635 -0.2024 -0.7958
   55MOL   H63737465   6.621   6.819   2.378 -0.4423 -0.6084 -1.0793
   55MOL   H63837466   6.448   6.926   2.614  0.2527  1.4945  1.4284
   55MOL   H63937467   6.588   6.841   2.628 -1.8286 -1.2289  0.5829
   55MOL   H64037468   6.695   7.061   2.470 -0.2285  0.8465  0.6973
   55MOL   H64137469   6.692   7.040   2.647  0.8438  1.1085  0.0295
   55MOL   H64237470   6.485   7.166   2.647 -0.1559  0.6366 -0.7381
   55MOL   H64337471   6.614   7.257   2.583 -0.0017  0.0606 -1.0708
   55MOL   H64437472   6.381   7.135   2.440  1.7388 -1.9990 -1.9557
   55MOL   H64537473   6.524   7.182   2.348 -2.1851 -0.2795 -2.2494
   55MOL   H64637474   6.382   7.393   2.343  1.5515 -1.1144 -0.4944
   55MOL   H64737475   6.493   7.414   2.477  0.4935 -0.4426 -2.5163
   55MOL   N64837476   6.199   7.465   2.481  0.7246  0.0520  0.4763
   55MOL   C64937477   6.075   7.497   2.540  0.2144 -0.6690  0.0687
   55MOL   C65037478   6.034   7.635   2.496 -0.0906  0.2768  0.6275
   55MOL   C65137479   5.988   0.015   2.609  0.3123 -0.2370 -0.0599
   55MOL   C65237480   5.871   7.688   2.697  0.0806  0.4247 -0.4927
   55MOL   C65337481   5.837   0.072   2.803  0.1685 -0.4957  0.1139
   55MOL   C65437482   5.713   0.014   2.870  0.0602 -0.6354  0.3222
   55MOL   C65537483   5.660   0.089   2.996  0.3303  0.0801 -0.5917
   55MOL   C65637484   5.748   0.088   3.115 -0.5437  0.0289 -0.4556
   55MOL   C65737485   5.710   0.181   3.232  0.3051 -0.3118 -0.1425
   55MOL   C65837486   5.738   0.329   3.201 -0.3211  0.5838 -0.6356
   55MOL   C65937487   5.888   0.377   3.208 -0.2671 -0.2709 -0.5361
   55MOL   O66037488   5.968   0.297   3.246 -0.6509 -0.0544  0.0016
   55MOL   H66137489   6.211   7.500   2.387  0.2342 -2.5268 -0.6204
   55MOL   H66237490   6.102   7.510   2.645 -0.1906 -0.3936  0.1386
   55MOL   H66337491   6.000   7.418   2.534 -1.7894  1.2937 -1.4391
   55MOL   H66437492   5.965   7.624   2.413  0.5539  0.2591  0.0932
   55MOL   H66537493   6.115   7.689   2.448 -0.9261  0.7513 -0.2555
   55MOL   H66637494   6.072   0.013   2.679 -0.3254  0.9356  0.7452
   55MOL   H66737495   5.977   0.115   2.568  1.4684  0.2082  0.7024
   55MOL   H66837496   5.892   7.593   2.747 -0.2975  0.5220 -0.1454
   55MOL   H66937497   5.783   7.669   2.635  0.5168 -2.5661 -0.2845
   55MOL   H67037498   5.816   0.167   2.753 -2.3191 -1.8130 -1.3947
   55MOL   H67137499   5.917   0.091   2.875 -0.2902 -1.0974  0.7948
   55MOL   H67237500   5.621   0.007   2.813 -0.7958 -0.6379  1.6647
   55MOL   H67337501   5.739   7.628   2.898  0.7246 -0.8906 -1.2233
   55MOL   H67437502   5.565   0.040   3.017  0.7687 -1.0951 -1.3047
   55MOL   H67537503   5.629   0.189   2.963  1.6910 -0.1909 -2.8451
   55MOL   H67637504   5.766   7.704   3.154 -2.1476  0.5601  1.7728
   55MOL   H67737505   5.847   0.129   3.093  0.0538 -1.0295  0.1947
   55MOL   H67837506   5.763   0.145   3.320 -1.8811 -0.7929  1.0073
   55MOL   H67937507   5.607   0.165   3.264  0.5367 -1.9284 -0.1401
   55MOL   H68037508   5.667   0.365   3.276 -1.7680 -4.7695  0.8104
   55MOL   H68137509   5.689   0.351   3.106 -1.6443  1.9690  0.3509
   55MOL   H68237510   5.922   0.475   3.176  2.8061 -0.9387  0.5575
   56MOL     N137511   5.124   7.075   6.598 -0.4746  0.8211 -0.9553
   56MOL     C237512   5.187   7.160   6.501  0.4997 -0.6178  0.1194
   56MOL     C337513   5.103   7.149   6.367 -0.7821 -1.1183 -0.2330
   56MOL     C437514   5.152   7.244   6.255 -0.0611  0.5913  0.3921
   56MOL     C537515   5.109   7.213   6.114  0.3249 -0.4544  0.0707
   56MOL     C637516   4.965   7.246   6.068 -0.1347  0.0709  0.2471
   56MOL     C737517   4.946   7.193   5.926  0.7746  0.2049  0.4217
   56MOL     C837518   4.822   7.238   5.848 -0.5924  0.4870  0.5513
   56MOL     C937519   4.774   7.149   5.735  0.5517  0.1116  0.6978
   56MOL    C1037520   4.668   7.218   5.640 -0.9384  0.1768 -0.0823
   56MOL    C1137521   4.628   7.124   5.518  0.0702  0.0872  0.3215
   56MOL    C1237522   4.706   7.148   5.390  0.1338 -0.4138  0.1055
   56MOL    O1337523   4.733   7.256   5.348 -0.0429  0.2848 -0.6747
   56MOL    H1437524   5.039   7.114   6.635  0.4701  1.3964  0.6353
   56MOL    H1537525   5.289   7.134   6.472 -0.4117 -1.7733 -2.2014
   56MOL    H1637526   5.190   7.262   6.537 -0.8057  0.3882 -2.5105
   56MOL    H1737527   4.995   7.163   6.374 -1.0173 -2.9816  0.2404
   56MOL    H1837528   5.104   7.044   6.335  1.7057 -1.5774  1.2394
   56MOL    H1937529   5.128   7.346   6.287  2.3625  1.8620 -1.6200
   56MOL    H2037530   5.260   7.245   6.244  0.0226  1.8145  1.1626
   56MOL    H2137531   5.124   7.105   6.106 -0.6241 -0.4089 -3.3857
   56MOL    H2237532   5.181   7.254   6.043 -0.5412  1.9779  0.5701
   56MOL    H2337533   4.956   7.354   6.079  0.0385 -0.0218  1.4151
   56MOL    H2437534   4.889   7.201   6.132 -1.3261  0.9658 -0.5325
   56MOL    H2537535   5.027   7.218   5.859 -0.4245 -1.3330 -1.6602
   56MOL    H2637536   4.924   7.086   5.928  0.4809  0.2007 -2.3179
   56MOL    H2737537   4.830   7.342   5.817  1.0717 -0.5607 -2.9017
   56MOL    H2837538   4.756   7.236   5.934 -0.6229  0.9806  0.5394
   56MOL    H2937539   4.857   7.110   5.676 -0.4510 -0.4740 -0.3424
   56MOL    H3037540   4.728   7.061   5.782  0.4280 -0.6205 -0.7760
   56MOL    H3137541   4.713   7.309   5.600  1.7457 -0.3496  1.6059
   56MOL    H3237542   4.587   7.254   5.703  0.0157 -0.0386  1.2834
   56MOL    H3337543   4.522   7.135   5.492 -0.4136 -0.5421  1.9701
   56MOL    H3437544   4.630   7.017   5.541 -1.4393  0.2827  1.4301
   56MOL    H3537545   5.181   7.085   6.680 -2.2863 -0.5234  0.4987
   56MOL    N3637546   4.731   7.036   5.314 -0.2237 -0.7382  0.0285
   56MOL    C3737547   4.778   7.038   5.173 -0.4119 -0.6836  0.3712
   56MOL    C3837548   4.660   7.047   5.082 -0.1821 -0.2797  0.1418
   56MOL    C3937549   4.703   7.058   4.931 -0.7563  0.0370 -0.4083
   56MOL    C4037550   4.599   7.003   4.832 -0.3438  0.2990  0.1065
   56MOL    C4137551   4.621   7.040   4.684 -0.2807 -0.1915 -0.4858
   56MOL    C4237552   4.511   6.988   4.591  0.4179 -0.0941  0.4073
   56MOL    C4337553   4.502   6.837   4.589 -0.1982 -0.2085  0.3425
   56MOL    C4437554   4.368   6.781   4.555 -0.1033  0.2923  0.2616
   56MOL    C4537555   4.356   6.628   4.542 -0.4378 -0.0511  0.1407
   56MOL    C4637556   4.410   6.551   4.660 -0.0721  0.7547  0.4172
   56MOL    C4737557   4.408   6.397   4.650  0.2203  0.7103  0.2618
   56MOL    O4837558   4.338   6.336   4.564  0.3056  0.0817  0.0815
   56MOL    H4937559   4.695   6.952   5.357 -0.4247 -0.1471  1.0483
   56MOL    H5037560   4.846   7.119   5.150  0.1591 -2.3619 -4.4035
   56MOL    H5137561   4.846   6.956   5.148  1.4894  1.4999 -1.8648
   56MOL    H5237562   4.602   7.137   5.104  2.4178  1.1454  1.4298
   56MOL    H5337563   4.600   6.957   5.097  0.3097 -0.3128  1.9886
   56MOL    H5437564   4.739   7.153   4.893  0.4415 -0.2654 -0.0636
   56MOL    H5537565   4.793   7.000   4.912 -0.7315  0.0348 -0.2894
   56MOL    H5637566   4.503   7.046   4.861 -0.5563 -1.6094  2.4214
   56MOL    H5737567   4.581   6.898   4.857 -1.6835 -0.3452 -3.2436
   56MOL    H5837568   4.713   6.991   4.652 -0.3252 -0.7543  0.2379
   56MOL    H5937569   4.635   7.147   4.669 -0.9565 -0.0363 -0.0306
   56MOL    H6037570   4.423   7.024   4.644 -0.2695  0.5513 -1.1301
   56MOL    H6137571   4.511   7.036   4.493 -1.4310  1.1449  0.9872
   56MOL    H6237572   4.538   6.798   4.685 -0.4983  0.0044  0.5441
   56MOL    H6337573   4.573   6.796   4.517  0.8325  2.9051 -0.4988
   56MOL    H6437574   4.292   6.817   4.623 -0.5032  1.1532 -0.6248
   56MOL    H6537575   4.345   6.832   4.461  1.7846 -0.6662 -0.7707
   56MOL    H6637576   4.423   6.599   4.461 -0.5731  2.0948 -0.7834
   56MOL    H6737577   4.253   6.600   4.519  0.2940 -0.2755 -3.1328
   56MOL    H6837578   4.357   6.580   4.751 -2.0126 -0.2917 -0.3627
   56MOL    H6937579   4.518   6.557   4.674 -0.0797 -1.2227  1.6166
   56MOL    N7037580   4.478   6.332   4.749 -0.2956  0.3415  0.7540
   56MOL    C7137581   4.475   6.187   4.776 -0.1366  0.6608  0.6084
   56MOL    C7237582   4.376   6.146   4.887 -0.6812  0.2759 -0.1124
   56MOL    C7337583   4.353   5.991   4.893 -0.0904 -0.0208 -0.7759
   56MOL    C7437584   4.477   5.916   4.941 -0.2142  0.2011 -0.3717
   56MOL    C7537585   4.464   5.762   4.945  0.7952  0.1297  0.2031
   56MOL    C7637586   4.598   5.686   4.993  0.5573  0.0455 -0.1518
   56MOL    C7737587   4.622   5.695   5.140  0.4446 -0.3247 -0.5673
   56MOL    C7837588   4.746   5.612   5.179  0.4728  0.1111 -0.0080
   56MOL    C7937589   4.796   5.637   5.327  0.2343  0.1388 -0.3601
   56MOL    C8037590   4.918   5.556   5.380 -0.3930 -0.0434 -0.3495
   56MOL    C8137591   5.055   5.579   5.313  0.1038  0.4745 -0.2575
   56MOL    O8237592   5.069   5.678   5.237 -0.4968  0.1547  0.4095
   56MOL    H8337593   4.512   6.390   4.824 -0.6288 -0.1012  1.2450
   56MOL    H8437594   4.451   6.138   4.681 -1.1229  3.1660 -0.4686
   56MOL    H8537595   4.575   6.163   4.812  0.9987  2.6794 -1.1375
   56MOL    H8637596   4.280   6.194   4.873 -0.8574  0.4984  1.6710
   56MOL    H8737597   4.403   6.191   4.983 -0.6097 -2.9162  1.4532
   56MOL    H8837598   4.273   5.981   4.966  0.1817  2.6471 -0.0661
   56MOL    H8937599   4.318   5.961   4.794 -1.8109  1.7805 -0.7428
   56MOL    H9037600   4.490   5.958   5.041 -0.2724  3.0805 -1.5259
   56MOL    H9137601   4.566   5.939   4.882 -2.3616  3.9903 -2.3737
   56MOL    H9237602   4.438   5.730   4.844  0.5027  0.8198  0.0578
   56MOL    H9337603   4.383   5.728   5.010 -0.9722  1.2841 -1.3261
   56MOL    H9437604   4.592   5.581   4.964  0.2451 -0.3309  1.2526
   56MOL    H9537605   4.685   5.725   4.942  0.1405  1.2560  0.0578
   56MOL    H9637606   4.530   5.668   5.192  0.0258  1.9594 -0.0583
   56MOL    H9737607   4.634   5.798   5.174  0.0832 -0.8762  1.3044
   56MOL    H9837608   4.709   5.510   5.169  0.9472  0.0312 -1.0067
   56MOL    H9937609   4.831   5.626   5.113  0.4555 -0.9897 -0.2841
   56MOL   H10037610   4.714   5.621   5.396  0.7562 -2.3148 -0.2725
   56MOL   H10137611   4.834   5.739   5.334 -0.4366  0.2519  1.7590
   56MOL   H10237612   4.894   5.450   5.391 -0.8318  0.1416  0.5593
   56MOL   H10337613   4.929   5.598   5.480  0.7352 -0.5261 -0.2641
   56MOL   N10437614   5.155   5.496   5.339 -0.0610  0.2598  1.0217
   56MOL   C10537615   5.283   5.511   5.271 -0.5614 -0.2641  0.0298
   56MOL   C10637616   5.367   5.400   5.316 -0.1200 -0.6452 -0.3458
   56MOL   C10737617   5.305   5.261   5.300  0.4762  0.8333 -0.5624
   56MOL   C10837618   5.411   5.144   5.296 -0.0467 -0.2175 -0.1039
   56MOL   C10937619   5.356   5.006   5.241 -0.0091 -0.2313 -0.6997
   56MOL   C11037620   5.298   5.002   5.095  0.3145  0.9525  0.8232
   56MOL   C11137621   5.293   4.865   5.029  0.3366 -0.5495 -0.1795
   56MOL   C11237622   5.423   4.801   4.977  0.3796 -0.3030  0.0277
   56MOL   C11337623   5.404   4.657   4.945 -0.4510  0.5328  0.4747
   56MOL   C11437624   5.531   4.567   4.960  0.1767 -0.3424 -0.1957
   56MOL   C11537625   5.658   4.610   4.893 -0.4313 -0.3706  0.5529
   56MOL   O11637626   5.671   4.722   4.847 -0.1236  0.3370  0.2538
   56MOL   H11737627   5.136   5.415   5.397 -0.4567  0.9911  1.9252
   56MOL   H11837628   5.281   5.507   5.162  1.7166 -0.5687 -0.0362
   56MOL   H11937629   5.330   5.606   5.298  0.4620 -1.2519  1.8790
   56MOL   H12037630   5.386   5.415   5.423  1.1268  0.9220 -0.7717
   56MOL   H12137631   5.458   5.403   5.256 -0.5404 -0.9136 -0.9967
   56MOL   H12237632   5.220   5.253   5.367  0.8199 -0.4620 -0.2807
   56MOL   H12337633   5.269   5.256   5.197  0.2677 -2.9122 -0.3545
   56MOL   H12437634   5.461   5.119   5.390  2.0598 -4.0274 -2.1287
   56MOL   H12537635   5.485   5.163   5.220 -1.1729 -2.8923 -1.9633
   56MOL   H12637636   5.284   4.967   5.313  1.5958  2.8038  2.6884
   56MOL   H12737637   5.437   4.934   5.249  0.1264  0.2745  3.0564
   56MOL   H12837638   5.195   5.038   5.091  1.0652  3.2693  1.6610
   56MOL   H12937639   5.344   5.082   5.036 -0.6843  0.1943 -1.0460
   56MOL   H13037640   5.233   4.868   4.938 -0.2430 -0.0126  0.2116
   56MOL   H13137641   5.242   4.801   5.101  0.5899  1.1400  1.5320
   56MOL   H13237642   5.451   4.864   4.892 -0.6337  2.5092  1.7101
   56MOL   H13337643   5.502   4.813   5.051 -0.3609 -2.1701  1.1554
   56MOL   H13437644   5.363   4.651   4.845  0.8853 -1.7091  0.0344
   56MOL   H13537645   5.331   4.612   5.013 -1.1215 -0.7465 -1.0602
   56MOL   H13637646   5.511   4.466   4.927 -1.5306  0.5351 -1.9072
   56MOL   H13737647   5.563   4.553   5.064  0.9773 -0.3273 -0.4362
   56MOL   N13837648   5.762   4.517   4.879  0.3244  0.3410  0.8528
   56MOL   C13937649   5.881   4.520   4.794  0.3641 -0.4979  0.3324
   56MOL   C14037650   5.989   4.598   4.870  0.3232  0.0462  0.0726
   56MOL   C14137651   6.118   4.617   4.779  0.0732 -0.4310 -0.6472
   56MOL   C14237652   6.225   4.704   4.857  0.4846  0.0681  0.2092
   56MOL   C14337653   6.209   4.849   4.825  1.0176  0.1617 -0.0841
   56MOL   C14437654   6.319   4.928   4.906  0.7157  0.1127 -0.1673
   56MOL   C14537655   6.309   5.076   4.878 -0.2020  0.1732 -0.5005
   56MOL   C14637656   6.392   5.169   4.969  0.0774  0.4289  0.2107
   56MOL   C14737657   6.356   5.165   5.118 -0.2586 -0.0843 -0.1935
   56MOL   C14837658   6.210   5.194   5.151 -0.2153  0.5151  0.6657
   56MOL   C14937659   6.185   5.346   5.124 -0.4692  0.2857  0.0169
   56MOL   O15037660   6.213   5.428   5.211 -0.2355 -0.1506 -0.6083
   56MOL   H15137661   5.740   4.432   4.928 -3.2424  1.6671  1.7211
   56MOL   H15237662   5.917   4.419   4.776 -0.3923 -0.3774 -2.0107
   56MOL   H15337663   5.860   4.570   4.699 -2.8070  1.0736  1.7606
   56MOL   H15437664   6.012   4.545   4.963 -2.5680  1.5956  1.7250
   56MOL   H15537665   5.957   4.693   4.910  2.0369  1.1094 -0.9989
   56MOL   H15637666   6.152   4.515   4.760 -0.4253 -0.9825  1.2623
   56MOL   H15737667   6.100   4.669   4.685  0.2943  2.4230  0.8362
   56MOL   H15837668   6.319   4.673   4.811 -0.2280  0.9935 -1.9722
   56MOL   H15937669   6.238   4.686   4.963  3.3093 -1.0508 -0.2694
   56MOL   H16037670   6.116   4.882   4.872  0.3862 -1.7060  0.0027
   56MOL   H16137671   6.198   4.885   4.723 -0.3750  1.0839  0.3745
   56MOL   H16237672   6.302   4.909   5.012 -0.8795 -0.1755 -0.4575
   56MOL   H16337673   6.417   4.890   4.880  0.9571  0.6495 -0.0549
   56MOL   H16437674   6.208   5.118   4.883 -0.6521 -1.0721  1.6830
   56MOL   H16537675   6.344   5.106   4.780 -1.4104  2.2400 -0.3311
   56MOL   H16637676   6.496   5.145   4.947 -0.9110 -1.0383 -3.2444
   56MOL   H16737677   6.395   5.273   4.935  0.0722  0.3712  0.0327
   56MOL   H16837678   6.412   5.243   5.170  0.5650 -1.5170  1.1020
   56MOL   H16937679   6.392   5.068   5.152  0.2970  0.2342  0.1326
   56MOL   H17037680   6.193   5.182   5.258 -2.0910  1.3454  0.4767
   56MOL   H17137681   6.133   5.134   5.102  0.8779 -0.4667  0.1213
   56MOL   N17237682   6.129   5.376   5.009  0.3211  0.3437 -0.0071
   56MOL   C17337683   6.071   5.505   4.980  0.2597  0.2369  1.0307
   56MOL   C17437684   5.968   5.508   4.861 -0.1988  0.4878  0.5777
   56MOL   C17537685   5.879   5.639   4.869  0.2059 -0.1786 -0.2573
   56MOL   C17637686   5.740   5.620   4.940 -0.7171 -0.2104 -0.4586
   56MOL   C17737687   5.649   5.522   4.863  0.1416 -0.0808  0.0387
   56MOL   C17837688   5.520   5.508   4.936  0.0027  0.0501  0.4016
   56MOL   C17937689   5.401   5.456   4.855  0.7147  0.1439  0.7886
   56MOL   C18037690   5.411   5.315   4.810  0.2156 -0.4193  0.2827
   56MOL   C18137691   5.280   5.253   4.770  0.0914  0.8108 -0.3173
   56MOL   C18237692   5.295   5.125   4.687 -0.0955  0.1516  0.6071
   56MOL   C18337693   5.166   5.053   4.653 -0.4665 -0.4536  0.3558
   56MOL   O18437694   5.086   5.025   4.743  0.0897 -0.0410 -0.2989
   56MOL   H18537695   6.104   5.309   4.938 -0.1517  2.4770 -1.9081
   56MOL   H18637696   6.013   5.533   5.068 -3.0527 -3.7381  0.2741
   56MOL   H18737697   6.150   5.576   4.958  0.1203 -0.2952 -1.2360
   56MOL   H18837698   5.911   5.415   4.858  1.3493 -0.4263 -2.0805
   56MOL   H18937699   6.017   5.517   4.764  2.6885 -2.1381  1.7005
   56MOL   H19037700   5.935   5.720   4.915 -1.5912  0.3158  1.1108
   56MOL   H19137701   5.868   5.671   4.766  0.1447 -0.8551 -0.4617
   56MOL   H19237702   5.695   5.719   4.940  0.6835  0.4745  1.8595
   56MOL   H19337703   5.751   5.580   5.041  2.9187  1.1182 -0.2445
   56MOL   H19437704   5.696   5.426   4.841  2.3553  1.1362 -0.7099
   56MOL   H19537705   5.621   5.556   4.763 -1.5963 -0.2813  0.4339
   56MOL   H19637706   5.541   5.474   5.038 -1.2845  1.6482  1.2366
   56MOL   H19737707   5.498   5.612   4.960  2.6275  1.2261 -1.9916
   56MOL   H19837708   5.384   5.503   4.758  0.2555 -0.7355  0.4437
   56MOL   H19937709   5.309   5.468   4.913 -0.0714  2.4959 -0.8638
   56MOL   H20037710   5.476   5.314   4.723 -0.4597 -0.0080 -0.2387
   56MOL   H20137711   5.451   5.239   4.876  0.3801 -2.0549 -1.6713
   56MOL   H20237712   5.204   5.319   4.729 -2.3420 -1.9206 -0.3049
   56MOL   H20337713   5.244   5.224   4.869 -0.1749 -2.3135 -1.2859
   56MOL   H20437714   5.368   5.060   4.734  2.3757  3.9822  2.2953
   56MOL   H20537715   5.336   5.152   4.589  1.1510 -3.1273  0.1463
   56MOL   N20637716   5.138   5.016   4.526  0.0700 -0.0311  0.2559
   56MOL   C20737717   5.020   4.956   4.470  0.7977  1.0724  0.1574
   56MOL   C20837718   5.037   4.804   4.461 -0.7881 -0.0307  0.1493
   56MOL   C20937719   4.923   4.731   4.397 -0.4481 -0.2300 -0.5829
   56MOL   C21037720   4.793   4.752   4.471  0.1433 -0.2961  0.3052
   56MOL   C21137721   4.695   4.635   4.454 -0.6487  0.2158 -0.2261
   56MOL   C21237722   4.580   4.635   4.559  0.2178 -0.3025 -0.3980
   56MOL   C21337723   4.475   4.524   4.524  0.0797 -0.1726  0.2198
   56MOL   C21437724   4.343   4.534   4.604  0.4198  0.2176 -0.1161
   56MOL   C21537725   4.249   4.412   4.594  0.0723  0.7161  0.2392
   56MOL   C21637726   4.151   4.392   4.704 -0.2784 -0.0994  0.5530
   56MOL   C21737727   4.052   4.507   4.708 -0.0062  0.2672 -0.0891
   56MOL   O21837728   3.982   4.541   4.610 -0.4493 -0.1433 -0.0768
   56MOL   H21937729   5.223   5.014   4.471 -0.7309  1.4262 -1.1004
   56MOL   H22037730   5.002   4.987   4.368 -0.3442  0.6571  0.2276
   56MOL   H22137731   4.927   4.980   4.520 -0.1884 -1.2527 -0.4851
   56MOL   H22237732   5.053   4.773   4.564  1.6060 -1.1746 -0.5404
   56MOL   H22337733   5.126   4.794   4.399 -1.6185 -0.3340 -1.0238
   56MOL   H22437734   4.898   4.763   4.296 -4.0081 -0.0439  0.2855
   56MOL   H22537735   4.951   4.625   4.398 -3.8418 -1.1759  0.3626
   56MOL   H22637736   4.744   4.845   4.441  1.2660  0.5316  0.9675
   56MOL   H22737737   4.815   4.757   4.578  2.0765 -0.2472 -0.0786
   56MOL   H22837738   4.752   4.544   4.471 -1.6086 -0.1392  1.2240
   56MOL   H22937739   4.648   4.642   4.356 -1.6380 -0.5022  0.1888
   56MOL   H23037740   4.612   4.628   4.663 -2.6809 -0.0191  0.5459
   56MOL   H23137741   4.529   4.730   4.548  0.7298 -0.1069 -1.1562
   56MOL   H23237742   4.517   4.431   4.563  0.2015 -0.6979 -1.1319
   56MOL   H23337743   4.466   4.527   4.415 -0.3011  0.6142  0.2688
   56MOL   H23437744   4.370   4.560   4.706 -0.2550  1.7896 -0.3119
   56MOL   H23537745   4.288   4.624   4.575  0.2301  0.3684  0.7054
   56MOL   H23637746   4.312   4.324   4.605 -0.0841  0.5386 -0.2635
   56MOL   H23737747   4.207   4.409   4.493 -0.7319  0.7787  0.5666
   56MOL   H23837748   4.203   4.381   4.799  0.7660 -0.9638 -0.1003
   56MOL   H23937749   4.098   4.298   4.686  1.9987 -1.4202  0.5540
   56MOL   N24037750   4.040   4.573   4.826 -0.3935 -0.9373 -0.7680
   56MOL   C24137751   3.959   4.686   4.849  0.6953  0.4724  0.2152
   56MOL   C24237752   4.048   4.800   4.886 -0.7670 -0.1031 -0.1302
   56MOL   C24337753   3.980   4.936   4.897  0.7414 -0.7621  0.3986
   56MOL   C24437754   3.881   4.962   5.007 -0.1059  0.3872  0.0116
   56MOL   C24537755   3.924   4.998   5.152 -0.2597 -0.1270  0.1648
   56MOL   C24637756   3.809   5.055   5.233 -0.0294 -0.4196  0.3714
   56MOL   C24737757   3.683   4.964   5.231  0.0154  0.8366  0.0054
   56MOL   C24837758   3.572   5.002   5.333  0.1990 -0.2389  0.3241
   56MOL   C24937759   3.492   5.126   5.309 -0.4619 -0.4785  0.6556
   56MOL   C25037760   3.420   5.180   5.436  0.4964 -0.3050 -0.5643
   56MOL   C25137761   3.348   5.312   5.410 -0.6586 -0.2983  0.1903
   56MOL   O25237762   3.408   5.411   5.360  0.1846 -0.3684 -0.1393
   56MOL   H25337763   4.090   4.550   4.910 -0.0376 -1.2917 -1.0722
   56MOL   H25437764   3.885   4.659   4.923 -0.3877 -0.2697 -1.1106
   56MOL   H25537765   3.905   4.705   4.756  0.2901 -1.1791  0.1036
   56MOL   H25637766   4.116   4.814   4.803  0.0432  0.7284  0.6630
   56MOL   H25737767   4.092   4.765   4.980  0.8919 -0.7642 -1.1325
   56MOL   H25837768   4.057   5.012   4.888  1.7270 -1.9689 -1.7972
   56MOL   H25937769   3.936   4.932   4.797  1.1122 -1.1524  0.2464
   56MOL   H26037770   3.826   4.868   5.006  1.4511 -0.5533  1.2716
   56MOL   H26137771   3.817   5.045   4.976 -0.0982 -0.3236 -1.9683
   56MOL   H26237772   4.010   5.064   5.142 -1.5468  1.3935 -1.0353
   56MOL   H26337773   3.967   4.915   5.209 -1.4361 -0.0390  1.2204
   56MOL   H26437774   3.842   5.065   5.337  0.7398 -0.0220  0.0894
   56MOL   H26537775   3.781   5.155   5.202 -0.9759 -0.1085  2.1380
   56MOL   H26637776   3.713   4.862   5.256  2.3501  1.7018  0.9086
   56MOL   H26737777   3.635   4.960   5.133 -1.8982  0.6644  0.9206
   56MOL   H26837778   3.506   4.916   5.334  0.6914 -0.6319 -0.7356
   56MOL   H26937779   3.621   5.010   5.430  0.5387  3.6209 -0.0918
   56MOL   H27037780   3.415   5.083   5.246 -1.7940 -0.4905  2.2422
   56MOL   H27137781   3.565   5.196   5.269  1.6359 -2.1259  1.5062
   56MOL   H27237782   3.500   5.207   5.504 -0.9890  1.3126  0.5764
   56MOL   H27337783   3.355   5.105   5.481  1.7690 -0.5667  0.8664
   56MOL   N27437784   3.210   5.316   5.436 -0.1079  0.4034  0.3406
   56MOL   C27537785   3.121   5.430   5.418 -0.3241  0.2581  0.7676
   56MOL   C27637786   2.977   5.388   5.386  0.1090 -0.0293  0.2494
   56MOL   C27737787   2.956   5.273   5.278  0.2725 -1.0689  0.0085
   56MOL   C27837788   2.805   5.240   5.246  0.5396 -0.2563  0.5615
   56MOL   C27937789   2.746   5.128   5.327 -0.1468  0.0010 -0.7262
   56MOL   C28037790   2.607   5.086   5.271 -0.2858  0.0443 -0.3147
   56MOL   C28137791   2.503   5.176   5.341  0.1155  0.0016 -0.5127
   56MOL   C28237792   2.359   5.149   5.304  0.4384  0.2802 -0.2637
   56MOL   C28337793   2.299   5.256   5.204  0.3404  0.2273  0.5288
   56MOL   C28437794   2.196   5.204   5.102 -0.1773  0.4206 -0.6484
   56MOL   C28537795   2.073   5.147   5.173 -0.1505 -0.4744  0.5426
   56MOL   O28637796   2.063   5.127   5.294  0.1097  0.1711 -0.2251
   56MOL   H28737797   3.179   5.227   5.472  1.9024 -0.6975 -0.5587
   56MOL   H28837798   3.161   5.486   5.333  0.5962 -1.2994  0.1573
   56MOL   H28937799   3.126   5.487   5.511 -0.4731  3.1558 -0.9448
   56MOL   H29037800   2.937   5.485   5.354  2.4733  0.8500 -0.1394
   56MOL   H29137801   2.927   5.365   5.480 -1.0750 -2.2569 -0.8876
   56MOL   H29237802   3.009   5.307   5.189  0.4328 -0.4439  0.3325
   56MOL   H29337803   3.008   5.181   5.303  0.6207 -0.4920  1.4700
   56MOL   H29437804   2.805   5.201   5.144 -1.1964 -4.0234  1.8975
   56MOL   H29537805   2.752   5.335   5.252  0.3450 -0.3546  0.3701
   56MOL   H29637806   2.733   5.151   5.433 -1.5164  0.2838 -0.9504
   56MOL   H29737807   2.817   5.046   5.315  0.2269  0.2969 -0.5530
   56MOL   H29837808   2.600   5.105   5.164 -0.4656 -0.9909 -0.4923
   56MOL   H29937809   2.592   4.979   5.288 -0.9280  0.3398  1.0411
   56MOL   H30037810   2.522   5.282   5.329 -0.2214  0.3858  2.0485
   56MOL   H30137811   2.515   5.155   5.448 -1.2187  1.4265 -0.0624
   56MOL   H30237812   2.351   5.054   5.252 -0.4685  0.0223  0.3397
   56MOL   H30337813   2.303   5.136   5.397  1.1903 -1.1948 -0.0075
   56MOL   H30437814   2.384   5.299   5.149  0.9568 -1.1955  0.3491
   56MOL   H30537815   2.252   5.335   5.262 -0.6996  0.8918 -1.1788
   56MOL   H30637816   2.247   5.134   5.036  1.6266  1.7136 -0.6706
   56MOL   H30737817   2.177   5.301   5.055  0.1580  0.1456 -1.3588
   56MOL   N30837818   1.969   5.114   5.092 -0.7042 -0.1986  0.2029
   56MOL   C30937819   1.837   5.068   5.124  0.0874  0.5175 -0.7557
   56MOL   C31037820   1.738   5.177   5.158 -0.2918  0.1530  0.9592
   56MOL   C31137821   1.591   5.146   5.151 -0.1859  0.3569 -0.3775
   56MOL   C31237822   1.516   5.264   5.212 -0.6109  0.7709 -0.0997
   56MOL   C31337823   1.368   5.229   5.248 -1.0685  0.8222 -0.1755
   56MOL   C31437824   1.299   5.332   5.333 -0.3586 -0.1523  0.8511
   56MOL   C31537825   1.277   5.458   5.246 -0.2503  0.1361  0.0359
   56MOL   C31637826   1.213   5.580   5.323 -0.0924 -0.1498 -1.1275
   56MOL   C31737827   1.287   5.637   5.441 -0.1366  0.0709 -0.5234
   56MOL   C31837828   1.419   5.719   5.405 -0.6007  0.2005  0.8499
   56MOL   C31937829   1.550   5.633   5.414  0.4406  0.3833 -0.1664
   56MOL   O32037830   1.575   5.565   5.518  0.5415  0.0389  0.4278
   56MOL   H32137831   1.986   5.143   4.997  0.3965  0.8691  0.7041
   56MOL   H32237832   1.843   4.990   5.200  0.5156  0.2926 -1.0154
   56MOL   H32337833   1.815   5.010   5.034  0.1853  1.0495 -1.1205
   56MOL   H32437834   1.751   5.259   5.087  1.1346 -1.3115 -0.5077
   56MOL   H32537835   1.768   5.222   5.253  1.7038 -0.6976  0.7371
   56MOL   H32637836   1.549   5.125   5.052  0.7031 -2.7380 -0.1541
   56MOL   H32737837   1.568   5.055   5.206 -1.0153  0.1485 -1.0592
   56MOL   H32837838   1.511   5.353   5.149 -2.6896  2.0687  1.8051
   56MOL   H32937839   1.558   5.297   5.307  0.9658  0.0001 -0.5239
   56MOL   H33037840   1.359   5.130   5.294  1.0667  1.2928  1.3411
   56MOL   H33137841   1.315   5.210   5.155  0.1221  2.3181 -1.1803
   56MOL   H33237842   1.202   5.295   5.365 -0.5919 -1.2227 -1.0003
   56MOL   H33337843   1.358   5.357   5.420 -1.8026  2.0527  1.2231
   56MOL   H33437844   1.201   5.436   5.172 -0.2848 -1.6200  0.5663
   56MOL   H33537845   1.363   5.492   5.189  0.2945 -2.1210 -0.5174
   56MOL   H33637846   1.195   5.666   5.257  1.0741  3.1412  2.6373
   56MOL   H33737847   1.111   5.556   5.353 -0.7348  1.4405 -1.9307
   56MOL   H33837848   1.313   5.565   5.518  0.8485  0.2896 -0.6459
   56MOL   H33937849   1.224   5.716   5.483 -0.0375  0.1719 -0.5625
   56MOL   H34037850   1.434   5.798   5.479  1.8311 -0.1487  0.7761
   56MOL   H34137851   1.407   5.759   5.305 -1.3900  0.1605  0.9244
   56MOL   N34237852   1.636   5.639   5.310 -0.4503  0.1727  0.4053
   56MOL   C34337853   1.761   5.570   5.300 -0.4396 -0.3303 -0.3866
   56MOL   C34437854   1.810   5.554   5.155  0.4878 -0.0321 -0.1634
   56MOL   C34537855   1.869   5.679   5.093 -0.7191 -0.0033 -0.7371
   56MOL   C34637856   1.927   5.663   4.950  0.4300 -0.2143  0.0054
   56MOL   C34737857   2.056   5.580   4.926 -0.2356  0.8540 -0.1753
   56MOL   C34837858   2.084   5.555   4.776  0.5750  0.6766  0.4121
   56MOL   C34937859   2.205   5.461   4.759  0.5682  0.5089  0.5308
   56MOL   C35037860   2.210   5.396   4.621  0.3391 -0.0589 -0.1683
   56MOL   C35137861   2.306   5.283   4.594  0.2050 -0.0857 -0.0979
   56MOL   C35237862   2.454   5.330   4.578  0.3967 -0.1565 -0.0699
   56MOL   C35337863   2.536   5.206   4.580 -0.8495 -0.4824 -0.9315
   56MOL   O35437864   2.506   5.103   4.515  0.6091  0.4106 -0.0255
   56MOL   H35537865   1.609   5.695   5.231 -0.4510 -1.2922 -0.6491
   56MOL   H35637866   1.834   5.627   5.356 -0.1288  1.5889 -2.6396
   56MOL   H35737867   1.747   5.466   5.329  0.2037  0.1676  1.7567
   56MOL   H35837868   1.728   5.518   5.092  0.6891  1.8262 -1.5496
   56MOL   H35937869   1.880   5.471   5.159  0.2281 -0.2364  0.1895
   56MOL   H36037870   1.793   5.757   5.084  2.2552  2.8939 -1.5049
   56MOL   H36137871   1.942   5.732   5.153 -0.4464 -0.7687 -0.3879
   56MOL   H36237872   1.925   5.761   4.903 -0.6594 -0.4757 -0.5013
   56MOL   H36337873   1.852   5.612   4.890  0.2417  1.6032 -1.3525
   56MOL   H36437874   2.041   5.485   4.977  0.1621  1.9395  2.0714
   56MOL   H36537875   2.138   5.631   4.976  0.3977 -1.7646  1.5809
   56MOL   H36637876   1.998   5.501   4.735 -0.3896 -0.1217  3.3405
   56MOL   H36737877   2.088   5.647   4.718 -3.0045  0.9742  0.5520
   56MOL   H36837878   2.201   5.375   4.826  0.5443  0.3630  0.3458
   56MOL   H36937879   2.295   5.522   4.766  0.6351  0.7296 -1.8139
   56MOL   H37037880   2.112   5.355   4.595  0.6430 -0.1142 -1.2419
   56MOL   H37137881   2.228   5.477   4.550 -0.8785  2.3456  2.1790
   56MOL   H37237882   2.268   5.234   4.504 -1.2131 -1.9160  1.4730
   56MOL   H37337883   2.292   5.217   4.679  0.1914  0.1921  0.1164
   56MOL   H37437884   2.477   5.393   4.664 -1.9697  2.3194 -1.1644
   56MOL   H37537885   2.480   5.393   4.493  2.0156 -1.4678 -0.5698
   56MOL   N37637886   2.636   5.206   4.669  0.1023 -0.1940  0.4496
   56MOL   C37737887   2.713   5.091   4.688  0.6268 -0.0767  0.8112
   56MOL   C37837888   2.813   5.119   4.805 -0.1075 -0.2695 -0.1686
   56MOL   C37937889   2.908   5.008   4.845  0.1125 -0.0503  0.4558
   56MOL   C38037890   3.002   5.050   4.958 -0.0144 -0.4251 -0.3569
   56MOL   C38137891   3.086   4.932   5.007 -0.1412 -0.7120 -0.0788
   56MOL   C38237892   3.016   4.848   5.119 -0.0750  0.7560  0.1614
   56MOL   C38337893   2.895   4.756   5.074  0.1867  0.0452  0.2858
   56MOL   C38437894   2.854   4.649   5.182  0.4838 -1.0352  0.2511
   56MOL   C38537895   2.720   4.578   5.143 -0.3812 -0.6524 -0.2537
   56MOL   C38637896   2.736   4.469   5.041  0.0927 -0.1110  0.8436
   56MOL   C38737897   2.790   4.342   5.104  0.1291 -0.3764  0.2016
   56MOL   O38837898   2.724   4.280   5.187 -0.3384 -0.3727  0.5729
   56MOL   H38937899   2.655   5.291   4.718 -0.4186 -1.1156  2.2748
   56MOL   H39037900   2.651   5.002   4.699 -0.7028  0.7095 -0.1175
   56MOL   H39137901   2.773   5.089   4.597  0.2768 -0.2735  0.5845
   56MOL   H39237902   2.762   5.157   4.893  0.6006 -0.4313  0.3186
   56MOL   H39337903   2.873   5.207   4.782 -1.4788  0.8579  0.5620
   56MOL   H39437904   2.854   4.917   4.873 -0.0061  0.4269  1.8335
   56MOL   H39537905   2.971   4.982   4.760  1.7619 -2.0850  2.2465
   56MOL   H39637906   2.954   5.093   5.046 -2.5181 -2.7863 -0.4755
   56MOL   H39737907   3.065   5.128   4.914  0.2263  0.4100  1.4473
   56MOL   H39837908   3.174   4.973   5.057  0.8442 -2.8422 -0.0099
   56MOL   H39937909   3.124   4.861   4.933  0.5170 -0.9908  0.5245
   56MOL   H40037910   3.086   4.775   5.159 -0.0396  0.1501 -0.9865
   56MOL   H40137911   2.985   4.907   5.205 -1.1158 -0.8268  0.8907
   56MOL   H40237912   2.923   4.705   4.982  0.9871  0.2097  0.4345
   56MOL   H40337913   2.810   4.818   5.049  0.0110 -0.3359 -0.0662
   56MOL   H40437914   2.930   4.574   5.202  2.0681  0.3192 -0.6155
   56MOL   H40537915   2.832   4.702   5.275 -1.4183  0.6208 -1.1144
   56MOL   H40637916   2.636   4.636   5.104 -0.4790 -0.9124 -0.4307
   56MOL   H40737917   2.680   4.535   5.234  1.3296 -0.2508  0.7132
   56MOL   H40837918   2.795   4.514   4.961 -3.4895  2.9775 -0.1617
   56MOL   H40937919   2.643   4.463   4.985  0.6635  2.3047 -0.4711
   56MOL   N41037920   2.914   4.295   5.071  0.2710 -0.2664 -0.1539
   56MOL   C41137921   2.973   4.182   5.137 -0.1040  0.3005 -0.5376
   56MOL   C41237922   3.016   4.209   5.278  0.6678  0.2994  0.1802
   56MOL   C41337923   3.097   4.097   5.338  0.8156  0.3461  0.1617
   56MOL   C41437924   3.135   4.119   5.490 -0.3149 -0.4650 -0.4947
   56MOL   C41537925   3.225   4.244   5.521  0.0590  1.0792 -0.0091
   56MOL   C41637926   3.229   4.263   5.671  0.0516  0.2011 -0.6962
   56MOL   C41737927   3.339   4.358   5.714 -0.3005 -0.4878  0.8798
   56MOL   C41837928   3.370   4.337   5.868  0.4972  0.0903 -1.1210
   56MOL   C41937929   3.256   4.385   5.960 -0.5464 -0.2066 -0.1256
   56MOL   C42037930   3.232   4.540   5.954  0.1853 -0.1383 -0.3971
   56MOL   C42137931   3.151   4.594   6.069  0.0599  0.9430  0.2772
   56MOL   O42237932   3.194   4.588   6.182  0.0354 -0.0591  0.2498
   56MOL   H42337933   2.964   4.346   4.999  0.9978  0.8278  1.0925
   56MOL   H42437934   2.920   4.088   5.128  2.1409 -1.0026 -0.5453
   56MOL   H42537935   3.067   4.165   5.085 -0.0370  2.8457 -1.3267
   56MOL   H42637936   2.927   4.233   5.336  0.5977  0.4611  0.0070
   56MOL   H42737937   3.078   4.299   5.274 -0.4967  1.1191  0.3497
   56MOL   H42837938   3.025   4.014   5.335  0.0828  0.9223  1.4275
   56MOL   H42937939   3.187   4.085   5.279  0.7045  2.3936 -0.4667
   56MOL   H43037940   3.200   4.039   5.525 -1.4176 -0.7384  0.9692
   56MOL   H43137941   3.047   4.130   5.553  1.0290 -1.3096  1.6087
   56MOL   H43237942   3.186   4.338   5.482  0.6175  1.1857 -0.3101
   56MOL   H43337943   3.330   4.233   5.496  0.3199  1.2990  0.9763
   56MOL   H43437944   3.133   4.300   5.706  0.2414  0.7992 -0.8076
   56MOL   H43537945   3.231   4.169   5.726 -1.9115  1.7898  2.2102
   56MOL   H43637946   3.314   4.461   5.690 -0.4782 -0.3852  1.4832
   56MOL   H43737947   3.433   4.350   5.659 -0.2009 -0.6282  1.0668
   56MOL   H43837948   3.412   4.240   5.890 -2.5783 -1.7074 -2.8268
   56MOL   H43937949   3.453   4.406   5.880  0.2419  0.0083  1.2852
   56MOL   H44037950   3.291   4.358   6.059 -1.1347  4.7610  1.5834
   56MOL   H44137951   3.170   4.321   5.941 -0.3078 -0.6893  0.4139
   56MOL   H44237952   3.185   4.568   5.860  1.5231 -0.2727 -1.1223
   56MOL   H44337953   3.323   4.599   5.949 -0.3833  0.8132  0.3681
   56MOL   N44437954   3.024   4.622   6.041 -0.4014  0.2561  0.0497
   56MOL   C44537955   2.942   4.679   6.137 -0.3531 -0.3486 -0.0033
   56MOL   C44637956   2.790   4.661   6.095  0.5297  0.2430  0.3413
   56MOL   C44737957   2.706   4.690   6.217  0.0737  0.0346  0.4422
   56MOL   C44837958   2.555   4.707   6.181  0.3450 -0.1452  0.2005
   56MOL   C44937959   2.464   4.730   6.295 -0.0028 -0.5293 -0.3063
   56MOL   C45037960   2.315   4.737   6.260  0.2474  0.6869 -0.7288
   56MOL   C45137961   2.218   4.780   6.372  0.0293  1.3644 -0.3807
   56MOL   C45237962   2.070   4.763   6.333 -0.2109 -0.9094  0.6888
   56MOL   C45337963   1.984   4.803   6.448  0.0836  0.4155  0.1888
   56MOL   C45437964   1.995   4.709   6.570 -0.3438 -0.2227 -0.2116
   56MOL   C45537965   2.058   4.766   6.697 -0.1228 -0.0915  0.8431
   56MOL   O45637966   1.998   4.860   6.752 -0.1113  0.1019  0.0618
   56MOL   H45737967   2.996   4.624   5.944  3.1453 -0.2899 -1.0599
   56MOL   H45837968   2.960   4.617   6.225  0.1717 -1.1808 -0.6876
   56MOL   H45937969   2.972   4.783   6.142  1.4903 -0.8588  0.1818
   56MOL   H46037970   2.787   4.554   6.079 -1.5508  0.3698 -0.2601
   56MOL   H46137971   2.757   4.722   6.011 -1.5688 -0.7519  0.4211
   56MOL   H46237972   2.728   4.619   6.296 -2.1615 -0.4852  0.6487
   56MOL   H46337973   2.739   4.790   6.245  0.7746  1.3660 -4.5910
   56MOL   H46437974   2.527   4.614   6.131  0.8332  0.2328 -0.7817
   56MOL   H46537975   2.549   4.787   6.107 -0.6991  0.0502  0.4930
   56MOL   H46637976   2.479   4.831   6.334 -1.5707  0.3983 -2.0572
   56MOL   H46737977   2.479   4.663   6.379  2.2054  0.6788  0.3114
   56MOL   H46837978   2.301   4.805   6.176  0.2496 -0.2549 -1.4919
   56MOL   H46937979   2.277   4.644   6.220  0.4327  0.0855  0.4647
   56MOL   H47037980   2.245   4.880   6.404 -0.4658  1.2022  0.5729
   56MOL   H47137981   2.240   4.709   6.452  0.1790  2.4629  0.5695
   56MOL   H47237982   2.028   4.811   6.245 -2.0204 -2.2856  0.7757
   56MOL   H47337983   2.057   4.659   6.304 -0.2623 -1.2903  2.0241
   56MOL   H47437984   1.876   4.809   6.433  0.1475  0.0698 -0.4165
   56MOL   H47537985   2.009   4.905   6.478  0.8811  0.2625  0.0537
   56MOL   H47637986   2.061   4.628   6.537 -0.0155 -0.0410 -0.0105
   56MOL   H47737987   1.902   4.670   6.609 -1.2405  1.4198 -0.6614
   56MOL   N47837988   2.176   4.713   6.737 -0.6235  0.2107  0.0671
   56MOL   C47937989   2.213   4.726   6.872  0.0115 -0.8496  0.3713
   56MOL   C48037990   2.166   4.603   6.954  0.4494 -0.2866  0.3428
   56MOL   C48137991   2.208   4.594   7.099 -0.1924 -0.7271 -0.1658
   56MOL   C48237992   2.169   4.466   7.176  0.7991  0.1645  0.2187
   56MOL   C48337993   2.218   4.454   7.312 -0.0757 -0.1473 -0.4225
   56MOL   C48437994   2.197   4.320   7.365 -0.0550  0.0192  0.7140
   56MOL   C48537995   2.247   4.308   7.504  0.3392  0.2975 -0.2628
   56MOL   C48637996   2.219   4.168   7.565 -0.2405 -0.2887  0.2595
   56MOL   C48737997   2.297   4.133   7.702 -0.6873  0.1804  0.3423
   56MOL   C48837998   2.248   4.187   0.119 -0.1449 -0.2956  0.1387
   56MOL   C48937999   2.355   4.177   0.227  0.2713  0.4957  0.1337
   56MOL   O49038000   2.462   4.130   0.210  0.1914  0.3898 -0.1963
   56MOL   H49138001   2.209   4.637   6.680 -1.6707 -1.2874  1.4055
   56MOL   H49238002   2.321   4.736   6.861  0.1281  2.9327  3.8139
   56MOL   H49338003   2.187   4.824   6.911  0.7983  0.5132 -2.3693
   56MOL   H49438004   2.197   4.514   6.898 -0.5926  0.9172 -2.2113
   56MOL   H49538005   2.059   4.592   6.969  0.3711 -2.7984 -1.6822
   56MOL   H49638006   2.316   4.609   7.106  0.0783 -3.2770  1.5839
   56MOL   H49738007   2.169   4.680   7.154  2.1053 -1.4857  2.7563
   56MOL   H49838008   2.209   4.383   7.117  2.0218  1.0666 -0.2330
   56MOL   H49938009   2.062   4.442   7.171  0.9878 -0.4647 -1.1151
   56MOL   H50038010   2.163   4.525   7.373  1.4769  0.5825  0.1449
   56MOL   H50138011   2.324   4.478   7.311  0.1556 -1.0122  0.7864
   56MOL   H50238012   2.092   4.291   7.362 -0.2326  0.5417  1.8453
   56MOL   H50338013   2.243   4.254   7.291 -0.9323  1.0386 -0.7777
   56MOL   H50438014   2.188   4.374   7.568 -0.0523  0.4503 -0.7777
   56MOL   H50538015   2.351   4.339   7.510 -0.3029  2.2542  1.4849
   56MOL   H50638016   2.112   4.149   7.575 -0.2786 -0.4860 -0.4892
   56MOL   H50738017   2.255   4.098   7.489 -1.3145  2.7014 -3.1239
   56MOL   H50838018   2.397   4.176   7.690 -1.4580  1.9193 -0.0282
   56MOL   H50938019   2.311   4.026   0.001  1.8421  0.4515  0.1917
   56MOL   H51038020   2.159   4.133   0.151 -1.5047  0.0734 -2.8518
   56MOL   H51138021   2.216   4.291   0.116 -0.1190 -0.3196 -1.7947
   56MOL   N51238022   2.324   4.234   0.347  0.1461 -0.6188  0.3510
   56MOL   C51338023   2.404   4.254   0.466 -0.5835  0.4199  0.3735
   56MOL   C51438024   2.463   4.397   0.462 -0.0093  0.4809 -0.3479
   56MOL   C51538025   2.531   4.437   0.595 -0.2377 -0.5269  0.6499
   56MOL   C51638026   2.599   4.578   0.588  0.7805  0.0944  0.5839
   56MOL   C51738027   2.735   4.563   0.518  1.2176 -0.4250  0.0130
   56MOL   C51838028   2.808   4.697   0.514  0.1175  0.1546 -0.3447
   56MOL   C51938029   2.951   4.698   0.455  0.4813  0.3269  0.1416
   56MOL   C52038030   3.010   4.841   0.461 -0.7921 -0.9390  0.6043
   56MOL   C52138031   2.944   4.946   0.372  0.2738  0.2895  0.1696
   56MOL   C52238032   2.891   4.900   0.232  0.2307  0.4087 -0.7247
   56MOL   C52338033   3.002   4.875   0.134 -0.3501 -0.8892 -0.1587
   56MOL   O52438034   3.104   4.943   0.142  0.1495 -0.2741  0.1373
   56MOL   H52538035   2.225   4.250   0.359 -0.1135  0.4402 -2.8736
   56MOL   H52638036   2.345   4.230   0.555  1.7400 -2.0282  1.3603
   56MOL   H52738037   2.472   4.169   0.470 -1.4294 -0.2401  0.9678
   56MOL   H52838038   2.372   4.457   0.461 -0.8886 -0.8352 -0.5129
   56MOL   H52938039   2.534   4.413   0.381  1.7704 -1.0938  0.8600
   56MOL   H53038040   2.458   4.438   0.676 -1.6333 -2.2916 -0.5508
   56MOL   H53138041   2.599   4.355   0.618  1.2160  0.0520 -1.4144
   56MOL   H53238042   2.609   4.613   0.690 -0.0863 -1.7407  1.3369
   56MOL   H53338043   2.534   4.646   0.533  2.9696  1.2775 -0.5728
   56MOL   H53438044   2.736   4.534   0.413 -0.2773  1.9703 -0.7131
   56MOL   H53538045   2.787   4.487   0.576  0.7113  0.9122  2.2824
   56MOL   H53638046   2.735   4.768   0.476  0.5611  0.1023 -1.2878
   56MOL   H53738047   2.813   4.734   0.617  3.5768  0.9389 -0.7601
   56MOL   H53838048   2.931   4.656   0.356  1.9359 -1.0709  0.4186
   56MOL   H53938049   3.005   4.622   0.511  2.3138  2.3017  1.1368
   56MOL   H54038050   2.990   4.882   0.560 -0.2792  0.7812  0.0017
   56MOL   H54138051   3.119   4.837   0.456 -0.9370 -4.1554 -1.7432
   56MOL   H54238052   3.003   5.037   0.362  1.5879 -0.6254 -0.6087
   56MOL   H54338053   2.856   4.978   0.427  0.7700  2.6921 -0.3989
   56MOL   H54438054   2.827   4.982   0.199 -0.0883 -0.0900 -1.3491
   56MOL   H54538055   2.835   4.807   0.246  1.4905 -0.1663  0.5939
   56MOL   N54638056   2.978   4.791   0.033  0.5517 -0.2211  0.1739
   56MOL   C54738057   3.053   4.780   7.629  0.3691 -0.3546 -0.4555
   56MOL   C54838058   3.171   4.683   7.654  0.1522 -0.1782  0.5874
   56MOL   C54938059   3.284   4.692   7.549  0.7214  0.6253 -0.5101
   56MOL   C55038060   3.234   4.612   7.417  0.6857  0.5348  0.6297
   56MOL   C55138061   3.347   4.617   7.309  0.0523  0.0110 -0.6370
   56MOL   C55238062   3.307   4.544   7.175 -0.1069 -0.1434 -0.5460
   56MOL   C55338063   3.416   4.560   7.067 -0.5081 -0.5568  0.5522
   56MOL   C55438064   3.381   4.491   6.936  1.6191 -0.1864 -0.5584
   56MOL   C55538065   3.498   4.506   6.838  0.6276  0.0949 -0.2390
   56MOL   C55638066   3.468   4.467   6.694  0.1437  0.1635 -0.7736
   56MOL   C55738067   3.381   4.561   6.626 -0.7987 -0.5082  0.2520
   56MOL   O55838068   3.424   4.678   6.604  1.1115 -0.5026  0.3416
   56MOL   H55938069   2.901   4.727   0.045  0.6354 -0.5448 -0.9227
   56MOL   H56038070   2.994   4.753   7.541  0.7586 -0.5937 -0.6442
   56MOL   H56138071   3.083   4.878   7.591 -3.6326  0.8822 -0.7058
   56MOL   H56238072   3.148   4.577   7.666  1.5901 -0.4682  0.9293
   56MOL   H56338073   3.214   4.705   0.036  1.6953 -1.2036  0.1658
   56MOL   H56438074   3.311   4.796   7.530 -0.6991  1.0274 -0.3747
   56MOL   H56538075   3.371   4.642   7.592  0.5035  1.2124  0.6113
   56MOL   H56638076   3.145   4.653   7.369  2.0931  1.7351 -1.0430
   56MOL   H56738077   3.214   4.508   7.444  0.0535  0.5069  0.0554
   56MOL   H56838078   3.436   4.580   7.361 -0.9262 -0.1953  0.9292
   56MOL   H56938079   3.364   4.723   7.292  0.9168  0.4200  2.4718
   56MOL   H57038080   3.294   4.437   7.191 -2.3673  0.0203 -1.1940
   56MOL   H57138081   3.213   4.591   7.148 -1.3119 -0.6736  2.5205
   56MOL   H57238082   3.510   4.522   7.106 -0.2946  0.0410  0.6355
   56MOL   H57338083   3.433   4.666   7.045  1.2219 -0.9430 -0.0491
   56MOL   H57438084   3.376   4.388   6.968  1.7824 -0.2291 -0.6680
   56MOL   H57538085   3.283   4.524   6.899  1.1100 -0.7789  0.2515
   56MOL   H57638086   3.576   4.432   6.859  0.1889 -0.2101  0.3239
   56MOL   H57738087   3.538   4.607   6.830  3.3811 -1.0700 -1.9887
   56MOL   H57838088   3.424   4.368   6.687  0.9891 -0.3299  0.5673
   56MOL   H57938089   3.562   4.458   6.640  0.4797  1.3495 -0.4126
   56MOL   N58038090   3.263   4.517   6.583  0.4348  0.3350  0.0307
   56MOL   C58138091   3.158   4.571   6.502  0.3336  0.8579  0.1388
   56MOL   C58238092   3.045   4.612   6.591 -0.2448  0.2955  0.3177
   56MOL   C58338093   2.937   4.704   6.536 -0.0365 -0.3808 -0.6588
   56MOL   C58438094   2.820   4.738   6.630 -0.0850  0.0348  0.4183
   56MOL   C58538095   2.722   4.826   6.561  0.2615 -0.0690 -0.2034
   56MOL   C58638096   2.601   4.847   6.647 -0.2412 -0.1257 -0.2984
   56MOL   C58738097   2.532   4.971   6.606  0.6712 -0.6773 -0.2346
   56MOL   C58838098   2.407   5.003   6.696  0.8340  0.7780 -0.4589
   56MOL   C58938099   2.303   5.107   6.637 -0.5324  0.6146  0.1167
   56MOL   C59038100   2.215   5.158   6.743 -0.5860  0.3195  0.2019
   56MOL   C59138101   2.089   5.232   6.689  0.3727 -0.0500 -0.1278
   56MOL   O59238102   2.076   5.350   6.709  0.2792 -0.3845  0.3528
   56MOL   H59338103   3.242   4.435   6.638 -0.8430  0.7593  0.1906
   56MOL   H59438104   3.208   4.650   6.446  0.8925 -0.9468 -1.9531
   56MOL   H59538105   3.128   4.501   6.424  1.3294 -0.0961  0.5911
   56MOL   H59638106   3.068   4.648   6.691 -2.3426  0.2156  0.8448
   56MOL   H59738107   2.991   4.519   6.606  1.1180 -1.0234 -2.5984
   56MOL   H59838108   2.995   4.787   6.498 -0.6669  0.1077 -0.5606
   56MOL   H59938109   2.891   4.659   6.448 -1.7207 -1.7521  0.8725
   56MOL   H60038110   2.861   4.781   6.721  0.5081 -0.1902  0.2616
   56MOL   H60138111   2.781   4.642   6.666 -0.3283 -0.9491 -2.3310
   56MOL   H60238112   2.693   4.771   6.471 -1.5407  0.8545 -0.2004
   56MOL   H60338113   2.772   4.920   6.539  2.9905 -1.1212  1.2351
   56MOL   H60438114   2.546   4.753   6.637  0.9205 -0.9219  0.6575
   56MOL   H60538115   2.616   4.848   6.755  0.4214 -0.3315 -0.3905
   56MOL   H60638116   2.510   4.965   6.499 -0.4200  0.8131 -0.1057
   56MOL   H60738117   2.600   5.056   6.619  0.0459 -0.0484 -1.0254
   56MOL   H60838118   2.347   4.916   6.723  0.1557  2.0086  2.0629
   56MOL   H60938119   2.439   5.044   6.792 -0.5692  1.3685 -0.2367
   56MOL   H61038120   2.250   5.058   6.555 -0.9819  1.9082 -0.3924
   56MOL   H61138121   2.363   5.181   6.584 -0.6653  0.4228 -0.3110
   56MOL   H61238122   2.267   5.237   6.796  0.2714  0.2515 -0.5307
   56MOL   H61338123   2.183   5.084   6.816  0.0502  0.5959  0.7524
   56MOL   N61438124   1.993   5.147   6.651 -0.2898  0.3650  0.6002
   56MOL   C61538125   1.871   5.193   6.591 -0.2165 -0.3051 -0.3991
   56MOL   C61638126   1.756   5.111   6.635  0.1952  0.5787  0.0483
   56MOL   C61738127   1.630   5.151   6.567  1.5509  0.4471 -0.4445
   56MOL   C61838128   1.515   5.052   6.608  0.0060  0.1726  0.3036
   56MOL   C61938129   1.381   5.083   6.548 -0.3790  0.5007  0.0699
   56MOL   C62038130   1.268   5.012   6.615  0.1465 -0.0606  0.0117
   56MOL   C62138131   1.137   5.021   6.533 -0.1415 -0.5371 -0.3400
   56MOL   C62238132   1.017   4.956   6.601  0.4829 -0.4348 -0.8371
   56MOL   C62338133   0.973   5.047   6.719  0.6166  0.6088 -0.3195
   56MOL   C62438134   0.834   5.007   6.775  0.0163  0.1063  0.2840
   56MOL   C62538135   0.823   4.857   6.807  0.3855  0.6860 -0.2095
   56MOL   O62638136   0.910   4.797   6.868 -0.3654 -0.1875 -0.3867
   56MOL   H62738137   2.010   5.052   6.683 -0.1148  0.8103  1.8656
   56MOL   H62838138   1.895   5.161   6.490 -0.6980 -1.0957 -0.2710
   56MOL   H62938139   1.860   5.301   6.604  1.0295 -0.1658 -0.4433
   56MOL   H63038140   1.744   5.106   6.743  2.5717  1.1659  0.3578
   56MOL   H63138141   1.785   5.010   6.605  0.0350  0.1426  1.3035
   56MOL   H63238142   1.604   5.255   6.585  1.0267  0.1997  0.2250
   56MOL   H63338143   1.654   5.135   6.462 -0.8819 -0.9922 -0.8154
   56MOL   H63438144   1.508   5.062   6.716 -0.7635  0.5199  0.2221
   56MOL   H63538145   1.552   4.956   6.572 -0.7002  1.1980 -3.3764
   56MOL   H63638146   1.384   5.064   6.441 -2.3038  2.6454 -0.4136
   56MOL   H63738147   1.365   5.190   6.560 -0.6573  0.3024  1.5761
   56MOL   H63838148   1.287   4.905   6.626  2.1773  0.4786  1.9639
   56MOL   H63938149   1.259   5.065   6.710 -1.8441  0.9066 -0.6777
   56MOL   H64038150   1.153   4.969   6.438  0.2130 -0.1691 -0.4805
   56MOL   H64138151   1.104   5.120   6.504  0.5335 -1.2757 -3.8202
   56MOL   H64238152   0.935   4.927   6.535  0.1793 -2.4804  0.4170
   56MOL   H64338153   1.056   4.865   6.645  0.4617  1.0739  2.4450
   56MOL   H64438154   0.959   5.148   6.681  0.1808 -0.0639 -1.9706
   56MOL   H64538155   1.050   5.052   6.796  0.0562 -0.1316  0.2938
   56MOL   H64638156   0.758   5.036   6.703  0.8360  0.8926 -0.2755
   56MOL   H64738157   0.806   5.058   6.867 -1.0924 -0.1521  0.0905
   56MOL   N64838158   0.715   4.791   6.757  0.5816  0.1380 -0.1831
   56MOL   C64938159   0.701   4.645   6.747 -0.0437 -0.3655  0.0708
   56MOL   C65038160   0.608   4.594   6.854 -0.9849 -0.2625  0.0221
   56MOL   C65138161   0.463   4.648   6.849  0.0436  0.2536  0.5767
   56MOL   C65238162   0.373   4.568   6.752  0.6725 -0.3283  0.2602
   56MOL   C65338163   0.234   4.630   6.740  0.1687  0.2744  0.4363
   56MOL   C65438164   0.158   4.606   6.605 -0.4697 -0.0803 -0.8109
   56MOL   C65538165   0.017   4.674   6.604 -0.1008  0.5204 -0.2231
   56MOL   C65638166   0.012   4.822   6.617 -0.4487  0.1401 -0.7218
   56MOL   C65738167   7.585   4.871   6.584 -0.0334 -0.3893  0.1468
   56MOL   C65838168   7.540   5.009   6.634 -1.2008 -0.7268 -1.0283
   56MOL   C65938169   7.419   5.062   6.560  0.2781  0.6355  0.2318
   56MOL   O66038170   7.308   5.014   6.581  0.2490 -0.1976 -0.1177
   56MOL   H66138171   0.629   4.842   6.740  0.0690 -0.1793  1.3970
   56MOL   H66238172   0.797   4.597   6.764 -0.7006 -0.8881  2.5437
   56MOL   H66338173   0.663   4.614   6.650 -0.9570 -0.0587  0.3227
   56MOL   H66438174   0.647   4.613   6.954  0.1842 -1.0247 -0.2864
   56MOL   H66538175   0.599   4.486   6.846  0.9655 -0.3840 -0.8683
   56MOL   H66638176   0.430   4.646   6.953 -0.4211  2.9526  0.5094
   56MOL   H66738177   0.467   4.757   6.843 -2.1476  0.2400 -2.4509
   56MOL   H66838178   0.365   4.463   6.781 -2.4984  0.0524  0.9032
   56MOL   H66938179   0.421   4.575   6.654  0.8716  0.9673  0.4350
   56MOL   H67038180   0.250   4.737   6.753 -0.2682  0.6523 -1.8433
   56MOL   H67138181   0.180   4.597   6.829  0.7271  1.3708  1.1958
   56MOL   H67238182   0.219   4.639   6.521  0.0025  0.8416 -0.1196
   56MOL   H67338183   0.154   4.500   6.581  0.9068 -0.5684  1.0305
   56MOL   H67438184   7.671   4.626   6.680  1.8208  0.0516  1.0728
   56MOL   H67538185   7.682   4.655   6.509  1.3277  0.4292 -0.9832
   56MOL   H67638186   0.039   4.842   6.720 -1.4021 -0.3413 -0.3683
   56MOL   H67738187   0.082   4.874   6.551  1.1251 -0.3737  0.5143
   56MOL   H67838188   7.516   4.800   6.630 -0.0929 -0.1981  0.3493
   56MOL   H67938189   7.568   4.871   6.476 -1.7692 -1.3574  0.3908
   56MOL   H68038190   7.609   5.093   6.626 -0.9651 -0.9921 -1.7691
   56MOL   H68138191   7.507   5.002   6.738  2.0923  1.3492  0.2237
   56MOL   H68238192   7.436   5.148   6.495  0.8622 -0.6759 -1.3662
   57MOL     N138193   6.267   0.959   1.249 -0.0663 -0.0865 -0.0229
   57MOL     C238194   6.260   0.904   1.385  0.1652  0.3562  0.0256
   57MOL     C338195   6.278   0.755   1.395  0.7666 -0.1779  0.1194
   57MOL     C438196   6.318   0.719   1.544 -0.2593 -0.0258 -1.0014
   57MOL     C538197   6.338   0.570   1.578 -0.2209 -0.5155 -0.1239
   57MOL     C638198   6.399   0.557   1.716 -0.3104  0.1664 -0.0312
   57MOL     C738199   6.497   0.435   1.721 -0.1925  0.3583 -0.2921
   57MOL     C838200   6.437   0.304   1.780 -0.1810  0.4319  0.3970
   57MOL     C938201   6.508   0.175   1.741 -0.6639  0.4102  0.1471
   57MOL    C1038202   6.652   0.167   1.780 -0.2195  0.0918  0.3185
   57MOL    C1138203   6.718   0.026   1.743  0.7866 -0.4355 -0.1498
   57MOL    C1238204   6.697   7.639   1.853  0.6897 -0.4778 -0.1048
   57MOL    O1338205   6.771   7.642   1.954  0.0465 -0.2717 -0.7610
   57MOL    H1438206   6.355   0.950   1.200  0.5434  0.2233  0.9892
   57MOL    H1538207   6.176   0.942   1.442  1.0075  0.0412  1.5141
   57MOL    H1638208   6.342   0.956   1.435  0.6581 -2.3341  2.1063
   57MOL    H1738209   6.356   0.729   1.323 -0.9545 -0.3561 -1.7321
   57MOL    H1838210   6.186   0.712   1.356  0.9376  0.4384 -1.0016
   57MOL    H1938211   6.404   0.782   1.567 -0.2863 -0.6277  0.8538
   57MOL    H2038212   6.235   0.753   1.606  0.7121  1.7969 -0.6612
   57MOL    H2138213   6.408   0.531   1.503 -0.0770 -1.5575  0.5459
   57MOL    H2238214   6.242   0.519   1.577 -0.9910  0.8947 -2.4040
   57MOL    H2338215   6.328   0.551   1.799  0.3837 -0.4951  0.5168
   57MOL    H2438216   6.460   0.645   1.732  0.6105 -0.3520 -0.6517
   57MOL    H2538217   6.541   0.416   1.623 -0.6247  4.6823 -1.4071
   57MOL    H2638218   6.578   0.459   1.791  1.4796 -2.2377 -1.2483
   57MOL    H2738219   6.337   0.298   1.735  0.0736  1.1725 -0.2703
   57MOL    H2838220   6.439   0.315   1.888  2.7473  0.5408  0.3612
   57MOL    H2938221   6.457   0.093   1.792  0.9437 -0.2499  0.7445
   57MOL    H3038222   6.493   0.150   1.637 -2.5393 -1.6236  0.8737
   57MOL    H3138223   6.649   0.181   1.888  0.7863  3.6479 -0.0694
   57MOL    H3238224   6.715   0.245   1.738  0.0935 -0.6359 -0.5654
   57MOL    H3338225   6.826   0.034   1.736  0.6711  1.6211  0.0193
   57MOL    H3438226   6.682   7.708   1.646 -1.6507  0.9326  0.2237
   57MOL    H3538227   6.246   1.058   1.249 -1.9248 -0.4701  0.4205
   57MOL    N3638228   6.594   7.557   1.837 -0.7136  0.3234  0.1949
   57MOL    C3738229   6.564   7.436   1.914 -0.5502  0.1506 -0.5117
   57MOL    C3838230   6.426   7.456   1.972 -0.0540 -0.1113  0.1739
   57MOL    C3938231   6.389   7.337   2.057  0.1423  0.7190 -0.5274
   57MOL    C4038232   6.367   7.205   1.979  0.4240 -0.3386 -0.0785
   57MOL    C4138233   6.306   7.085   2.065  0.3698 -0.6039  0.1542
   57MOL    C4238234   6.322   6.947   1.997  0.0536  0.6568  0.0081
   57MOL    C4338235   6.248   6.934   1.865  0.5605  0.2194 -0.0101
   57MOL    C4438236   6.297   6.806   1.802 -0.8785  0.5745  0.1309
   57MOL    C4538237   6.254   6.800   1.657 -0.8843 -0.2412 -0.6889
   57MOL    C4638238   6.326   6.703   1.569  0.5025 -0.1058 -0.6950
   57MOL    C4738239   6.275   6.706   1.422 -0.3542  0.5413  0.3987
   57MOL    O4838240   6.194   6.785   1.378 -0.5355  0.3532 -0.3428
   57MOL    H4938241   6.548   7.565   1.748 -1.1419  1.2210  0.4952
   57MOL    H5038242   6.560   7.353   1.844 -0.6437  0.4195 -0.8278
   57MOL    H5138243   6.639   7.406   1.988  1.0003  0.9067 -1.7561
   57MOL    H5238244   6.344   7.482   1.905  0.0371 -1.1379 -0.3447
   57MOL    H5338245   6.437   7.548   2.029  0.7397 -1.4243  2.1709
   57MOL    H5438246   6.467   7.316   2.131  2.0198 -0.2589 -2.7173
   57MOL    H5538247   6.307   7.368   2.122 -1.0489 -3.3564  0.0374
   57MOL    H5638248   6.460   7.184   1.926  0.7637  2.1521 -0.5154
   57MOL    H5738249   6.294   7.214   1.899  0.4229 -4.9138 -0.7564
   57MOL    H5838250   6.203   7.108   2.092  0.4202 -2.6524  2.2267
   57MOL    H5938251   6.357   7.079   2.161 -1.2796 -0.5126  1.0539
   57MOL    H6038252   6.428   6.937   1.975 -0.2817 -3.1218 -0.1718
   57MOL    H6138253   6.303   6.876   2.078  0.1258  0.1711 -0.4034
   57MOL    H6238254   6.257   7.026   1.807  2.3770  1.5978  2.3571
   57MOL    H6338255   6.144   6.918   1.894  0.2274  2.4322  0.1068
   57MOL    H6438256   6.404   6.784   1.803 -0.6732  1.5660 -0.0319
   57MOL    H6538257   6.244   6.725   1.852  2.7664 -2.8698 -1.2951
   57MOL    H6638258   6.247   6.896   1.605 -0.1453  1.4008  2.1349
   57MOL    H6738259   6.148   6.773   1.657 -0.7659 -0.7026 -0.5855
   57MOL    H6838260   6.322   6.602   1.608  2.1019 -0.7406 -2.1259
   57MOL    H6938261   6.430   6.736   1.570  0.9580 -1.5317  1.0601
   57MOL    N7038262   6.328   6.614   1.340  0.6991  0.1285 -0.0230
   57MOL    C7138263   6.293   6.589   1.194  0.1692 -1.0416  0.3035
   57MOL    C7238264   6.379   6.484   1.126  0.9965  0.2096 -0.2794
   57MOL    C7338265   6.331   6.403   1.005  0.4315  0.0973 -0.3389
   57MOL    C7438266   6.262   6.489   0.898 -0.7436 -0.5294 -0.3404
   57MOL    C7538267   6.214   6.417   0.765 -0.8171 -0.0207 -0.0337
   57MOL    C7638268   6.099   6.309   0.786 -0.0090  0.4022  0.1389
   57MOL    C7738269   5.958   6.378   0.791  0.1247  0.2760  0.4045
   57MOL    C7838270   5.839   6.286   0.792 -0.3300 -0.8321  0.0178
   57MOL    C7938271   5.846   6.190   0.909 -0.2404 -0.0854  0.3461
   57MOL    C8038272   5.812   6.244   1.058 -0.7900 -0.0704 -0.5408
   57MOL    C8138273   5.862   6.155   1.176 -0.0470 -0.7430 -0.0324
   57MOL    O8238274   5.961   6.080   1.160  0.0029 -0.1896  0.0379
   57MOL    H8338275   6.398   6.552   1.376  1.3050  1.3471  0.9334
   57MOL    H8438276   6.187   6.565   1.205  0.7763 -5.7308 -2.9281
   57MOL    H8538277   6.299   6.688   1.149 -0.9352 -0.8580  0.5246
   57MOL    H8638278   6.424   6.429   1.209  2.5740  0.8087 -0.7366
   57MOL    H8738279   6.458   6.547   1.085  0.6737 -0.1092 -1.3975
   57MOL    H8838280   6.409   6.338   0.966  2.7190  0.4109  3.4975
   57MOL    H8938281   6.250   6.336   1.033  0.3237  0.3248 -0.0973
   57MOL    H9038282   6.325   6.573   0.868  0.0186 -0.9795 -0.0058
   57MOL    H9138283   6.171   6.535   0.935 -0.0385  0.0078  0.7464
   57MOL    H9238284   6.303   6.370   0.722 -0.0543  3.8062 -2.9114
   57MOL    H9338285   6.187   6.495   0.695 -2.3338  1.2849  1.9741
   57MOL    H9438286   6.093   6.244   0.699  0.6758 -1.3323  1.3637
   57MOL    H9538287   6.120   6.248   0.874  1.3257  0.8349  0.1209
   57MOL    H9638288   5.939   6.442   0.705 -0.5532  2.3899  2.0609
   57MOL    H9738289   5.960   6.435   0.884 -0.5291  0.0154  0.5822
   57MOL    H9838290   5.746   6.341   0.807  0.9481  0.8464  2.0782
   57MOL    H9938291   5.829   6.232   0.697  0.3243  0.5247 -0.8444
   57MOL   H10038292   5.938   6.131   0.910 -0.8364 -1.0595 -0.7959
   57MOL   H10138293   5.763   6.120   0.896  0.0581 -0.4045  0.1376
   57MOL   H10238294   5.705   6.261   1.069 -0.5047  1.0026  0.6903
   57MOL   H10338295   5.861   6.341   1.070  0.6860 -0.6661 -1.5973
   57MOL   N10438296   5.806   6.161   1.299 -0.5995  0.2229 -0.1662
   57MOL   C10538297   5.822   6.071   1.413  0.0041 -0.4520 -0.5573
   57MOL   C10638298   5.836   6.149   1.545 -0.7066  0.0273  0.3377
   57MOL   C10738299   5.822   6.065   1.672  0.6066 -0.5151 -0.8929
   57MOL   C10838300   5.914   5.939   1.680 -0.1621  0.2668  0.0758
   57MOL   C10938301   5.908   5.854   1.809 -0.1252  0.6129 -0.1725
   57MOL   C11038302   5.765   5.825   1.849  0.1337 -0.3700 -0.4316
   57MOL   C11138303   5.760   5.746   1.981 -0.0980 -0.1433 -0.5626
   57MOL   C11238304   5.613   5.741   2.035  0.6947  0.4078 -0.3724
   57MOL   C11338305   5.590   5.846   2.136  0.0380 -0.0705  0.0130
   57MOL   C11438306   5.460   5.858   2.218  0.2406 -0.9598  0.0065
   57MOL   C11538307   5.453   5.750   2.327  0.6424 -0.1240 -0.0240
   57MOL   O11638308   5.525   5.753   2.426 -0.0349 -0.3151  0.3516
   57MOL   H11738309   5.741   6.237   1.318 -0.2377  0.3348  0.6514
   57MOL   H11838310   5.719   6.034   1.406 -0.2738  0.3117 -0.4914
   57MOL   H11938311   5.895   5.992   1.395  1.0357  0.6781 -1.4129
   57MOL   H12038312   5.778   6.241   1.549 -0.2433  0.5746 -3.8051
   57MOL   H12138313   5.942   6.175   1.545 -0.8895  0.7970  0.5411
   57MOL   H12238314   5.825   6.130   1.760  0.7735 -0.1517 -1.1623
   57MOL   H12338315   5.718   6.033   1.676 -0.1492  1.9374  0.4784
   57MOL   H12438316   6.017   5.975   1.678  0.6141 -1.6698  2.5695
   57MOL   H12538317   5.901   5.878   1.590  0.8735 -1.1817  0.8864
   57MOL   H12638318   5.950   5.922   1.883  3.1176 -2.5885  1.0444
   57MOL   H12738319   5.962   5.760   1.802  0.6051  1.0944 -1.1700
   57MOL   H12838320   5.705   5.913   1.873  0.0609 -0.1471 -1.3722
   57MOL   H12938321   5.712   5.763   1.776 -0.0906  0.3157 -0.8592
   57MOL   H13038322   5.828   5.779   2.060 -1.3119  1.1275 -0.0298
   57MOL   H13138323   5.783   5.642   1.960  0.4215 -0.9544  3.5650
   57MOL   H13238324   5.540   5.724   1.955 -0.4912 -2.3298  1.2177
   57MOL   H13338325   5.593   5.651   2.093 -0.5831 -0.2836 -1.8382
   57MOL   H13438326   5.617   5.944   2.097  1.0224 -0.6116 -0.6718
   57MOL   H13538327   5.668   5.826   2.209  1.6710  0.5826 -1.4919
   57MOL   H13638328   5.374   5.863   2.151 -1.2372  1.4141  1.9928
   57MOL   H13738329   5.457   5.954   2.270  1.4649 -2.7999  3.6690
   57MOL   N13838330   5.373   5.647   2.297 -0.0513  0.8724 -0.6556
   57MOL   C13938331   5.345   5.542   2.394 -0.7371  0.6596 -0.1711
   57MOL   C14038332   5.458   5.435   2.397  0.2383 -0.3544  0.0408
   57MOL   C14138333   5.438   5.297   2.461  0.1219 -0.1161  0.5799
   57MOL   C14238334   5.540   5.199   2.422 -0.9447  0.0164  0.4824
   57MOL   C14338335   5.506   5.053   2.462  0.3011  0.1784  0.1071
   57MOL   C14438336   5.502   5.032   2.611  0.2672 -0.2387 -0.9223
   57MOL   C14538337   5.468   4.889   2.649  0.1895  0.0248  0.3328
   57MOL   C14638338   5.495   4.868   2.798 -0.8188 -0.3347  0.6688
   57MOL   C14738339   5.467   4.732   2.851 -0.4419  0.1379 -0.1918
   57MOL   C14838340   5.451   4.734   3.007  0.2918  0.1752  0.6402
   57MOL   C14938341   5.341   4.830   3.060  0.3275 -0.9043 -0.0779
   57MOL   O15038342   5.239   4.845   2.989  0.0707 -0.1966  0.4565
   57MOL   H15138343   5.322   5.658   2.211 -2.4921 -2.2006  0.2993
   57MOL   H15238344   5.335   5.570   2.499  2.5201 -0.9967  0.6620
   57MOL   H15338345   5.261   5.488   2.351  0.3842 -1.8658  0.7296
   57MOL   H15438346   5.536   5.487   2.453  1.0239 -2.3467  0.8637
   57MOL   H15538347   5.508   5.419   2.302 -0.0805  1.5879 -0.4645
   57MOL   H15638348   5.417   5.301   2.568 -2.7051  1.1967  0.0024
   57MOL   H15738349   5.344   5.265   2.415 -0.0229  0.7901  0.2469
   57MOL   H15838350   5.633   5.236   2.466 -0.4723 -0.9939  0.3449
   57MOL   H15938351   5.546   5.202   2.313  0.3114 -3.6355  0.4090
   57MOL   H16038352   5.573   4.981   2.416 -2.0231 -0.9338 -1.6531
   57MOL   H16138353   5.410   5.030   2.415 -0.9573  0.8186  2.2890
   57MOL   H16238354   5.602   5.055   2.648 -0.8215  3.2448  0.0834
   57MOL   H16338355   5.445   5.104   2.670 -0.6812 -1.2581 -0.6037
   57MOL   H16438356   5.540   4.828   2.595 -1.4314  1.0868 -3.1649
   57MOL   H16538357   5.367   4.863   2.618  0.0314  0.7878  0.1954
   57MOL   H16638358   5.600   4.884   2.820 -0.7108 -0.1060 -0.0094
   57MOL   H16738359   5.445   4.946   2.856 -0.2959  1.4665 -1.2485
   57MOL   H16838360   5.539   4.654   2.827 -0.1662  0.4334 -0.3198
   57MOL   H16938361   5.371   4.694   2.815 -0.7095  0.7497 -0.1204
   57MOL   H17038362   5.551   4.763   3.039  0.6188 -0.6286  0.3476
   57MOL   H17138363   5.448   4.634   3.049  1.1328 -0.3137 -0.4632
   57MOL   N17238364   5.362   4.902   3.175  0.4208  0.0204 -0.1199
   57MOL   C17338365   5.308   5.030   3.213  0.3209  0.7718  0.3555
   57MOL   C17438366   5.420   5.132   3.243  0.1688 -0.7578  0.0324
   57MOL   C17538367   5.351   5.263   3.280 -0.0321  0.6534 -0.3478
   57MOL   C17638368   5.442   5.374   3.332  0.4370  0.3001 -0.0570
   57MOL   C17738369   5.363   5.495   3.384 -0.2852  0.6105 -0.7101
   57MOL   C17838370   5.449   5.604   3.450 -0.2853  0.2324 -0.3812
   57MOL   C17938371   5.368   5.731   3.488  0.2856  0.1296 -0.0305
   57MOL   C18038372   5.436   5.863   3.454 -0.0227  0.2847  0.1094
   57MOL   C18138373   5.343   5.980   3.498 -0.3371 -0.4123  0.3649
   57MOL   C18238374   5.416   6.117   3.506  0.2400  0.4296  0.5024
   57MOL   C18338375   5.332   6.244   3.475 -0.1695  0.1543 -1.0299
   57MOL   O18438376   5.210   6.236   3.450 -0.0815 -0.6203  0.1007
   57MOL   H18538377   5.445   4.878   3.228  0.2744  2.0579  1.0550
   57MOL   H18638378   5.253   5.062   3.125 -1.0003 -0.4585  0.7209
   57MOL   H18738379   5.239   5.030   3.298 -0.7311 -1.7435 -0.4648
   57MOL   H18838380   5.472   5.158   3.151  0.8117  1.5933  1.0115
   57MOL   H18938381   5.485   5.096   3.322 -0.5771 -0.5276  0.7613
   57MOL   H19038382   5.296   5.313   3.200  2.0534  1.8348 -1.0593
   57MOL   H19138383   5.284   5.232   3.361  1.1153  1.5323  0.9585
   57MOL   H19238384   5.499   5.397   3.241  0.3967 -1.4455 -0.5329
   57MOL   H19338385   5.508   5.337   3.411  1.1942  0.6550 -0.5109
   57MOL   H19438386   5.283   5.460   3.449 -0.2677  1.7240 -0.0877
   57MOL   H19538387   5.305   5.525   3.297 -1.5823 -0.4090 -0.2230
   57MOL   H19638388   5.517   5.559   3.522 -0.8094 -1.7718 -1.1029
   57MOL   H19738389   5.523   5.628   3.373  0.8831  1.0949  0.9753
   57MOL   H19838390   5.329   5.734   3.589  1.1012  0.9453  0.2756
   57MOL   H19938391   5.277   5.743   3.431  1.7380  1.5341 -2.1443
   57MOL   H20038392   5.524   5.859   3.520 -0.5266 -1.4646  0.7047
   57MOL   H20138393   5.471   5.862   3.351 -1.9030 -0.2657 -0.5306
   57MOL   H20238394   5.296   5.967   3.595  1.3456 -1.2359  1.0902
   57MOL   H20338395   5.257   5.992   3.432 -0.7107 -0.3100  0.8745
   57MOL   H20438396   5.498   6.115   3.434 -0.3378 -2.0374 -0.1356
   57MOL   H20538397   5.464   6.127   3.603  1.5765  1.4159 -0.2334
   57MOL   N20638398   5.405   6.358   3.454  0.1379 -0.3537 -0.5565
   57MOL   C20738399   5.344   6.490   3.411 -0.4653  0.4133  0.0156
   57MOL   C20838400   5.433   6.559   3.310 -0.1204 -0.5574 -0.2934
   57MOL   C20938401   5.359   6.671   3.229  0.5453  0.7536 -0.5595
   57MOL   C21038402   5.382   6.819   3.268  0.7543  0.5295  0.4173
   57MOL   C21138403   5.298   6.911   3.175  0.1244  0.2598 -0.7780
   57MOL   C21238404   5.335   6.891   3.025  0.4925 -0.5591 -0.3349
   57MOL   C21338405   5.267   7.009   2.947 -0.0059  0.2574  0.6705
   57MOL   C21438406   5.255   6.989   2.793 -0.7282 -0.4823 -0.6404
   57MOL   C21538407   5.367   6.926   2.713  0.8490  0.6298  0.4651
   57MOL   C21638408   5.322   6.924   2.568 -0.2568 -0.4246 -0.0485
   57MOL   C21738409   5.438   6.890   2.482  0.2263 -0.0838  0.5630
   57MOL   O21838410   5.494   6.977   2.420 -0.0269 -0.6237 -0.0593
   57MOL   H21938411   5.502   6.359   3.485  0.9234 -1.1650 -2.8530
   57MOL   H22038412   5.339   6.556   3.497 -1.3303  0.5785 -0.1616
   57MOL   H22138413   5.244   6.475   3.370 -0.1114 -1.7505 -0.1106
   57MOL   H22238414   5.455   6.480   3.237 -1.9522 -1.1431 -0.2334
   57MOL   H22338415   5.524   6.586   3.363 -1.3819  0.5760  1.3382
   57MOL   H22438416   5.385   6.652   3.125  2.0840 -0.8499  0.0996
   57MOL   H22538417   5.251   6.656   3.238  0.2893  2.6326 -0.2163
   57MOL   H22638418   5.489   6.838   3.261  0.7965 -0.4657 -2.3215
   57MOL   H22738419   5.351   6.832   3.372  1.1358  0.6268  0.5187
   57MOL   H22838420   5.324   7.014   3.198 -1.9973  0.5097  0.5584
   57MOL   H22938421   5.191   6.903   3.190 -0.0610  0.2672 -1.9899
   57MOL   H23038422   5.444   6.890   3.020  0.5757 -0.9450  1.2185
   57MOL   H23138423   5.296   6.794   2.994 -1.3113 -0.1839  0.6928
   57MOL   H23238424   5.328   7.097   2.970  0.5592  0.6407 -2.0269
   57MOL   H23338425   5.169   7.023   2.991 -0.6489 -1.1395 -0.2995
   57MOL   H23438426   5.177   6.916   2.770 -0.7261 -1.2933  1.8245
   57MOL   H23538427   5.235   7.089   2.754  0.1855  0.1024  0.3763
   57MOL   H23638428   5.385   6.830   2.761 -1.1023  1.3072  2.5733
   57MOL   H23738429   5.460   6.983   2.721  0.5949  0.8692  1.7007
   57MOL   H23838430   5.268   7.015   2.541 -0.6088 -0.3845  0.7816
   57MOL   H23938431   5.240   6.853   2.553 -0.9775  0.4111 -0.1249
   57MOL   N24038432   5.467   6.760   2.479  0.3133  0.1979 -0.0477
   57MOL   C24138433   5.546   6.691   2.381  0.1737 -0.1355 -0.5126
   57MOL   C24238434   5.487   6.550   2.364 -0.3050 -0.1835  0.5044
   57MOL   C24338435   5.341   6.546   2.303 -0.8841 -0.5327  0.7070
   57MOL   C24438436   5.308   6.402   2.263  0.1988  0.2753 -0.1976
   57MOL   C24538437   5.171   6.393   2.198  0.0720  0.0221  0.3339
   57MOL   C24638438   5.114   6.255   2.162 -1.1308 -0.0207 -0.0542
   57MOL   C24738439   5.082   6.161   2.280  0.2594  0.5135 -0.3895
   57MOL   C24838440   5.004   6.032   2.236  0.2017 -0.4016 -0.0421
   57MOL   C24938441   5.090   5.917   2.187 -0.6002 -0.7522  0.2991
   57MOL   C25038442   5.018   5.830   2.084 -0.2470 -1.1234 -0.0193
   57MOL   C25138443   5.096   5.708   2.036  0.3030 -0.8439 -0.5008
   57MOL   O25238444   5.211   5.688   2.071  0.2175 -0.0436  0.1963
   57MOL   H25338445   5.415   6.714   2.552  0.3170 -0.2300 -0.3125
   57MOL   H25438446   5.645   6.669   2.420  0.9987  1.8051 -1.4475
   57MOL   H25538447   5.549   6.747   2.287 -1.5218  0.1565 -0.4158
   57MOL   H25638448   5.487   6.494   2.457 -1.6287  0.5095  0.9380
   57MOL   H25738449   5.562   6.498   2.305 -0.9637 -0.2787 -0.2537
   57MOL   H25838450   5.263   6.603   2.353 -1.8174 -2.6563  1.7150
   57MOL   H25938451   5.348   6.607   2.212  1.4476  1.1685  1.9677
   57MOL   H26038452   5.310   6.337   2.350 -0.8670 -1.0411 -1.1467
   57MOL   H26138453   5.382   6.354   2.199 -1.9578  0.2164 -2.7386
   57MOL   H26238454   5.185   6.444   2.103  1.7162  0.9780  1.0567
   57MOL   H26338455   5.099   6.439   2.265 -1.0577  1.9659 -2.1313
   57MOL   H26438456   5.035   6.249   2.088 -1.6667 -1.1761  0.5946
   57MOL   H26538457   5.195   6.212   2.103 -0.3506  0.5551  0.5702
   57MOL   H26638458   5.029   6.232   2.343 -0.1505  0.1048 -0.2791
   57MOL   H26738459   5.174   6.138   2.333 -1.4218 -0.7338  2.0391
   57MOL   H26838460   4.941   5.996   2.317 -3.1180 -0.1511 -2.4165
   57MOL   H26938461   4.934   6.060   2.157 -2.8473 -1.4756  2.1583
   57MOL   H27038462   5.122   5.860   2.274  1.3614  1.3317  1.0101
   57MOL   H27138463   5.182   5.965   2.152 -1.1998 -0.6352 -1.1767
   57MOL   H27238464   5.014   5.895   1.997 -1.0036 -0.9012  0.1792
   57MOL   H27338465   4.914   5.805   2.105 -0.3647 -1.4196 -0.9463
   57MOL   N27438466   5.031   5.621   1.957  0.1555  0.2076 -0.3869
   57MOL   C27538467   5.060   5.474   1.949  0.1912 -0.2475 -0.1519
   57MOL   C27638468   4.924   5.401   1.924 -0.5745 -0.2294  0.2374
   57MOL   C27738469   4.921   5.250   1.936 -0.8695 -0.2645 -0.0728
   57MOL   C27838470   4.977   5.178   1.811  0.2177  0.0612 -0.7372
   57MOL   C27938471   5.019   5.032   1.832 -0.5311  0.0273 -0.6341
   57MOL   C28038472   4.904   4.938   1.856 -0.3336  0.2206  0.1631
   57MOL   C28138473   4.945   4.805   1.905 -0.0949  0.8683  0.2143
   57MOL   C28238474   4.820   4.718   1.934  0.5681 -0.5708 -0.0404
   57MOL   C28338475   4.853   4.583   2.007 -0.3607  0.1365 -0.0502
   57MOL   C28438476   4.735   4.506   2.059 -0.5373  0.5208 -0.1655
   57MOL   C28538477   4.666   4.428   1.945  0.2319 -0.5108 -0.4916
   57MOL   O28638478   4.733   4.384   1.851  0.3172  0.2266  0.1191
   57MOL   H28738479   4.946   5.655   1.916  1.4851  2.7595 -1.1696
   57MOL   H28838480   5.089   5.436   2.047 -0.1675 -3.2711 -1.1418
   57MOL   H28938481   5.130   5.440   1.873  0.0713 -1.6410  0.3389
   57MOL   H29038482   4.880   5.431   1.829  1.2124  0.5004 -0.3851
   57MOL   H29138483   4.858   5.439   2.002 -1.0041 -0.1617 -0.1612
   57MOL   H29238484   4.983   5.223   2.021  1.0116 -0.5018 -1.4938
   57MOL   H29338485   4.822   5.210   1.957 -1.0906  0.4284  0.2082
   57MOL   H29438486   5.065   5.232   1.776  0.2607 -0.3704 -1.3022
   57MOL   H29538487   4.904   5.192   1.731  0.0867  2.0512 -0.2983
   57MOL   H29638488   5.083   5.026   1.920 -2.1823 -0.7509  0.5338
   57MOL   H29738489   5.084   4.992   1.754 -1.6316 -1.8555 -0.6248
   57MOL   H29838490   4.848   4.989   1.934  1.1128  0.9883  0.7073
   57MOL   H29938491   4.846   4.920   1.765  0.3684  2.7107 -0.8044
   57MOL   H30038492   5.004   4.819   1.996  1.1590 -0.1864 -0.4119
   57MOL   H30138493   5.001   4.746   1.833  0.5619 -0.1110  1.5122
   57MOL   H30238494   4.741   4.771   1.987 -0.2907 -1.4575 -0.4027
   57MOL   H30338495   4.763   4.705   1.842  0.4767 -0.8084  0.0500
   57MOL   H30438496   4.920   4.602   2.090  0.2316 -0.5185 -0.3727
   57MOL   H30538497   4.915   4.516   1.949 -1.1295 -1.8527  1.3714
   57MOL   H30638498   4.660   4.570   2.105 -0.0472  0.1862  1.1279
   57MOL   H30738499   4.782   4.438   2.129  0.0777  2.2875  1.1953
   57MOL   N30838500   4.539   4.397   1.964  0.3717 -0.0055 -0.2184
   57MOL   C30938501   4.449   4.335   1.869  0.0655  0.4745  0.5965
   57MOL   C31038502   4.406   4.194   1.916 -0.0886 -0.2258  0.9659
   57MOL   C31138503   4.304   4.133   1.811 -0.0454  0.3100  0.2054
   57MOL   C31238504   4.232   4.006   1.863  0.1789 -0.0794  0.0940
   57MOL   C31338505   4.140   3.940   1.758  0.5845 -0.3243 -0.5469
   57MOL   C31438506   4.065   3.821   1.820  0.1139  0.5332  0.0511
   57MOL   C31538507   3.988   3.719   1.725 -0.3546 -0.2799 -0.7420
   57MOL   C31638508   4.084   3.640   1.638 -0.0769 -0.1124 -0.2215
   57MOL   C31738509   4.009   3.552   1.541  0.1953  0.5215 -0.3261
   57MOL   C31838510   4.097   3.459   1.461  0.7204 -0.9623  0.0873
   57MOL   C31938511   4.148   3.513   1.329  0.2606 -0.3395 -0.3615
   57MOL   O32038512   4.082   3.591   1.259  0.5674  1.0657  0.9522
   57MOL   H32138513   4.487   4.446   2.035  0.8414  0.6867 -0.3406
   57MOL   H32238514   4.491   4.331   1.768 -0.1288  0.1620  0.5290
   57MOL   H32338515   4.361   4.398   1.856  0.9291  1.7662  0.8800
   57MOL   H32438516   4.351   4.206   2.009 -1.4640 -2.7241  0.4965
   57MOL   H32538517   4.489   4.125   1.930  1.4987  1.2299 -0.9819
   57MOL   H32638518   4.240   4.209   1.766 -1.9699 -1.3163  0.1891
   57MOL   H32738519   4.358   4.108   1.720  1.2083  1.3420  0.6337
   57MOL   H32838520   4.170   4.036   1.947 -1.4772 -0.1455 -1.0821
   57MOL   H32938521   4.304   3.939   1.910  0.0670  0.1239  0.5512
   57MOL   H33038522   4.201   3.905   1.675 -0.0428 -1.9824 -0.3364
   57MOL   H33138523   4.065   4.009   1.719  0.4973 -0.5403 -0.7669
   57MOL   H33238524   4.137   3.757   1.870  0.5800  1.5138  0.6490
   57MOL   H33338525   3.987   3.863   1.883 -0.2844 -0.2636  0.0939
   57MOL   H33438526   3.919   3.777   1.664  0.7414 -0.0483 -1.7653
   57MOL   H33538527   3.932   3.649   1.787 -0.3195 -0.2979 -0.7301
   57MOL   H33638528   4.154   3.702   1.583 -2.5396  1.0395 -2.1115
   57MOL   H33738529   4.129   3.585   1.721  0.8183  0.1880 -0.5126
   57MOL   H33838530   3.947   3.609   1.472 -0.6750 -0.2802 -0.2126
   57MOL   H33938531   3.934   3.487   1.585 -0.2436  0.6357 -0.8924
   57MOL   H34038532   4.022   3.389   1.425 -0.5243 -0.3276  1.3811
   57MOL   H34138533   4.158   3.387   1.515  0.2563  0.0033  1.9460
   57MOL   N34238534   4.270   3.471   1.295  0.2024  0.1184  0.0164
   57MOL   C34338535   4.340   3.499   1.172 -0.5008  0.2913 -0.1062
   57MOL   C34438536   4.441   3.389   1.136  0.2278 -0.7859  0.0109
   57MOL   C34538537   4.371   3.259   1.096 -0.0031  0.1394 -0.2801
   57MOL   C34638538   4.313   3.242   0.955 -0.1501  0.2563  0.0002
   57MOL   C34738539   4.289   3.099   0.906  0.2893 -0.3634  0.1096
   57MOL   C34838540   4.169   3.034   0.965  0.1682  0.1065 -0.1674
   57MOL   C34938541   4.133   2.897   0.912 -0.0250 -0.5151  0.1091
   57MOL   C35038542   4.189   2.770   0.987 -0.3933 -0.3317 -0.2869
   57MOL   C35138543   4.146   2.642   0.916 -0.0954 -0.6992  0.4572
   57MOL   C35238544   4.001   2.599   0.945 -0.1424 -0.2058 -0.6169
   57MOL   C35338545   3.982   2.520   1.073 -0.4289  0.3107 -0.5374
   57MOL   O35438546   4.077   2.479   1.130  0.2654 -0.0140  0.6625
   57MOL   H35538547   4.305   3.402   1.360 -0.5337 -0.8651 -0.6133
   57MOL   H35638548   4.267   3.504   1.091  1.2795  0.2856 -1.7605
   57MOL   H35738549   4.392   3.595   1.176 -3.1087  1.6857  1.4918
   57MOL   H35838550   4.497   3.380   1.229  0.2362 -0.8420  0.0008
   57MOL   H35938551   4.513   3.420   1.060  1.1219  1.0441  1.5721
   57MOL   H36038552   4.452   3.186   1.101 -1.7866 -1.8317  0.5111
   57MOL   H36138553   4.312   3.218   1.178 -0.0723  2.2245  0.7459
   57MOL   H36238554   4.388   3.282   0.886 -0.9212 -1.9039 -2.1578
   57MOL   H36338555   4.226   3.305   0.942 -0.7248 -0.4104  0.5436
   57MOL   H36438556   4.385   3.050   0.926  0.3967 -1.6884 -3.2833
   57MOL   H36538557   4.278   3.093   0.797  1.8296 -0.6325 -0.0508
   57MOL   H36638558   4.183   3.029   1.073  0.9430 -3.6960 -0.3508
   57MOL   H36738559   4.083   3.101   0.956 -1.0021 -1.4390 -0.8451
   57MOL   H36838560   4.162   2.878   0.809 -0.4340 -1.1868  0.1174
   57MOL   H36938561   4.024   2.892   0.910 -0.1403  1.5772 -0.2496
   57MOL   H37038562   4.298   2.760   0.981 -0.2630  0.6602  0.3228
   57MOL   H37138563   4.157   2.774   1.091 -1.8218  0.8925 -0.7606
   57MOL   H37238564   4.220   2.562   0.924 -1.8970 -2.3943  0.7061
   57MOL   H37338565   4.160   2.648   0.808 -1.8104  1.1021  0.3125
   57MOL   H37438566   3.970   2.527   0.869  0.0810 -0.7940 -0.1550
   57MOL   H37538567   3.931   2.683   0.944 -1.5380 -1.3321 -0.2448
   57MOL   N37638568   3.862   2.505   1.123 -0.4140  0.4566  0.5360
   57MOL   C37738569   3.828   2.440   1.248 -0.8977  0.2514 -0.4911
   57MOL   C37838570   3.748   2.310   1.232 -0.3114  0.0383  0.3367
   57MOL   C37938571   3.788   2.214   1.123 -0.0373 -0.9973  0.1239
   57MOL   C38038572   3.699   2.087   1.126 -0.1322  0.2638  0.2078
   57MOL   C38138573   3.749   1.993   1.017  0.6745 -0.3120 -0.3099
   57MOL   C38238574   3.862   1.899   1.067 -0.5951  0.1156 -0.2149
   57MOL   C38338575   3.920   1.814   0.958  0.2261 -0.6057  0.0138
   57MOL   C38438576   4.030   1.719   1.015  0.2803 -0.1754 -0.0172
   57MOL   C38538577   4.170   1.775   1.023  0.2865 -0.1383  0.5855
   57MOL   C38638578   4.268   1.669   1.071  0.2270 -0.1113 -0.8240
   57MOL   C38738579   4.324   1.572   0.972  0.2974 -0.1917  0.0349
   57MOL   O38838580   4.298   1.589   0.847 -0.3216 -0.1437 -0.4131
   57MOL   H38938581   3.787   2.546   1.068  0.8068  1.3929 -0.4660
   57MOL   H39038582   3.923   2.406   1.289 -2.1306 -1.2721  1.1916
   57MOL   H39138583   3.786   2.511   1.318  0.4628 -2.3195  3.0897
   57MOL   H39238584   3.644   2.345   1.228 -0.2218  0.2169 -0.4147
   57MOL   H39338585   3.768   2.247   1.319  0.3755  0.9472  0.8532
   57MOL   H39438586   3.783   2.257   1.023  2.2644 -0.2488  0.3080
   57MOL   H39538587   3.892   2.186   1.139  0.3501  0.0260 -0.6219
   57MOL   H39638588   3.595   2.106   1.100  0.0057 -0.4006 -0.8428
   57MOL   H39738589   3.707   2.042   1.225  0.0343  0.8465  0.4636
   57MOL   H39838590   3.782   2.057   0.935 -0.3756  1.5180  0.6652
   57MOL   H39938591   3.675   1.926   0.973  1.4990 -2.0584  0.9222
   57MOL   H40038592   3.942   1.967   1.096  1.3367 -1.8279 -0.7697
   57MOL   H40138593   3.840   1.839   1.155  1.4201 -2.5805 -1.4500
   57MOL   H40238594   3.979   1.866   0.883 -1.3705  1.2234 -0.0206
   57MOL   H40338595   3.840   1.749   0.921 -1.2303  1.8529 -1.2925
   57MOL   H40438596   4.000   1.679   1.112  1.1484  2.7681  1.5167
   57MOL   H40538597   4.035   1.632   0.949 -1.9684 -0.0747 -0.3794
   57MOL   H40638598   4.180   1.860   1.090  0.2070 -0.7383  1.3633
   57MOL   H40738599   4.194   1.813   0.924 -0.5890  0.2841  0.5368
   57MOL   H40838600   4.222   1.605   1.146 -2.0637  0.1081 -1.9901
   57MOL   H40938601   4.357   1.711   1.117 -1.5808  2.0542  0.8247
   57MOL   N41038602   4.401   1.469   1.013  0.4902  0.7938 -0.0129
   57MOL   C41138603   4.474   1.380   0.927 -0.2853  0.1918  0.1286
   57MOL   C41238604   4.622   1.408   0.944  0.8572 -0.7458  0.0646
   57MOL   C41338605   4.698   1.335   0.841 -0.2450 -0.0425 -0.3912
   57MOL   C41438606   4.854   1.354   0.846  0.6831 -0.2821  0.1725
   57MOL   C41538607   4.924   1.275   0.734  0.0316 -0.3284 -0.0026
   57MOL   C41638608   4.884   1.312   0.586  0.5938 -0.3386 -0.5197
   57MOL   C41738609   4.906   1.462   0.545  0.4419  0.1577  0.7663
   57MOL   C41838610   4.909   1.479   0.396 -0.1769 -0.6040 -0.4584
   57MOL   C41938611   4.889   1.625   0.349 -0.1984  0.2028 -0.5179
   57MOL   C42038612   4.941   1.670   0.214 -0.1073  0.2910 -0.6917
   57MOL   C42138613   4.913   1.582   0.089 -0.3069 -0.3116  0.2540
   57MOL   O42238614   4.807   1.533   0.074  0.4053 -0.0559  0.2374
   57MOL   H42338615   4.408   1.435   1.108  0.2842  0.7559 -0.0106
   57MOL   H42438616   4.446   1.278   0.957 -1.8709 -0.2466 -2.6985
   57MOL   H42538617   4.448   1.393   0.822  2.9810  1.7152 -0.5409
   57MOL   H42638618   4.651   1.380   1.046  0.6744  0.3908  0.4377
   57MOL   H42738619   4.657   1.511   0.944  3.9625 -1.7225  1.9237
   57MOL   H42838620   4.683   1.228   0.851 -0.7396 -0.1429 -1.9503
   57MOL   H42938621   4.665   1.363   0.740 -1.6398  0.8430  0.2878
   57MOL   H43038622   4.897   1.313   0.937  2.7624  0.8552 -0.2665
   57MOL   H43138623   4.889   1.457   0.851  1.6447 -0.5222 -1.4014
   57MOL   H43238624   4.918   1.168   0.754 -0.9649 -0.4294 -0.7708
   57MOL   H43338625   5.030   1.297   0.739  0.0159 -0.5011  1.2128
   57MOL   H43438626   4.946   1.245   0.526  0.2485 -1.4259  0.3192
   57MOL   H43538627   4.784   1.275   0.564  0.6601  0.8160 -2.8464
   57MOL   H43638628   5.000   1.501   0.583  1.4005 -0.5420 -0.8461
   57MOL   H43738629   4.830   1.530   0.584  1.3140  0.7406  1.4744
   57MOL   H43838630   5.012   1.472   0.361 -0.0062  2.4409 -0.7024
   57MOL   H43938631   4.833   1.418   0.347 -0.5491 -1.6766  1.4004
   57MOL   H44038632   4.926   1.697   0.422 -3.6364  0.2571  1.2542
   57MOL   H44138633   4.781   1.636   0.341 -0.3304  0.1051  0.9761
   57MOL   H44238634   5.047   1.697   0.223  0.4434 -1.7705 -0.7762
   57MOL   H44338635   4.883   1.761   0.201 -3.4451 -1.6758 -0.1810
   57MOL   N44438636   5.016   1.552   0.012  0.0104 -0.1494 -0.4736
   57MOL   C44538637   5.023   1.476   7.605  0.0441 -0.7419  0.8224
   57MOL   C44638638   4.993   1.563   7.480 -0.6062 -0.5795 -0.5456
   57MOL   C44738639   4.849   1.582   7.443 -0.1464  0.3909 -0.6193
   57MOL   C44838640   4.817   1.702   7.342  0.1809 -0.1728  0.4087
   57MOL   C44938641   4.698   1.664   7.261 -0.4601 -0.0608  0.1070
   57MOL   C45038642   4.557   1.661   7.331 -0.2791 -0.6128 -0.4929
   57MOL   C45138643   4.454   1.574   7.260  0.3506  0.1880  0.4850
   57MOL   C45238644   4.313   1.621   7.301  0.0719  0.4546  0.4808
   57MOL   C45338645   4.198   1.516   7.279  0.3383 -0.3269  0.9871
   57MOL   C45438646   4.190   1.464   7.128  0.5170  0.1521  0.2444
   57MOL   C45538647   4.049   1.421   7.094  0.4134  0.6018  0.2991
   57MOL   O45638648   3.959   1.418   7.178 -0.0615 -0.7836 -0.2177
   57MOL   H45738649   5.102   1.603   0.029 -0.2096  0.9232 -2.3828
   57MOL   H45838650   5.122   1.429   7.605  1.8228  2.8317  0.8547
   57MOL   H45938651   4.942   1.403   7.602  0.2835 -0.9640 -0.8923
   57MOL   H46038652   5.044   1.518   7.395  0.5017 -0.3956  0.0001
   57MOL   H46138653   5.049   1.656   7.489 -1.7269  0.0005  0.4423
   57MOL   H46238654   4.828   1.486   7.398 -1.0025 -0.9553  2.5024
   57MOL   H46338655   4.779   1.582   7.527 -0.2063  0.3960 -0.6690
   57MOL   H46438656   4.896   1.710   7.267  2.3851 -0.2157  2.6529
   57MOL   H46538657   4.809   1.801   7.388  1.9394  0.9577 -1.5823
   57MOL   H46638658   4.716   1.566   7.217 -1.3935  0.1184 -0.6901
   57MOL   H46738659   4.703   1.737   7.181  1.5532 -0.8041 -0.4693
   57MOL   H46838660   4.563   1.629   7.435  0.5602 -1.4050 -0.7749
   57MOL   H46938661   4.522   1.763   7.350 -1.6893 -1.4489  1.4581
   57MOL   H47038662   4.469   1.472   7.295  0.2686  0.6954  2.0479
   57MOL   H47138663   4.471   1.576   7.152 -2.6906 -1.9660 -0.0874
   57MOL   H47238664   4.313   1.636   7.409  0.9028  0.1269  0.5361
   57MOL   H47338665   4.299   1.715   7.247  1.8237 -0.9333 -2.5621
   57MOL   H47438666   4.109   1.575   7.301  0.0406 -0.1397 -0.6855
   57MOL   H47538667   4.213   1.427   7.342  1.6526 -1.3523 -0.7162
   57MOL   H47638668   4.263   1.385   7.109 -0.6736 -1.2623  1.3464
   57MOL   H47738669   4.222   1.543   7.061  2.6710 -1.6219 -0.9040
   57MOL   N47838670   4.033   1.394   6.963 -0.4206  0.3941 -0.1444
   57MOL   C47938671   3.905   1.366   6.889  0.3800  0.5327 -0.4544
   57MOL   C48038672   3.918   1.379   6.740  0.3144  0.1272  0.3695
   57MOL   C48138673   3.784   1.364   6.663  0.0371 -0.6610 -0.2093
   57MOL   C48238674   3.809   1.377   6.509 -0.2878 -0.2032 -0.1726
   57MOL   C48338675   3.681   1.374   6.423  0.4334 -0.4423 -0.3325
   57MOL   C48438676   3.700   1.381   6.273  0.6595  1.1357  0.0776
   57MOL   C48538677   3.552   1.379   6.212  1.2764 -0.3397  0.6057
   57MOL   C48638678   3.549   1.389   6.059  0.0401  0.3154 -0.1388
   57MOL   C48738679   3.415   1.350   5.995 -0.9545  0.3349 -0.3428
   57MOL   C48838680   3.295   1.443   6.034  0.3244  0.3738  0.0358
   57MOL   C48938681   3.260   1.550   5.928 -0.4338 -0.0180 -0.1666
   57MOL   O49038682   3.353   1.616   5.877  0.0538 -0.5922  0.1233
   57MOL   H49138683   4.115   1.388   6.904 -0.5769  0.4393 -0.3660
   57MOL   H49238684   3.868   1.266   6.912  2.1378 -0.2944 -1.1415
   57MOL   H49338685   3.825   1.435   6.917  0.7580  1.0684 -0.6913
   57MOL   H49438686   4.002   1.317   6.711  1.8122  1.7864  1.0585
   57MOL   H49538687   3.951   1.480   6.716  2.8341 -0.9603 -1.0110
   57MOL   H49638688   3.732   1.272   6.690 -0.0837 -1.4832 -3.1017
   57MOL   H49738689   3.723   1.450   6.692  1.7026 -0.2228  2.0658
   57MOL   H49838690   3.872   1.300   6.466 -0.5941 -0.9261  0.6676
   57MOL   H49938691   3.858   1.474   6.499 -2.6496  1.1399  0.7857
   57MOL   H50038692   3.625   1.463   6.451 -1.1286 -1.4026 -0.3263
   57MOL   H50138693   3.626   1.284   6.451  0.1854  0.5251  2.4877
   57MOL   H50238694   3.752   1.473   6.249  0.4676  1.1912 -0.1265
   57MOL   H50338695   3.757   1.292   6.248 -1.3567 -0.6432  1.4908
   57MOL   H50438696   3.487   1.454   6.257  0.8833  0.1725 -0.7603
   57MOL   H50538697   3.511   1.282   6.239  1.0418 -0.6298 -0.7235
   57MOL   H50638698   3.582   1.482   6.013  0.8400 -1.1606 -2.6504
   57MOL   H50738699   3.621   1.321   6.013 -0.6540 -0.5808  0.0799
   57MOL   H50838700   3.399   1.252   6.040  0.1231 -1.0395 -2.8440
   57MOL   H50938701   3.418   1.336   5.887  0.6337  0.8877 -0.3779
   57MOL   H51038702   3.307   1.495   6.129 -1.0343  0.0712  0.3873
   57MOL   H51138703   3.198   1.395   6.046  0.0214  1.0323  0.3048
   57MOL   N51238704   3.125   1.575   5.897 -0.3031  0.5151 -0.2427
   57MOL   C51338705   3.086   1.677   5.805  0.0937  0.0550 -0.9809
   57MOL   C51438706   2.929   1.689   5.800 -0.0940 -0.0099 -1.0495
   57MOL   C51538707   2.880   1.786   5.685  0.0763  0.3036 -0.7970
   57MOL   C51638708   2.896   1.945   5.710 -0.1253  0.5851 -0.1435
   57MOL   C51738709   2.821   2.033   5.615  0.0573 -0.3964  0.0185
   57MOL   C51838710   2.860   2.030   5.467  0.5441  0.3211  0.1919
   57MOL   C51938711   3.006   2.043   5.442 -0.0520 -0.2833 -0.1207
   57MOL   C52038712   3.043   2.027   5.300  0.6300  0.7186  0.5834
   57MOL   C52138713   3.186   2.048   5.264 -0.4933 -0.7186  0.1451
   57MOL   C52238714   3.214   2.017   5.114 -0.0612 -0.1165  0.4162
   57MOL   C52338715   3.364   1.993   5.085 -0.2128 -0.4716  0.3326
   57MOL   O52438716   3.433   2.090   5.069 -0.7510 -0.3041  0.3731
   57MOL   H52538717   3.059   1.510   5.937  2.2426 -2.4124 -0.6012
   57MOL   H52638718   3.126   1.771   5.844 -3.6130  0.4240  2.2100
   57MOL   H52738719   3.138   1.644   5.716  0.0284 -0.3582 -0.8653
   57MOL   H52838720   2.889   1.708   5.900  0.1262  1.0550 -1.1563
   57MOL   H52938721   2.898   1.589   5.772 -1.5110 -0.7370  2.8354
   57MOL   H53038722   2.936   1.759   5.596  0.2225 -0.9749 -0.3339
   57MOL   H53138723   2.775   1.767   5.661  0.3302 -0.3604 -1.3697
   57MOL   H53238724   3.002   1.972   5.714 -0.3587  1.5744 -0.5255
   57MOL   H53338725   2.852   1.969   5.807  2.0892  2.0358  0.5363
   57MOL   H53438726   2.822   2.134   5.656 -0.5744  0.4165 -1.9119
   57MOL   H53538727   2.714   2.018   5.629 -0.0033 -0.3755 -0.4304
   57MOL   H53638728   2.814   1.936   5.437  3.2963 -0.4051 -1.9640
   57MOL   H53738729   2.800   2.103   5.413  0.3575 -1.0725 -1.5334
   57MOL   H53838730   3.073   1.979   5.499 -1.4461 -1.3700  0.3473
   57MOL   H53938731   3.041   2.138   5.483  0.8813 -0.2847 -0.9017
   57MOL   H54038732   3.022   1.929   5.256  0.3788  0.0227  2.2217
   57MOL   H54138733   2.978   2.094   5.244  2.8655  1.3873 -1.3011
   57MOL   H54238734   3.244   1.973   5.319 -0.1954 -0.4030  0.2598
   57MOL   H54338735   3.230   2.141   5.300  0.8755 -1.5330  0.6384
   57MOL   H54438736   3.168   2.096   5.056  0.5197  0.5844  0.9069
   57MOL   H54538737   3.161   1.925   5.090 -2.3674  1.1352  0.5750
   57MOL   N54638738   3.403   1.867   5.069  0.0880 -0.1713 -0.1970
   57MOL   C54738739   3.527   1.817   5.014  0.0045  0.5195  0.3198
   57MOL   C54838740   3.608   1.725   5.112 -0.5303 -0.0410  0.2284
   57MOL   C54938741   3.738   1.657   5.051 -0.6178  0.5786  0.6055
   57MOL   C55038742   3.843   1.613   5.158  0.5848  0.1049  0.8273
   57MOL   C55138743   3.797   1.490   5.239  0.0545  0.2176  0.4709
   57MOL   C55238744   3.900   1.438   5.339 -0.2855 -0.4634 -0.0149
   57MOL   C55338745   3.915   1.538   5.459  0.3705  0.5742 -0.6097
   57MOL   C55438746   3.790   1.543   5.551  0.5023 -0.1825  0.6059
   57MOL   C55538747   3.801   1.639   5.668 -0.2069 -0.1776  0.3078
   57MOL   C55638748   3.673   1.654   5.760 -0.0782 -0.1966  0.4990
   57MOL   C55738749   3.685   1.759   5.864 -0.5565 -0.0889  0.2315
   57MOL   O55838750   3.787   1.825   5.870 -0.5111 -0.2847 -0.1943
   57MOL   H55938751   3.329   1.799   5.079  2.0465 -2.4997 -0.9879
   57MOL   H56038752   3.504   1.748   4.934  1.0481  1.2481 -0.6264
   57MOL   H56138753   3.595   1.894   4.978 -0.0396  0.2224 -0.3910
   57MOL   H56238754   3.556   1.643   5.161 -0.5259  0.3195  0.8346
   57MOL   H56338755   3.641   1.781   5.199  0.4423  0.4723 -0.4552
   57MOL   H56438756   3.703   1.571   4.994  0.3543 -0.7610  1.9901
   57MOL   H56538757   3.793   1.725   4.985  0.6166 -0.6454  0.3490
   57MOL   H56638758   3.866   1.702   5.216  2.3419  0.5930 -0.5731
   57MOL   H56738759   3.938   1.582   5.114  1.0261  0.8953  1.2310
   57MOL   H56838760   3.787   1.420   5.157 -2.0963  1.9453 -0.8199
   57MOL   H56938761   3.703   1.501   5.294 -0.9833  1.7916 -1.5402
   57MOL   H57038762   3.860   1.344   5.376  1.3128 -0.3348  2.1318
   57MOL   H57138763   3.991   1.424   5.281 -3.4621 -3.6454 -4.5679
   57MOL   H57238764   3.935   1.639   5.424 -0.6664  0.6012 -1.1482
   57MOL   H57338765   3.997   1.504   5.523  0.3645  0.0557 -0.8693
   57MOL   H57438766   3.704   1.571   5.490 -0.1150  0.4255  1.7330
   57MOL   H57538767   3.764   1.442   5.584  1.2369 -0.6473 -0.2065
   57MOL   H57638768   3.828   1.737   5.628  1.1292 -0.1295  1.3105
   57MOL   H57738769   3.880   1.598   5.731 -1.5510 -4.6852 -0.7553
   57MOL   H57838770   3.666   1.559   5.813 -3.9044  0.8033  1.9470
   57MOL   H57938771   3.580   1.654   5.703 -1.2323 -0.3110  2.3317
   57MOL   N58038772   3.583   1.768   5.949  0.0759 -0.3062 -0.0112
   57MOL   C58138773   3.579   1.867   6.056 -0.4006 -0.3808 -0.6610
   57MOL   C58238774   3.487   1.827   6.170  0.1212  0.4693 -0.1247
   57MOL   C58338775   3.345   1.871   6.148  0.3568  0.3589  0.1065
   57MOL   C58438776   3.245   1.800   6.244  0.1514  0.3033  0.8155
   57MOL   C58538777   3.100   1.808   6.193 -0.4205  0.8631  0.4003
   57MOL   C58638778   3.004   1.727   6.284 -0.2622  0.3100 -0.3895
   57MOL   C58738779   2.852   1.754   6.280 -0.1853  0.4857 -0.0575
   57MOL   C58838780   2.820   1.902   6.300 -0.2115 -0.5708  0.5870
   57MOL   C58938781   2.663   1.928   6.321 -0.1165  0.1598 -0.1482
   57MOL   C59038782   2.617   2.074   6.323  0.1432  0.1707  0.4863
   57MOL   C59138783   2.668   2.133   6.448  0.3082 -0.8124 -0.4904
   57MOL   O59238784   2.626   2.085   6.557  0.6158  0.1034 -0.2361
   57MOL   H59338785   3.522   1.688   5.949  2.1136 -1.9457 -2.0746
   57MOL   H59438786   3.678   1.878   6.100  0.1703 -0.4731 -1.9023
   57MOL   H59538787   3.534   1.961   6.025 -2.1861 -0.4692  1.5059
   57MOL   H59638788   3.522   1.851   6.270  3.4538 -0.6459 -0.9480
   57MOL   H59738789   3.490   1.718   6.168 -1.5322  0.4173 -0.5552
   57MOL   H59838790   3.333   1.977   6.171  0.0683 -0.0835  2.1578
   57MOL   H59938791   3.323   1.854   6.043 -1.5133  0.9148  0.3905
   57MOL   H60038792   3.257   1.833   6.347 -1.2902  1.0997  0.7334
   57MOL   H60138793   3.273   1.694   6.239 -0.5361  0.2171 -1.6712
   57MOL   H60238794   3.101   1.781   6.087 -0.9731  0.2675  0.5431
   57MOL   H60338795   3.060   1.909   6.194 -1.2167  0.6086 -1.6010
   57MOL   H60438796   3.028   1.623   6.260  0.6182 -0.0118  1.7556
   57MOL   H60538797   3.029   1.752   6.387 -0.1713 -0.5164 -0.2081
   57MOL   H60638798   2.799   1.691   6.352 -0.1793 -2.0737 -2.2005
   57MOL   H60738799   2.808   1.720   6.186  2.9958 -0.6532 -1.2030
   57MOL   H60838800   2.886   1.939   6.379 -0.0617 -2.8180  1.5350
   57MOL   H60938801   2.845   1.969   6.218 -0.6032 -1.9110 -0.6556
   57MOL   H61038802   2.621   1.867   6.400 -0.7893  0.9282  0.0872
   57MOL   H61138803   2.611   1.887   6.234  1.3544  0.8519 -1.3804
   57MOL   H61238804   2.510   2.082   6.303  0.4932  0.9222 -1.2528
   57MOL   H61338805   2.655   2.133   6.239 -0.5939  1.3412  0.9786
   57MOL   N61438806   2.758   2.229   6.441  0.7463  0.7506  0.7911
   57MOL   C61538807   2.827   2.298   6.550  0.4705 -0.3607 -0.2588
   57MOL   C61638808   2.968   2.345   6.518 -0.1020 -0.6058 -0.0276
   57MOL   C61738809   3.053   2.390   6.638 -0.3206 -0.3173  0.4480
   57MOL   C61838810   3.205   2.394   6.609 -0.0650 -0.5416  0.1208
   57MOL   C61938811   3.280   2.448   6.733 -0.0189  0.1367  0.0676
   57MOL   C62038812   3.438   2.451   6.714 -0.2289 -0.3795  0.5143
   57MOL   C62138813   3.502   2.541   6.816  0.6526 -0.5666  0.2331
   57MOL   C62238814   3.655   2.543   6.823 -0.1987  0.3896 -0.2375
   57MOL   C62338815   3.710   2.628   6.708  0.0018  0.5315  0.2815
   57MOL   C62438816   3.690   2.777   6.743 -0.7713 -0.1681  0.5276
   57MOL   C62538817   3.808   2.844   6.817 -0.0784  0.2213 -0.1863
   57MOL   O62638818   3.928   2.807   6.804 -0.3622 -0.5275 -0.0326
   57MOL   H62738819   2.784   2.264   6.349  0.6184  0.5141  0.6639
   57MOL   H62838820   2.835   2.223   6.628  0.1791  0.2149  0.3256
   57MOL   H62938821   2.768   2.368   6.608  0.2959  0.0417 -0.9135
   57MOL   H63038822   2.974   2.426   6.445  1.8338  0.7908  1.5980
   57MOL   H63138823   3.015   2.270   6.455  0.6977  0.2198 -0.4209
   57MOL   H63238824   3.024   2.490   6.669  2.4071 -0.5853  4.2675
   57MOL   H63338825   3.027   2.340   6.732  0.9166  1.8759  1.9955
   57MOL   H63438826   3.226   2.455   6.521  1.2981 -3.0573 -1.3714
   57MOL   H63538827   3.252   2.296   6.605 -1.5977 -1.1967 -2.2055
   57MOL   H63638828   3.263   2.382   6.818 -0.6106 -0.1842 -0.2919
   57MOL   H63738829   3.249   2.548   6.762  1.0284  0.9041 -1.4012
   57MOL   H63838830   3.476   2.349   6.709  0.7537  0.0293 -0.5102
   57MOL   H63938831   3.456   2.500   6.618 -0.9625  0.2851  0.7037
   57MOL   H64038832   3.470   2.505   6.914  0.3265 -1.3046 -0.1421
   57MOL   H64138833   3.453   2.638   6.821  0.5714 -0.5322 -1.1016
   57MOL   H64238834   3.690   2.592   6.914  0.5337 -0.1926 -0.2021
   57MOL   H64338835   3.700   2.443   6.819 -2.3335 -0.6258  0.3235
   57MOL   H64438836   3.652   2.618   6.616  0.8562 -1.2291 -0.1043
   57MOL   H64538837   3.816   2.614   6.684 -0.1805  0.3355 -0.4147
   57MOL   H64638838   3.591   2.803   6.779 -1.3457 -1.7179  0.0813
   57MOL   H64738839   3.692   2.823   6.644  3.1766 -0.3932  0.4164
   57MOL   N64838840   3.771   2.939   6.904  1.0142 -0.4636  0.1688
   57MOL   C64938841   3.859   3.003   6.994 -0.0889  0.0739  0.8506
   57MOL   C65038842   3.787   3.125   7.051  0.1386 -0.0132 -0.2427
   57MOL   C65138843   3.880   3.193   7.147  0.0218 -0.3398  0.0242
   57MOL   C65238844   3.821   3.310   7.234 -0.3831 -0.0792 -0.3323
   57MOL   C65338845   3.932   3.402   7.298 -0.0970 -0.3607  0.4541
   57MOL   C65438846   3.997   3.337   7.424 -0.5458  0.4224 -0.2076
   57MOL   C65538847   4.091   3.437   7.500 -0.2248  0.1280  0.2311
   57MOL   C65638848   4.175   3.363   7.603 -0.1993  0.2965 -0.1724
   57MOL   C65738849   4.246   3.470   7.692 -0.1334  0.0666 -0.3972
   57MOL   C65838850   4.323   3.413   0.096 -0.3852 -0.7888 -0.1130
   57MOL   C65938851   4.449   3.342   0.042  0.0520 -0.0943 -0.3249
   57MOL   O66038852   4.540   3.309   0.115 -0.2611  0.1381  0.0702
   57MOL   H66138853   3.674   2.965   6.909  1.0471 -0.3401  0.1582
   57MOL   H66238854   3.945   3.033   6.935 -1.9980  0.0609 -2.0745
   57MOL   H66338855   3.891   2.935   7.072 -0.8345 -1.4477 -0.1421
   57MOL   H66438856   3.701   3.086   7.106 -0.1813 -0.8363 -1.3050
   57MOL   H66538857   3.763   3.197   6.973  2.7072  0.7864 -0.3444
   57MOL   H66638858   3.935   3.124   7.211  0.2603  0.0167  0.2027
   57MOL   H66738859   3.964   3.232   7.091  0.2585 -0.6207  0.1812
   57MOL   H66838860   3.762   3.269   7.316 -0.5874 -1.4036 -1.1235
   57MOL   H66938861   3.760   3.371   7.168 -0.6377  0.1762  0.1369
   57MOL   H67038862   3.881   3.498   7.312  1.8285  0.9673 -1.3778
   57MOL   H67138863   4.009   3.422   7.223 -2.4177  2.8789 -1.1787
   57MOL   H67238864   3.919   3.312   7.497  0.3386 -0.4130  0.4755
   57MOL   H67338865   4.051   3.244   7.405 -1.0298  0.0509  0.2007
   57MOL   H67438866   4.025   3.514   7.540 -2.4113 -1.7373  0.2802
   57MOL   H67538867   4.156   3.488   7.429  2.0514 -0.9507  1.4870
   57MOL   H67638868   4.107   3.301   7.661  0.2169  0.1775  0.1925
   57MOL   H67738869   4.246   3.290   7.563  0.3960  0.7912 -0.0182
   57MOL   H67838870   4.170   3.535   0.019 -0.0640 -0.1042 -0.0109
   57MOL   H67938871   4.309   3.526   7.623  1.8368  0.6509  1.7886
   57MOL   H68038872   4.256   3.348   0.153 -1.4131  0.2900 -0.0852
   57MOL   H68138873   4.369   3.496   0.150 -1.1622 -0.1807 -0.3770
   57MOL   H68238874   4.450   3.322   7.651  2.5986 -2.7974  0.1369
   58MOL     N138875   0.258   2.148   6.453 -0.0187 -0.1007 -0.3587
   58MOL     C238876   0.209   2.151   6.313  0.2806  0.3590 -0.5256
   58MOL     C338877   0.332   2.165   6.231  0.7267  0.3821 -1.1379
   58MOL     C438878   0.401   2.294   6.260 -0.0976 -0.8085 -0.2304
   58MOL     C538879   0.514   2.331   6.166  0.2914 -0.0221  0.0239
   58MOL     C638880   0.595   2.456   6.213  0.3539 -0.4956 -0.1783
   58MOL     C738881   0.698   2.496   6.111 -0.3407  0.5081  0.1396
   58MOL     C838882   0.751   2.640   6.121  0.0987  0.5649 -0.4924
   58MOL     C938883   0.836   2.685   6.008 -0.2755  0.4278  0.1337
   58MOL    C1038884   0.988   2.642   6.004 -0.2971 -0.4958 -0.7251
   58MOL    C1138885   1.075   2.725   6.102  0.5699  0.3744  0.1160
   58MOL    C1238886   1.225   2.710   6.083  0.0777  0.4320  0.6555
   58MOL    O1338887   1.280   2.614   6.134  0.8436  0.3660 -0.0591
   58MOL    H1438888   0.191   2.091   6.504 -0.9989  0.3684 -1.1147
   58MOL    H1538889   0.129   2.224   6.306 -1.0923 -1.0728 -0.1555
   58MOL    H1638890   0.160   2.057   6.288  0.6337  0.1406 -0.4026
   58MOL    H1738891   0.289   2.162   6.131  1.1708 -0.6050 -1.3044
   58MOL    H1838892   0.404   2.083   6.238  0.9910  0.4490 -2.9756
   58MOL    H1938893   0.326   2.374   6.260  0.4187 -0.2886  2.0336
   58MOL    H2038894   0.440   2.299   6.362 -0.3128  0.4871 -0.2022
   58MOL    H2138895   0.473   2.350   6.068  2.9029  1.6657 -0.8119
   58MOL    H2238896   0.574   2.241   6.156  0.0692  0.0066 -1.5918
   58MOL    H2338897   0.641   2.451   6.312 -1.2916 -0.2494  0.6087
   58MOL    H2438898   0.526   2.539   6.228 -1.0144 -1.3196 -1.8051
   58MOL    H2538899   0.770   2.414   6.107  0.4069  1.2324 -2.2244
   58MOL    H2638900   0.649   2.494   6.013 -0.5485  1.0439  0.2279
   58MOL    H2738901   0.791   2.648   6.223  0.8661  0.6923 -0.8018
   58MOL    H2838902   0.662   2.701   6.136 -1.3277 -1.9116  1.4417
   58MOL    H2938903   0.804   2.642   5.913 -2.6853 -1.8727  1.9146
   58MOL    H3038904   0.839   2.793   5.994  2.4619  0.4497  0.8016
   58MOL    H3138905   1.035   2.657   5.906 -1.1611 -1.3058 -1.2641
   58MOL    H3238906   1.003   2.535   6.013  2.2819 -0.0113  1.4824
   58MOL    H3338907   1.048   2.704   6.205 -2.2921 -0.4735 -0.7768
   58MOL    H3438908   1.035   2.827   6.098 -1.8440 -0.5780 -0.6309
   58MOL    H3538909   0.346   2.098   6.458  0.1628  0.3327  1.1453
   58MOL    N3638910   1.279   2.799   6.004  0.5858 -0.1849 -0.3005
   58MOL    C3738911   1.420   2.794   5.964 -0.4471 -0.0320  0.3362
   58MOL    C3838912   1.490   2.935   5.983  0.2593  0.0575  0.2766
   58MOL    C3938913   1.422   3.042   5.899 -0.4110  0.2354 -0.3321
   58MOL    C4038914   1.506   3.171   5.902  0.1572 -0.3411  0.1059
   58MOL    C4138915   1.441   3.295   5.826  0.0431 -0.0693  0.0405
   58MOL    C4238916   1.292   3.306   5.854 -0.4815 -0.0271 -0.3027
   58MOL    C4338917   1.237   3.439   5.798  0.3651  0.2901 -0.9715
   58MOL    C4438918   1.215   3.438   5.651  0.0029 -0.2005 -0.4542
   58MOL    C4538919   1.167   3.568   5.593  0.3757  0.1326 -0.2991
   58MOL    C4638920   1.133   3.550   5.443 -0.2892  0.5590  0.0746
   58MOL    C4738921   1.080   3.681   5.381 -0.1159  0.1384 -0.1173
   58MOL    O4838922   1.028   3.763   5.451  0.2940 -0.4908  0.1122
   58MOL    H4938923   1.212   2.865   5.968 -0.0154 -0.5302  0.1711
   58MOL    H5038924   1.477   2.721   6.021  3.0868  2.4997  0.2128
   58MOL    H5138925   1.427   2.768   5.858  1.0789 -3.1925  1.1516
   58MOL    H5238926   1.596   2.919   5.966 -0.1536 -0.8329 -1.5893
   58MOL    H5338927   1.482   2.972   6.085 -2.3216  0.6560 -0.1073
   58MOL    H5438928   1.404   3.015   5.795 -1.2120 -0.6198  0.0213
   58MOL    H5538929   1.321   3.060   5.934 -0.3208  2.1831 -1.0015
   58MOL    H5638930   1.608   3.151   5.870  0.7195  1.5298  0.6932
   58MOL    H5738931   1.512   3.202   6.006 -0.3154  0.2029 -0.0254
   58MOL    H5838932   1.465   3.286   5.720 -0.2121  0.5231 -0.0663
   58MOL    H5938933   1.493   3.385   5.859  1.9344 -1.2386  0.3138
   58MOL    H6038934   1.238   3.227   5.801  1.2794 -0.2322 -1.8275
   58MOL    H6138935   1.287   3.290   5.962  1.3291 -1.2495 -0.3778
   58MOL    H6238936   1.312   3.515   5.821  0.0376 -0.4275  2.7990
   58MOL    H6338937   1.152   3.470   5.859  0.6718 -2.0715  0.7394
   58MOL    H6438938   1.310   3.409   5.607 -0.0594  2.1339 -2.1949
   58MOL    H6538939   1.142   3.360   5.627  0.8512 -1.5932  1.3634
   58MOL    H6638940   1.242   3.646   5.598  1.5562 -1.0275  0.5875
   58MOL    H6738941   1.073   3.597   5.641  1.1578  0.2551  1.1973
   58MOL    H6838942   1.048   3.483   5.433  1.0533 -0.9994 -0.9660
   58MOL    H6938943   1.213   3.513   5.379 -0.5760  1.7457 -0.9850
   58MOL    N7038944   1.077   3.686   5.248  0.7708  0.4900  0.0517
   58MOL    C7138945   1.029   3.789   5.160  0.3227 -0.3125  0.8944
   58MOL    C7238946   0.880   3.764   5.129  0.0033 -1.2690  0.1981
   58MOL    C7338947   0.820   3.869   5.040  0.7409  0.7485 -0.6721
   58MOL    C7438948   0.778   3.998   5.102 -0.1737  0.1670  0.7860
   58MOL    C7538949   0.708   4.095   5.006  0.3843 -0.1129 -0.5279
   58MOL    C7638950   0.689   4.240   5.074 -0.0621 -0.3428  0.3272
   58MOL    C7738951   0.798   4.334   5.043  0.4041  0.4893 -0.4749
   58MOL    C7838952   0.919   4.315   5.134  0.2293  0.0772  0.3311
   58MOL    C7938953   1.024   4.420   5.093 -0.1984  0.1308  0.0739
   58MOL    C8038954   1.113   4.478   5.210 -0.5209  0.0972  0.4613
   58MOL    C8138955   1.052   4.579   5.313 -0.0700  0.3238  0.4387
   58MOL    O8238956   1.031   4.697   5.281 -0.6855  0.0055 -0.2938
   58MOL    H8338957   1.127   3.612   5.201  0.7267 -0.7686  1.9325
   58MOL    H8438958   1.040   3.891   5.196  0.7593  0.2819 -0.8443
   58MOL    H8538959   1.081   3.777   5.064  2.3888  1.1699  1.7779
   58MOL    H8638960   0.832   3.775   5.226 -1.9136  1.3911 -0.9663
   58MOL    H8738961   0.866   3.663   5.092  0.6298 -2.3748  2.8837
   58MOL    H8838962   0.873   3.872   4.945 -3.2155  0.2557 -2.9838
   58MOL    H8938963   0.729   3.812   5.022  0.6211  0.9140 -0.5934
   58MOL    H9038964   0.871   4.051   5.124 -0.2489  0.7681 -0.3422
   58MOL    H9138965   0.719   3.975   5.191 -1.3069 -2.9207 -0.6955
   58MOL    H9238966   0.612   4.056   4.970 -0.9147  2.9969 -0.5819
   58MOL    H9338967   0.766   4.112   4.915  1.2971 -0.6497 -0.0460
   58MOL    H9438968   0.594   4.278   5.035 -0.1141 -0.4915  0.3079
   58MOL    H9538969   0.674   4.236   5.181  1.9681 -0.0915  0.6375
   58MOL    H9638970   0.764   4.436   5.061 -1.0269 -0.0972  0.2792
   58MOL    H9738971   0.826   4.331   4.938 -0.0394 -0.8161 -0.5716
   58MOL    H9838972   0.890   4.332   5.237  0.6864 -0.0897  0.4893
   58MOL    H9938973   0.970   4.219   5.122  2.3356  1.2428 -0.3944
   58MOL   H10038974   0.977   4.501   5.038 -0.2341 -0.1780 -0.3536
   58MOL   H10138975   1.072   4.369   5.009 -2.0107 -2.7823  0.7259
   58MOL   H10238976   1.201   4.524   5.164  1.1634 -3.6066 -0.1624
   58MOL   H10338977   1.159   4.393   5.260  1.5840  1.3202  0.6955
   58MOL   N10438978   1.028   4.538   5.439  0.1281  0.2763  0.4591
   58MOL   C10538979   0.956   4.610   5.539  0.3765 -0.7430 -0.0900
   58MOL   C10638980   0.988   4.556   5.680  0.2695  0.7807 -0.0827
   58MOL   C10738981   1.135   4.574   5.719  0.1103 -0.2968  0.4401
   58MOL   C10838982   1.170   4.507   5.850  0.8680  0.0547  0.1546
   58MOL   C10938983   1.315   4.506   5.888 -0.0841  0.6528 -0.0927
   58MOL   C11038984   1.344   4.444   6.028 -0.1009  0.1428  0.4079
   58MOL   C11138985   1.301   4.296   6.045 -0.1074  0.8473 -0.0187
   58MOL   C11238986   1.391   4.216   6.144 -0.3781  0.3637  0.2908
   58MOL   C11338987   1.525   4.173   6.093  0.5527  0.3008 -0.6678
   58MOL   C11438988   1.605   4.092   6.197 -0.1530 -1.1943 -0.5470
   58MOL   C11538989   1.578   3.944   6.197  0.0116  0.7098  0.0258
   58MOL   O11638990   1.581   3.889   6.089  0.1804 -0.2717 -0.0967
   58MOL   H11738991   1.031   4.442   5.469 -1.4983 -0.2346 -0.9550
   58MOL   H11838992   0.967   4.717   5.522 -1.4377 -0.8338 -2.0343
   58MOL   H11938993   0.852   4.590   5.513  0.6082 -0.7647 -1.0128
   58MOL   H12038994   0.985   4.447   5.672  1.4427  0.8789 -2.3558
   58MOL   H12138995   0.917   4.595   5.752 -1.5785  0.7392 -1.8339
   58MOL   H12238996   1.196   4.516   5.650 -0.0153 -1.6808  1.4579
   58MOL   H12338997   1.167   4.678   5.713  0.1048 -0.0343  3.7594
   58MOL   H12438998   1.146   4.401   5.840  1.1013  0.3101 -4.0892
   58MOL   H12538999   1.105   4.548   5.927  3.3439 -0.5773  2.6145
   58MOL   H12639000   1.363   4.604   5.882  2.3389 -0.5203 -0.8218
   58MOL   H12739001   1.371   4.456   5.809  0.0538 -2.5348  1.9666
   58MOL   H12839002   1.452   4.441   6.041 -0.0677 -0.6996  0.0189
   58MOL   H12939003   1.307   4.506   6.109 -2.0516  1.4953 -1.4442
   58MOL   H13039004   1.310   4.247   5.948 -0.1761  0.5328  0.1325
   58MOL   H13139005   1.195   4.276   6.061 -0.0116 -0.0718 -0.4970
   58MOL   H13239006   1.422   4.279   6.228  1.7740 -2.2057  1.4909
   58MOL   H13339007   1.339   4.129   6.184 -1.5848  1.7247  1.7787
   58MOL   H13439008   1.585   4.255   6.052  0.6558  0.2588 -0.6013
   58MOL   H13539009   1.506   4.111   6.005  0.3995  1.1212 -1.2165
   58MOL   H13639010   1.592   4.128   6.299  1.5178 -1.9958 -0.0386
   58MOL   H13739011   1.709   4.111   6.169 -1.2722  3.2048 -2.2325
   58MOL   N13839012   1.555   3.886   6.316  0.0701 -0.2915 -0.1223
   58MOL   C13939013   1.551   3.740   6.337  0.3148  0.0123  0.4469
   58MOL   C14039014   1.414   3.668   6.328  0.1623 -0.2070  1.0775
   58MOL   C14139015   1.367   3.637   6.184  0.3248 -0.0063  0.0840
   58MOL   C14239016   1.254   3.538   6.179 -0.1163 -0.1649 -0.3953
   58MOL   C14339017   1.137   3.566   6.279  0.1054  0.3083  0.0109
   58MOL   C14439018   1.054   3.687   6.248  0.3268 -1.3050 -0.4497
   58MOL   C14539019   0.904   3.657   6.225 -0.1009  0.0388  0.3402
   58MOL   C14639020   0.820   3.783   6.212 -0.3175  0.2540 -0.0928
   58MOL   C14739021   0.668   3.751   6.220 -0.9740 -0.1157 -0.1181
   58MOL   C14839022   0.585   3.879   6.223  0.2624 -0.1818 -0.2333
   58MOL   C14939023   0.432   3.859   6.194  0.6625  0.4147 -0.2574
   58MOL   O15039024   0.390   3.747   6.160  0.5288 -0.1872  0.6408
   58MOL   H15139025   1.541   3.949   6.393 -0.9328 -1.1972  0.4528
   58MOL   H15239026   1.621   3.691   6.270  1.3128  1.5588  0.3227
   58MOL   H15339027   1.591   3.731   6.438 -0.4626  3.8055  1.1897
   58MOL   H15439028   1.352   3.734   6.388 -1.0709  0.8290 -1.2355
   58MOL   H15539029   1.419   3.570   6.376 -1.2364 -1.1963 -0.7103
   58MOL   H15639030   1.329   3.725   6.132  0.4399 -1.0132 -1.7636
   58MOL   H15739031   1.453   3.615   6.121 -1.1918 -2.3864 -1.2402
   58MOL   H15839032   1.296   3.443   6.211  2.2333  1.4359  1.4532
   58MOL   H15939033   1.217   3.516   6.079  0.4451  1.2510 -0.9171
   58MOL   H16039034   1.184   3.559   6.377 -0.6853  0.0031  0.3762
   58MOL   H16139035   1.062   3.487   6.273  1.4482 -1.1275  1.5876
   58MOL   H16239036   1.044   3.757   6.331 -0.0029 -3.0969  1.0558
   58MOL   H16339037   1.093   3.740   6.161 -3.3300 -0.3052 -1.5530
   58MOL   H16439038   0.865   3.595   6.305 -1.3619  1.7534  1.0916
   58MOL   H16539039   0.892   3.588   6.142 -2.6576 -0.9749  1.5229
   58MOL   H16639040   0.849   3.848   6.294  0.2708 -1.5625  1.1837
   58MOL   H16739041   0.838   3.840   6.121 -1.2172  0.2898 -0.2527
   58MOL   H16839042   0.649   3.706   6.317  0.6490  1.7640  1.1302
   58MOL   H16939043   0.642   3.683   6.139 -1.3275  0.4012 -0.4393
   58MOL   H17039044   0.625   3.943   6.144  0.0861  0.0499 -0.1323
   58MOL   H17139045   0.595   3.931   6.318 -1.9073  0.7114 -0.4623
   58MOL   N17239046   0.349   3.963   6.217  0.5445  0.2113 -0.8219
   58MOL   C17339047   0.205   3.954   6.226  0.0626  0.2125 -0.4498
   58MOL   C17439048   0.163   4.091   6.279  0.0887  0.2473  0.8623
   58MOL   C17539049   0.011   4.115   6.293  0.0988  0.0732 -0.1895
   58MOL   C17639050   7.685   4.258   6.318 -0.1093 -0.3956  0.7717
   58MOL   C17739051   7.532   4.275   6.328  0.0437  0.2808 -0.0256
   58MOL   C17839052   7.483   4.413   6.385  0.0037 -0.2337 -0.0954
   58MOL   C17939053   7.515   4.536   6.303 -0.3009 -0.5051  0.5120
   58MOL   C18039054   7.408   4.649   6.336 -0.4272 -0.3772  0.1732
   58MOL   C18139055   7.424   4.773   6.248 -0.1485  0.3477 -0.3976
   58MOL   C18239056   7.302   4.865   6.254  0.8984 -0.4804  0.1256
   58MOL   C18339057   7.328   5.005   6.202  0.5040 -0.3691  0.4399
   58MOL   O18439058   7.436   5.060   6.188 -0.1224 -0.0703 -0.2871
   58MOL   H18539059   0.391   4.054   6.231 -0.3307  0.1973  2.2297
   58MOL   H18639060   0.171   3.933   6.125  1.9413  0.4318 -1.1364
   58MOL   H18739061   0.177   3.867   6.286  2.1210 -0.8463 -0.9763
   58MOL   H18839062   0.207   4.158   6.205  1.6074 -2.4779 -0.8130
   58MOL   H18939063   0.216   4.110   6.372 -0.1916  0.5631  0.9565
   58MOL   H19039064   7.686   4.081   6.198 -0.2944  1.1117 -0.4071
   58MOL   H19139065   7.695   4.045   6.370 -1.7665  0.4630 -0.5911
   58MOL   H19239066   0.013   4.312   6.234 -0.0218 -1.5044  0.0891
   58MOL   H19339067   0.012   4.285   6.414  1.0136 -2.2760  0.8246
   58MOL   H19439068   7.486   4.193   6.383 -1.2054  1.1474  0.2429
   58MOL   H19539069   7.495   4.270   6.225  0.9176  1.5603 -0.4157
   58MOL   H19639070   7.378   4.395   6.409  0.0042 -0.0819  0.0273
   58MOL   H19739071   7.521   4.433   6.486  2.1496 -3.2244 -0.2564
   58MOL   H19839072   7.503   4.525   6.195 -1.2750 -1.7356  0.7314
   58MOL   H19939073   7.620   4.560   6.312 -0.0509 -1.0254 -0.7996
   58MOL   H20039074   7.315   4.593   6.324 -0.3220 -1.2219  3.0067
   58MOL   H20139075   7.407   4.670   6.443 -1.3283 -0.2011  0.1352
   58MOL   H20239076   7.441   4.735   6.147 -1.4403 -1.5237  0.0657
   58MOL   H20339077   7.525   4.808   6.270 -0.3078 -0.1825  1.1742
   58MOL   H20439078   7.279   4.887   6.358 -1.2679  0.0038 -0.4420
   58MOL   H20539079   7.215   4.825   6.203  0.9171  1.8171 -1.7783
   58MOL   N20639080   7.221   5.083   6.186 -0.3439 -0.7756 -0.1229
   58MOL   C20739081   7.209   5.226   6.151  1.0832 -0.4673 -0.8737
   58MOL   C20839082   7.216   5.253   5.999  0.4386  0.1309  0.1651
   58MOL   C20939083   7.189   5.398   5.956  0.0778  0.5367 -0.0804
   58MOL   C21039084   7.224   5.433   5.809  0.4422  0.4125 -0.8250
   58MOL   C21139085   7.197   5.583   5.772  0.1409 -0.0678  0.0774
   58MOL   C21239086   7.291   5.684   5.849  0.4747  0.6511  0.3368
   58MOL   C21339087   7.272   5.820   5.792  0.1827 -0.3688  0.2755
   58MOL   C21439088   7.344   5.839   5.654 -0.0095  0.2054  0.3550
   58MOL   C21539089   7.293   5.967   5.573  0.4428  0.3114  0.3836
   58MOL   C21639090   7.334   5.976   5.428  0.2142 -1.2265  0.4764
   58MOL   C21739091   7.270   6.103   5.365 -0.1130  0.3514 -0.0670
   58MOL   O21839092   7.150   6.121   5.380 -0.4820 -0.6124  0.0211
   58MOL   H21939093   7.129   5.040   6.192 -0.3820 -1.0568 -2.2939
   58MOL   H22039094   7.279   5.279   6.214 -0.5157 -0.3215  0.8263
   58MOL   H22139095   7.110   5.260   6.184 -0.2473 -2.4923 -2.6002
   58MOL   H22239096   7.151   5.185   5.945  1.3443 -2.9260  2.7181
   58MOL   H22339097   7.312   5.229   5.952 -0.4555  0.5339 -1.9180
   58MOL   H22439098   7.086   5.422   5.985  0.1870  0.5858  0.2676
   58MOL   H22539099   7.253   5.460   6.017 -2.6410  2.0074  1.3872
   58MOL   H22639100   7.155   5.377   5.746  2.3393 -1.0421 -1.6682
   58MOL   H22739101   7.322   5.395   5.783  0.3922  0.3198 -0.8791
   58MOL   H22839102   7.097   5.607   5.808  0.1504  2.4841 -1.4229
   58MOL   H22939103   7.207   5.593   5.664 -2.2434  0.2630 -0.1318
   58MOL   H23039104   7.277   5.686   5.957  0.8386 -0.0453  0.3944
   58MOL   H23139105   7.394   5.656   5.832 -0.4921 -0.4580 -4.3300
   58MOL   H23239106   7.309   5.892   5.866 -2.3992  1.5100 -0.2032
   58MOL   H23339107   7.166   5.841   5.780  0.6034  2.5757  1.1570
   58MOL   H23439108   7.450   5.853   5.675 -0.5277  2.6914  1.4981
   58MOL   H23539109   7.340   5.755   5.585  2.0581 -0.4385  0.9942
   58MOL   H23639110   7.329   6.058   5.621  0.4202  0.6460 -0.2365
   58MOL   H23739111   7.185   5.975   5.580  0.5402  1.5833  0.5511
   58MOL   H23839112   7.290   5.891   5.375  1.4668 -0.7765 -1.3146
   58MOL   H23939113   7.440   5.963   5.406  0.4441  3.1704 -1.6267
   58MOL   N24039114   7.348   6.194   5.299  0.2503 -0.0268 -0.2812
   58MOL   C24139115   7.308   6.326   5.250  0.4576 -0.5881 -0.0332
   58MOL   C24239116   7.416   6.428   5.250 -0.7455  0.0160 -0.1565
   58MOL   C24339117   7.369   6.563   5.212 -0.2568 -0.7888 -0.2315
   58MOL   C24439118   7.474   6.670   5.218 -0.2979 -0.5010 -0.3336
   58MOL   C24539119   7.590   6.660   5.112  0.7030 -0.0472 -0.2361
   58MOL   C24639120   7.544   6.659   4.966  0.0187 -0.2442  0.5172
   58MOL   C24739121   7.665   6.631   4.876  0.5515  0.6399 -0.5557
   58MOL   C24839122   7.647   6.645   4.720  0.1368 -0.5072  0.2623
   58MOL   C24939123   0.003   6.539   4.636 -0.6612 -1.0396 -0.6824
   58MOL   C25039124   7.671   6.398   4.665  0.4201  0.3732 -0.2882
   58MOL   C25139125   7.526   6.384   4.635 -0.4694 -0.0140  0.4770
   58MOL   O25239126   7.486   6.409   4.520 -0.2901  0.5149 -0.1881
   58MOL   H25339127   7.444   6.167   5.279  0.0297 -1.6034  0.6979
   58MOL   H25439128   7.219   6.347   5.310  0.0932  0.4676 -0.9462
   58MOL   H25539129   7.266   6.310   5.151 -0.5795 -2.4956  0.6845
   58MOL   H25639130   7.487   6.395   5.174  0.3136 -1.0544  1.2733
   58MOL   H25739131   7.468   6.440   5.345 -4.2475 -0.5133  1.9163
   58MOL   H25839132   7.329   6.556   5.111 -1.9621  1.4458  0.2454
   58MOL   H25939133   7.292   6.604   5.277  0.5587  0.7440 -0.1890
   58MOL   H26039134   7.515   6.682   5.318 -0.7204  0.8412 -0.3101
   58MOL   H26139135   7.430   6.764   5.186 -0.0326 -0.1101  0.4368
   58MOL   H26239136   7.650   6.571   5.126 -0.0217 -0.1179  2.6967
   58MOL   H26339137   7.653   6.749   5.120  1.6471 -0.7057 -0.4150
   58MOL   H26439138   7.477   6.574   4.953 -0.0643 -0.4464  2.0978
   58MOL   H26539139   7.487   6.746   4.934  0.3879 -1.0078 -2.3150
   58MOL   H26639140   7.698   6.530   4.898  1.0633  1.0698  0.6925
   58MOL   H26739141   0.037   6.690   4.904  1.4167 -0.3568 -1.1267
   58MOL   H26839142   7.541   6.660   4.700 -0.0265 -0.5787  1.0521
   58MOL   H26939143   7.684   6.742   4.688  0.9757  0.1291  3.0716
   58MOL   H27039144   0.108   6.553   4.662 -1.4739  3.5902  0.5793
   58MOL   H27139145   0.004   6.576   4.534  1.2790  1.6843  0.2598
   58MOL   H27239146   7.697   6.372   4.768  0.0270  5.6870  1.3436
   58MOL   H27339147   7.708   6.317   4.603 -1.8678 -2.0700  1.4550
   58MOL   N27439148   7.457   6.346   4.737 -0.4720  1.0332  0.2271
   58MOL   C27539149   7.318   6.318   4.740  0.2338  0.4518 -0.2404
   58MOL   C27639150   7.286   6.182   4.815 -0.0854  0.3790  0.3085
   58MOL   C27739151   7.131   6.167   4.807  0.1428  0.0385 -0.9083
   58MOL   C27839152   7.076   6.034   4.859  0.8449  0.4120 -0.1237
   58MOL   C27939153   6.930   6.012   4.842  0.1185  0.1380  0.0132
   58MOL   C28039154   6.887   5.876   4.899 -0.4005 -0.4263  0.1870
   58MOL   C28139155   6.734   5.864   4.896 -0.0397  0.2251 -0.2655
   58MOL   C28239156   6.692   5.719   4.935  0.0353 -0.2837 -0.3435
   58MOL   C28339157   6.542   5.696   4.958  0.2196 -0.5225  0.2097
   58MOL   C28439158   6.514   5.566   5.022 -0.1266  1.0072  0.1422
   58MOL   C28539159   6.546   5.556   5.170  0.3176  0.3371 -0.5807
   58MOL   O28639160   6.659   5.546   5.205  0.4134  0.7018  0.3890
   58MOL   H28739161   7.517   6.311   4.811 -0.8385  3.3143  1.6532
   58MOL   H28839162   7.274   6.309   4.641  0.9280 -0.8100 -0.4459
   58MOL   H28939163   7.270   6.406   4.784  2.6799  1.0772  1.2652
   58MOL   H29039164   7.332   6.178   4.914  1.2740  1.3460 -0.2701
   58MOL   H29139165   7.332   6.098   4.762 -3.4917 -3.2952  2.8840
   58MOL   H29239166   7.088   6.246   4.869  1.3081 -1.2812  1.6525
   58MOL   H29339167   7.091   6.188   4.708  0.0730 -0.3101 -0.9538
   58MOL   H29439168   7.098   6.022   4.965  0.7372 -0.6005 -0.2129
   58MOL   H29539169   7.122   5.952   4.803 -0.1815 -0.3057  0.0622
   58MOL   H29639170   6.909   6.011   4.735  1.3910  1.4314 -0.2653
   58MOL   H29739171   6.873   6.091   4.890 -0.5066  0.1514 -0.7556
   58MOL   H29839172   6.929   5.804   4.828 -1.0890  0.0968 -0.7795
   58MOL   H29939173   6.929   5.856   4.997 -2.0823 -0.5339  0.9124
   58MOL   H30039174   6.694   5.870   4.795  0.9592 -0.0221 -0.6782
   58MOL   H30139175   6.683   5.948   4.944 -1.6553 -0.4243 -0.8100
   58MOL   H30239176   6.739   5.639   4.878  0.4484 -2.6073  3.0697
   58MOL   H30339177   6.736   5.702   5.033  2.3892 -2.1282 -1.6754
   58MOL   H30439178   6.492   5.707   4.862 -0.8423 -0.2127  0.7992
   58MOL   H30539179   6.488   5.772   5.014 -0.1122 -0.4192 -0.2455
   58MOL   H30639180   6.586   5.492   4.987 -1.2389 -0.6909  1.3330
   58MOL   H30739181   6.418   5.519   5.001 -0.2326  0.1246  2.5026
   58MOL   N30839182   6.439   5.569   5.250  0.6409 -0.1049 -0.5038
   58MOL   C30939183   6.444   5.618   5.383  0.1764  0.7416 -0.0713
   58MOL   C31039184   6.481   5.520   5.495 -0.4348 -0.7982  1.0177
   58MOL   C31139185   6.469   5.592   5.631 -0.2053 -0.4004  0.2215
   58MOL   C31239186   6.472   5.491   5.742  0.7165  0.0048 -0.3527
   58MOL   C31339187   6.507   5.560   5.874 -0.6937  0.0299 -0.3228
   58MOL   C31439188   6.486   5.472   5.994  0.1997 -0.0242 -0.4914
   58MOL   C31539189   6.579   5.348   6.004 -0.1256  0.5255 -0.4191
   58MOL   C31639190   6.588   5.288   6.144 -0.1912  0.1093 -0.0231
   58MOL   C31739191   6.682   5.162   6.166  0.2676 -0.3203  0.1499
   58MOL   C31839192   6.827   5.182   6.174 -0.5693 -0.2315  0.5775
   58MOL   C31939193   6.898   5.087   6.268 -0.0321  0.1454  0.7638
   58MOL   O32039194   6.934   4.970   6.237  0.6974 -0.6798  0.2172
   58MOL   H32139195   6.348   5.551   5.210 -0.6390 -0.1769  2.3641
   58MOL   H32239196   6.352   5.671   5.408  0.7054  2.2356 -1.2247
   58MOL   H32339197   6.521   5.694   5.393 -1.0595  2.0834 -0.6490
   58MOL   H32439198   6.578   5.472   5.482  0.9035  2.2963 -0.8198
   58MOL   H32539199   6.413   5.435   5.496 -2.6154  0.8542 -1.0270
   58MOL   H32639200   6.564   5.645   5.642  0.0039 -0.5728 -0.6832
   58MOL   H32739201   6.373   5.643   5.638 -0.0404 -0.3486  2.5359
   58MOL   H32839202   6.545   5.416   5.712  0.7038 -0.7593  1.4367
   58MOL   H32939203   6.375   5.442   5.748  0.4151  0.7461  1.1928
   58MOL   H33039204   6.458   5.656   5.893  0.2475  0.3968  0.3105
   58MOL   H33139205   6.613   5.581   5.885 -0.7212 -0.0524  0.1108
   58MOL   H33239206   6.510   5.531   6.082  2.8185 -2.0731  0.2346
   58MOL   H33339207   6.382   5.442   5.997 -0.0318  0.7271 -0.7710
   58MOL   H33439208   6.678   5.380   5.972 -0.0357  1.7200  1.0572
   58MOL   H33539209   6.538   5.273   5.935 -2.5216  1.6794 -0.3169
   58MOL   H33639210   6.601   5.370   6.215  2.0551 -1.4830  1.4830
   58MOL   H33739211   6.486   5.262   6.174 -0.7443  1.4350 -0.6812
   58MOL   H33839212   6.657   5.084   6.094 -0.2697  0.6354 -0.7154
   58MOL   H33939213   6.645   5.126   6.262  0.3709 -2.5944 -0.6137
   58MOL   H34039214   6.850   5.288   6.190  1.9721 -0.6634  0.0526
   58MOL   H34139215   6.867   5.169   6.074  1.7522 -1.3724  1.6042
   58MOL   N34239216   6.919   5.140   6.391  0.6322  0.1962  0.3972
   58MOL   C34339217   6.992   5.075   6.503  0.0999 -0.2629  0.1256
   58MOL   C34439218   6.891   5.060   6.622  0.0093 -0.0062 -0.5856
   58MOL   C34539219   6.771   4.970   6.584 -0.0063  0.7688 -0.2727
   58MOL   C34639220   6.667   4.945   6.695 -0.3321 -0.1152  0.0227
   58MOL   C34739221   6.523   4.964   6.649 -0.3943  0.1712  0.2442
   58MOL   C34839222   6.419   4.912   6.757  0.5639  0.2139  0.6677
   58MOL   C34939223   6.276   4.939   6.714  0.5794  0.4535 -0.0650
   58MOL   C35039224   6.156   4.891   6.800 -0.2188 -0.3585 -0.4740
   58MOL   C35139225   6.164   4.935   6.948  0.1476 -0.3577 -0.1506
   58MOL   C35239226   6.048   4.884   7.035  0.6786 -0.2252 -0.5418
   58MOL   C35339227   6.041   4.739   7.071  0.2451 -0.5739  0.5422
   58MOL   O35439228   6.125   4.696   7.150 -0.2597 -0.1208 -0.6634
   58MOL   H35539229   6.913   5.240   6.403  1.4407  0.1317  1.4302
   58MOL   H35639230   7.030   4.977   6.473  0.4126 -0.5335  1.3580
   58MOL   H35739231   7.083   5.128   6.528  0.3657 -0.9673  0.6952
   58MOL   H35839232   6.869   5.154   6.672  2.3477 -0.3092  1.0617
   58MOL   H35939233   6.934   5.009   6.708  2.2564  1.0210 -1.0717
   58MOL   H36039234   6.716   5.031   6.511 -0.6225  1.0052  0.3789
   58MOL   H36139235   6.797   4.877   6.534  1.6782  0.4072  1.2151
   58MOL   H36239236   6.679   5.025   6.768  0.8180  0.6685 -1.0039
   58MOL   H36339237   6.680   4.850   6.748 -0.7065 -0.0336  0.2623
   58MOL   H36439238   6.511   4.915   6.552  0.7424  1.6355 -0.6593
   58MOL   H36539239   6.507   5.069   6.625  0.9267 -0.3761 -3.2490
   58MOL   H36639240   6.441   4.808   6.780 -0.2966  0.0694  0.8403
   58MOL   H36739241   6.446   4.949   6.857 -0.1381 -2.7288  1.9982
   58MOL   H36839242   6.262   4.889   6.619  1.7836  1.8863 -1.0159
   58MOL   H36939243   6.265   5.044   6.686  0.3644  0.6905  0.8912
   58MOL   H37039244   6.062   4.927   6.758 -2.1106 -3.8017  0.6072
   58MOL   H37139245   6.151   4.783   6.793 -0.7810 -0.2369 -2.1500
   58MOL   H37239246   6.170   5.044   6.952 -0.3404 -0.3684  0.9095
   58MOL   H37339247   6.262   4.913   6.993 -0.4431 -1.1455  0.7740
   58MOL   H37439248   5.953   4.918   6.993  0.2608 -1.1236 -0.3380
   58MOL   H37539249   6.052   4.933   7.133  1.0383  0.1959 -0.7663
   58MOL   N37639250   5.949   4.666   7.009  0.9990  0.2294 -0.7455
   58MOL   C37739251   5.942   4.516   7.012 -0.4391  0.0637 -0.1479
   58MOL   C37839252   5.849   4.453   7.111  0.4108 -0.1990  0.0224
   58MOL   C37939253   5.829   4.307   7.094  0.1381  0.6059 -0.0034
   58MOL   C38039254   5.765   4.228   7.213  0.8076 -0.2042  0.3164
   58MOL   C38139255   5.848   4.216   7.342  1.1077 -0.2332  0.2820
   58MOL   C38239256   5.782   4.143   7.457 -0.6020  0.0183 -0.0314
   58MOL   C38339257   5.786   3.989   7.447  0.2498 -0.3612 -0.2904
   58MOL   C38439258   5.762   3.912   7.579  1.1638  0.2520  0.0910
   58MOL   C38539259   5.766   3.764   7.557  0.6857 -0.9547 -0.0120
   58MOL   C38639260   5.718   3.678   7.681 -0.9568  0.6862  0.1907
   58MOL   C38739261   5.787   3.697   0.094  0.7944  0.2790 -0.4611
   58MOL   O38839262   5.903   3.725   0.093 -0.2417 -0.1284  0.7330
   58MOL   H38939263   5.885   4.709   6.943  1.6905  0.7842 -1.0587
   58MOL   H39039264   5.927   4.484   6.910  1.5675 -2.9040  0.4329
   58MOL   H39139265   6.037   4.464   7.028 -0.2844 -0.3937 -2.4806
   58MOL   H39239266   5.746   4.488   7.103  0.1578 -0.7976  0.6140
   58MOL   H39339267   5.880   4.487   7.209  0.6885  1.7451 -0.7316
   58MOL   H39439268   5.754   4.290   7.016  0.4171 -1.4391  0.1473
   58MOL   H39539269   5.922   4.262   7.061  0.5643  0.7549  0.9688
   58MOL   H39639270   5.728   4.129   7.186  2.2583 -0.1142 -2.1003
   58MOL   H39739271   5.674   4.275   7.250 -0.1916 -1.4207 -0.5564
   58MOL   H39839272   5.859   4.320   7.373  0.8392  0.3295 -1.4232
   58MOL   H39939273   5.944   4.164   7.337  1.2758  0.1453 -0.4514
   58MOL   H40039274   5.825   4.170   7.554  1.8828 -4.7889  0.3755
   58MOL   H40139275   5.681   4.183   7.470 -0.0801  1.1982  0.4632
   58MOL   H40239276   5.881   3.955   7.405  0.4114  0.4330 -0.5682
   58MOL   H40339277   5.700   3.961   7.386 -1.1332 -0.9044  1.8162
   58MOL   H40439278   5.843   3.939   7.646  0.9736 -0.9787  0.8270
   58MOL   H40539279   5.665   3.948   7.614  0.7941  1.8774 -2.4114
   58MOL   H40639280   5.859   3.721   7.522  0.9817 -1.8627  1.7912
   58MOL   H40739281   5.693   3.742   7.479 -1.3283 -2.6449  2.2459
   58MOL   H40839282   5.722   3.574   7.650 -2.7708  1.3200 -2.3540
   58MOL   H40939283   5.612   3.701   7.674 -0.7088  2.0168  0.6101
   58MOL   N41039284   5.713   3.680   0.207  0.0063  0.4486  0.2187
   58MOL   C41139285   5.755   3.723   0.339 -0.1044 -0.1648  0.3850
   58MOL   C41239286   5.656   3.649   0.436  0.6752  0.0730  0.3291
   58MOL   C41339287   5.509   3.686   0.424 -0.2403  0.3268 -0.1310
   58MOL   C41439288   5.423   3.624   0.535  0.1630  0.0385  0.3428
   58MOL   C41539289   5.448   3.469   0.552  0.6339 -0.1573  0.5027
   58MOL   C41639290   5.333   3.422   0.639 -0.4725 -0.3921 -0.5921
   58MOL   C41739291   5.326   3.274   0.673 -0.6768  0.0081  0.4713
   58MOL   C41839292   5.283   3.225   0.814  0.0241  0.0861 -0.7266
   58MOL   C41939293   5.133   3.256   0.814 -0.0052 -0.5370 -0.3649
   58MOL   C42039294   5.058   3.243   0.947  0.0826 -0.0369  0.1005
   58MOL   C42139295   5.100   3.360   1.039  0.3350  1.2462 -1.4192
   58MOL   O42239296   5.012   3.437   1.077 -0.3279 -0.4706 -0.4440
   58MOL   H42339297   5.615   3.655   0.199 -0.1576  1.2869 -0.4773
   58MOL   H42439298   5.860   3.701   0.362 -0.1150 -3.1579 -2.0974
   58MOL   H42539299   5.754   3.832   0.338  0.3294 -0.1523 -1.3105
   58MOL   H42639300   5.688   3.659   0.539  0.0461 -1.2110  0.6601
   58MOL   H42739301   5.672   3.545   0.406  1.4952  0.6497 -1.3011
   58MOL   H42839302   5.493   3.793   0.414  0.5392  0.5630  1.0399
   58MOL   H42939303   5.478   3.640   0.330 -1.0935  0.6462 -0.0076
   58MOL   H43039304   5.319   3.658   0.533 -0.0994 -0.5640  2.6287
   58MOL   H43139305   5.450   3.679   0.626 -0.6241  0.6870  0.1915
   58MOL   H43239306   5.543   3.456   0.603  0.6103 -0.5869  0.4445
   58MOL   H43339307   5.450   3.424   0.452 -0.6825  2.6192 -0.8290
   58MOL   H43439308   5.333   3.463   0.740  1.0114 -0.7053 -0.4564
   58MOL   H43539309   5.236   3.443   0.593 -2.0378  0.3155  2.8224
   58MOL   H43639310   5.425   3.235   0.648  0.4625  2.2448  1.3248
   58MOL   H43739311   5.266   3.232   0.592  1.8762 -1.1344 -0.8991
   58MOL   H43839312   5.285   3.120   0.842  0.4523  0.7531  1.8414
   58MOL   H43939313   5.348   3.284   0.879 -1.0698 -1.1991  1.5913
   58MOL   H44039314   5.081   3.196   0.740  0.1577  1.2411 -1.9594
   58MOL   H44139315   5.118   3.359   0.782  0.3472  0.0987  1.4446
   58MOL   H44239316   5.073   3.146   0.995  1.4688 -0.2585 -0.7500
   58MOL   H44339317   4.954   3.255   0.918  0.2479 -1.2649 -1.0813
   58MOL   N44439318   5.221   3.353   1.091 -0.2820  0.1897  0.1893
   58MOL   C44539319   5.272   3.459   1.170 -0.9832 -0.4300 -0.5111
   58MOL   C44639320   5.396   3.415   1.245  0.4504  0.5370  0.4988
   58MOL   C44739321   5.461   3.536   1.320 -0.2011  0.3485  1.0489
   58MOL   C44839322   5.579   3.483   1.402 -0.3095 -0.0664 -0.5475
   58MOL   C44939323   5.653   3.595   1.489  0.1079  0.2859 -0.1401
   58MOL   C45039324   5.767   3.535   1.571 -0.4794 -0.3730 -0.4131
   58MOL   C45139325   5.855   3.631   1.652 -0.4042 -0.4409 -0.2032
   58MOL   C45239326   5.980   3.561   1.699 -0.0943 -0.0275 -0.4428
   58MOL   C45339327   6.094   3.655   1.743  0.1884  0.6636  0.0765
   58MOL   C45439328   6.073   3.719   1.887 -0.5276 -0.5171 -0.6169
   58MOL   C45539329   6.052   3.622   2.000 -0.7713  0.7561  0.0982
   58MOL   O45639330   6.032   3.499   1.983 -0.3812  0.1922  0.0087
   58MOL   H45739331   5.279   3.273   1.069  0.7414  0.4211  1.8993
   58MOL   H45839332   5.307   3.536   1.101 -3.2188  1.0486 -0.0508
   58MOL   H45939333   5.203   3.506   1.240 -0.3704 -0.0918 -0.1315
   58MOL   H46039334   5.466   3.367   1.176  0.0027 -1.5847  1.4742
   58MOL   H46139335   5.355   3.340   1.312  1.5924  0.6241  1.2907
   58MOL   H46239336   5.498   3.612   1.251 -0.4714 -1.7747 -1.5532
   58MOL   H46339337   5.382   3.579   1.382 -3.9193 -0.5911 -2.7976
   58MOL   H46439338   5.654   3.426   1.347 -0.8869 -1.5226  0.1671
   58MOL   H46539339   5.539   3.410   1.472 -3.7722 -0.6154 -2.9932
   58MOL   H46639340   5.581   3.656   1.544 -0.8635  0.8805 -2.0534
   58MOL   H46739341   5.715   3.663   1.430  1.2536 -0.6282 -0.0073
   58MOL   H46839342   5.717   3.460   1.634  0.2394 -0.8192 -0.3639
   58MOL   H46939343   5.842   3.481   1.514  0.8700  0.0621  0.9314
   58MOL   H47039344   5.805   3.663   1.743 -3.2333 -0.1822 -1.7623
   58MOL   H47139345   5.883   3.723   1.601 -1.5331  1.3288  2.2840
   58MOL   H47239346   5.952   3.478   1.763 -3.3212  2.1928  1.1655
   58MOL   H47339347   6.033   3.510   1.618  0.4779  1.2084 -0.8721
   58MOL   H47439348   6.108   3.738   1.674 -1.3163  0.0686 -0.9598
   58MOL   H47539349   6.193   3.608   1.748 -0.9265 -1.5852  1.7030
   58MOL   H47639350   5.982   3.779   1.884 -0.7200 -0.4222  3.6101
   58MOL   H47739351   6.152   3.791   1.907 -0.6818  0.1859 -2.4358
   58MOL   N47839352   6.058   3.671   2.125  0.4308  0.3609  0.3366
   58MOL   C47939353   6.064   3.594   2.251  0.2179 -0.4732 -0.2587
   58MOL   C48039354   6.211   3.581   2.306  0.0886 -0.1995  0.8089
   58MOL   C48139355   6.288   3.469   2.231 -0.6647 -0.0068 -0.1804
   58MOL   C48239356   6.428   3.440   2.291 -0.4694 -0.7939 -0.2890
   58MOL   C48339357   6.497   3.311   2.240  0.2545  0.5973  0.1039
   58MOL   C48439358   6.643   3.290   2.279 -0.7851  0.7242  0.3531
   58MOL   C48539359   6.670   3.279   2.432  0.5817 -0.1641  0.2621
   58MOL   C48639360   6.650   3.132   2.479 -0.5969  0.3163 -0.5200
   58MOL   C48739361   6.661   3.113   2.635 -0.4243  0.4828  0.6908
   58MOL   C48839362   6.650   2.968   2.677 -0.5163  0.8600  0.5113
   58MOL   C48939363   6.498   2.935   2.687  0.4689 -1.0500  0.0841
   58MOL   O49039364   6.440   2.940   2.795  0.1376 -0.2505 -0.0111
   58MOL   H49139365   6.043   3.771   2.133  2.2572  0.8179 -1.4886
   58MOL   H49239366   6.017   3.655   2.328  1.5455  0.6181 -0.2873
   58MOL   H49339367   6.015   3.497   2.257 -0.3239 -0.1141  1.2021
   58MOL   H49439368   6.209   3.563   2.414 -0.4581 -0.1304  0.8144
   58MOL   H49539369   6.247   3.680   2.280  0.2132 -0.6469 -0.7631
   58MOL   H49639370   6.226   3.380   2.239 -2.1895  1.1609  1.6096
   58MOL   H49739371   6.291   3.487   2.124 -1.2369 -0.1480 -0.2244
   58MOL   H49839372   6.428   3.442   2.400  2.3120 -0.0618 -0.2632
   58MOL   H49939373   6.496   3.519   2.262  1.7150 -1.9814  1.3740
   58MOL   H50039374   6.491   3.327   2.132  0.2934  0.8358  0.1361
   58MOL   H50139375   6.441   3.223   2.272  2.4134 -1.3716 -1.3924
   58MOL   H50239376   6.696   3.210   2.226 -0.9355  0.8813 -0.0373
   58MOL   H50339377   6.697   3.381   2.252  0.1455 -0.4665 -1.9944
   58MOL   H50439378   6.596   3.349   2.472  2.2446  1.7014  0.1406
   58MOL   H50539379   6.768   3.312   2.467  1.5534 -1.6124 -1.0369
   58MOL   H50639380   6.551   3.100   2.448 -1.0727  1.9293 -0.7149
   58MOL   H50739381   6.713   3.068   2.417 -2.5729 -2.3606  0.1754
   58MOL   H50839382   6.585   3.169   2.689 -1.4237 -1.3104  1.1856
   58MOL   H50939383   6.763   3.149   2.653 -0.5790 -0.1776  3.1125
   58MOL   H51039384   6.696   2.962   2.775 -0.1205  2.4641  0.4439
   58MOL   H51139385   6.699   2.896   2.612  0.4798  1.0169  1.0829
   58MOL   N51239386   6.430   2.887   2.580 -0.8232 -0.2464  0.1528
   58MOL   C51339387   6.294   2.834   2.594 -0.7153 -0.2198  1.1030
   58MOL   C51439388   6.294   2.692   2.641 -0.1985  0.4136 -0.1680
   58MOL   C51539389   6.382   2.599   2.554  0.6722  0.1061 -0.2076
   58MOL   C51639390   6.401   2.453   2.608  0.1111  0.4815  0.1689
   58MOL   C51739391   6.417   2.345   2.504 -0.2755 -0.6688  0.4113
   58MOL   C51839392   6.548   2.363   2.422 -0.2663  0.3474  0.4041
   58MOL   C51939393   6.552   2.290   2.289  0.5031 -0.5275 -1.2459
   58MOL   C52039394   6.661   2.331   2.199 -0.5819  0.3671 -0.3860
   58MOL   C52139395   6.642   2.472   2.136 -0.5313  0.0748 -0.2785
   58MOL   C52239396   6.760   2.518   2.060 -0.1555  0.4820  0.1895
   58MOL   C52339397   6.863   2.575   2.150  0.5507 -0.0525 -0.6241
   58MOL   O52439398   6.831   2.626   2.254  0.2464  0.0070  0.0648
   58MOL   H52539399   6.478   2.874   2.492 -0.1831 -0.9977  0.6123
   58MOL   H52639400   6.235   2.894   2.663  0.2823 -0.1022  1.8653
   58MOL   H52739401   6.240   2.846   2.501  2.2146 -2.7689 -1.0271
   58MOL   H52839402   6.189   2.664   2.628 -0.1287  0.7547 -1.4757
   58MOL   H52939403   6.328   2.676   2.744 -0.3567  2.4356  0.2198
   58MOL   H53039404   6.335   2.592   2.456  0.0556  1.0666  0.0119
   58MOL   H53139405   6.479   2.648   2.538  1.4574 -0.2536  3.1655
   58MOL   H53239406   6.310   2.425   2.662 -0.7712 -1.0668 -2.0565
   58MOL   H53339407   6.485   2.455   2.677  1.1761 -0.7324 -1.0646
   58MOL   H53439408   6.334   2.356   2.434  0.9642 -3.8463 -1.7068
   58MOL   H53539409   6.411   2.242   2.538 -0.3334 -0.0657  2.2878
   58MOL   H53639410   6.561   2.468   2.400  0.8621 -0.0017 -0.6164
   58MOL   H53739411   6.633   2.334   2.484 -0.0333  0.5885  0.1968
   58MOL   H53839412   6.462   2.317   2.232 -1.9108 -2.3527  1.5658
   58MOL   H53939413   6.538   2.184   2.310  2.1417 -0.2544  1.4388
   58MOL   H54039414   6.748   2.332   2.264 -0.6011  0.3721 -0.3606
   58MOL   H54139415   6.680   2.262   2.116  1.2688 -0.7953  0.9716
   58MOL   H54239416   6.607   2.550   2.203 -0.9052 -1.5522  1.4785
   58MOL   H54339417   6.563   2.461   2.062 -1.4856 -0.6749  0.8423
   58MOL   H54439418   6.730   2.597   1.990  1.3503  0.0631 -0.9606
   58MOL   H54539419   6.794   2.437   1.996 -2.3138 -0.0706 -0.2830
   58MOL   N54639420   6.991   2.558   2.110  0.0870  0.4723  0.1867
   58MOL   C54739421   7.118   2.591   2.178  0.6854  0.0694  0.1973
   58MOL   C54839422   7.231   2.494   2.141  0.1647 -0.0631  0.1341
   58MOL   C54939423   7.361   2.519   2.224 -0.5873 -0.6878  0.0907
   58MOL   C55039424   7.465   2.409   2.223 -0.2358  0.0717  0.3415
   58MOL   C55139425   7.578   2.436   2.319  0.3954  0.6429 -0.3394
   58MOL   C55239426   7.694   2.327   2.309  0.1286 -0.5882 -0.2081
   58MOL   C55339427   7.653   2.177   2.328  0.0626 -0.2881 -0.2280
   58MOL   C55439428   7.626   2.125   2.472  0.0492  0.6956  0.0483
   58MOL   C55539429   7.583   1.982   2.485 -0.2588  0.4219 -0.2840
   58MOL   C55639430   7.704   1.891   2.447 -0.7014 -0.1750 -0.0818
   58MOL   C55739431   7.705   1.837   2.304 -0.1061  0.6774  0.6045
   58MOL   O55839432   7.602   1.804   2.249 -0.4562  0.2573  0.3727
   58MOL   H55939433   7.003   2.516   2.019 -0.4642  1.3429 -0.2894
   58MOL   H56039434   7.157   2.693   2.165 -1.7799  0.9729 -0.3221
   58MOL   H56139435   7.102   2.582   2.286  2.5474  0.2355  0.5068
   58MOL   H56239436   7.254   2.500   2.035  0.6218  0.3645  0.2526
   58MOL   H56339437   7.195   2.393   2.161  0.5165 -0.5586 -1.6288
   58MOL   H56439438   7.400   2.614   2.190 -1.5155 -0.2884  0.1145
   58MOL   H56539439   7.328   2.536   2.327 -0.8625  0.0445 -0.1163
   58MOL   H56639440   7.500   2.401   2.120 -0.6501 -1.0507  0.2796
   58MOL   H56739441   7.424   2.315   2.258  2.2869 -0.7298  1.2375
   58MOL   H56839442   7.544   2.435   2.423 -1.2801 -1.2231 -0.8689
   58MOL   H56939443   7.624   2.532   2.297  1.0122 -0.0809 -2.3077
   58MOL   H57039444   0.030   2.340   2.214  0.2104 -0.5593 -0.1596
   58MOL   H57139445   0.055   2.350   2.384  1.0251 -0.8033 -1.0580
   58MOL   H57239446   0.020   2.126   2.279  0.0462 -1.0012  0.4725
   58MOL   H57339447   7.573   2.152   2.258 -0.1331  2.6040 -1.1036
   58MOL   H57439448   7.705   2.157   2.540 -1.6972  1.8095  1.6153
   58MOL   H57539449   7.542   2.182   2.513 -1.3876 -0.3788 -1.3354
   58MOL   H57639450   7.491   1.967   2.429 -0.4595  0.7538 -0.0443
   58MOL   H57739451   7.556   1.963   2.589  1.3116 -0.7796 -0.0755
   58MOL   H57839452   7.705   1.795   2.498  1.3416 -1.5458 -2.6013
   58MOL   H57939453   0.077   1.952   2.467 -1.5924  1.2511 -0.3763
   58MOL   N58039454   0.107   1.844   2.235 -0.5415 -0.3099  0.3830
   58MOL   C58139455   0.119   1.811   2.092  0.3138 -0.3418  0.0248
   58MOL   C58239456   0.259   1.764   2.052 -0.1066  0.3529 -0.3462
   58MOL   C58339457   0.303   1.638   2.120 -0.2402  0.3709  0.4163
   58MOL   C58439458   0.430   1.584   2.054 -0.7797 -0.4457  0.2038
   58MOL   C58539459   0.405   1.513   1.912 -0.2333 -0.7336 -0.5016
   58MOL   C58639460   0.538   1.469   1.853  0.0025  0.6860 -0.7605
   58MOL   C58739461   0.536   1.359   1.749 -0.0695  0.2180 -0.1082
   58MOL   C58839462   0.673   1.343   1.687 -0.3564 -0.1630 -0.2097
   58MOL   C58939463   0.730   1.461   1.604  0.1302  0.4751 -0.2361
   58MOL   C59039464   0.642   1.517   1.489  0.0019  0.7838 -0.1522
   58MOL   C59139465   0.722   1.604   1.395  0.2442  1.0056  0.8284
   58MOL   O59239466   0.823   1.660   1.435  0.4438 -0.1704  0.6374
   58MOL   H59339467   0.181   1.903   2.271 -0.1422  0.3278 -1.4383
   58MOL   H59439468   0.045   1.735   2.065  0.0925 -0.1919  0.2098
   58MOL   H59539469   0.096   1.910   2.053  0.4649 -0.6999 -0.9817
   58MOL   H59639470   0.325   1.843   2.089 -0.3849 -0.7489  2.7038
   58MOL   H59739471   0.260   1.756   1.944  0.4611  1.2507 -0.4103
   58MOL   H59839472   0.314   1.655   2.227  3.8389  0.1571  0.1147
   58MOL   H59939473   0.220   1.568   2.119  0.6353 -0.7545  3.0346
   58MOL   H60039474   0.479   1.520   2.128  0.5422  1.2260  0.8175
   58MOL   H60139475   0.502   1.665   2.041 -0.8250 -0.3589  0.4811
   58MOL   H60239476   0.343   1.573   1.845  0.2669 -1.1575 -1.3519
   58MOL   H60339477   0.340   1.432   1.946 -1.3201  0.4343  0.2570
   58MOL   H60439478   0.594   1.554   1.814 -0.1658  0.7037 -0.9667
   58MOL   H60539479   0.594   1.430   1.938  0.0984 -0.8912 -1.5144
   58MOL   H60639480   0.466   1.392   1.672  0.2042  2.2329  0.4695
   58MOL   H60739481   0.509   1.266   1.799 -2.6439 -0.4900 -2.6498
   58MOL   H60839482   0.741   1.324   1.770 -1.3682 -0.9045  0.4655
   58MOL   H60939483   0.676   1.252   1.627  0.4681 -1.7198  2.1031
   58MOL   H61039484   0.827   1.434   1.563 -0.0486  1.7584 -1.5307
   58MOL   H61139485   0.758   1.544   1.669 -0.2939 -0.1856  0.8047
   58MOL   H61239486   0.568   1.582   1.536 -0.4341 -0.2265  0.5648
   58MOL   H61339487   0.588   1.444   1.429 -0.8142  0.5043  0.9146
   58MOL   N61439488   0.674   1.615   1.269 -0.0222 -0.5277  0.0029
   58MOL   C61539489   0.719   1.711   1.180  0.4514 -0.1692 -0.5990
   58MOL   C61639490   0.635   1.836   1.199 -0.4280  0.3417  0.1097
   58MOL   C61739491   0.666   1.959   1.115 -0.8709 -0.0310 -0.2622
   58MOL   C61839492   0.656   1.933   0.961 -0.7904 -0.1665  0.3163
   58MOL   C61939493   0.513   1.928   0.911  0.0392 -1.1225 -0.6975
   58MOL   C62039494   0.510   1.882   0.766 -0.1545 -1.2525  0.2413
   58MOL   C62139495   0.374   1.865   0.705  0.3980 -0.1455  0.5514
   58MOL   C62239496   0.379   1.788   0.575 -0.0426 -0.3636 -0.3284
   58MOL   C62339497   0.493   1.829   0.478 -0.7375  0.4183 -0.3407
   58MOL   C62439498   0.460   1.828   0.325  0.3042  0.5047 -0.0850
   58MOL   C62539499   0.408   1.689   0.282  0.3219  0.0685 -0.7393
   58MOL   O62639500   0.484   1.591   0.262  0.1602 -0.1419  0.1890
   58MOL   H62739501   0.576   1.595   1.254 -0.1673  1.0360 -1.2521
   58MOL   H62839502   0.710   1.675   1.078  2.8657 -2.4505 -0.0622
   58MOL   H62939503   0.823   1.729   1.206  0.3689 -1.8931  1.0403
   58MOL   H63039504   0.639   1.874   1.301 -1.6721  2.7106 -0.6790
   58MOL   H63139505   0.529   1.811   1.194 -0.4022  0.1591  0.4929
   58MOL   H63239506   0.599   2.042   1.140  0.1176  0.8208 -0.3834
   58MOL   H63339507   0.771   1.975   1.139 -0.4386 -2.4686 -0.3745
   58MOL   H63439508   0.716   1.845   0.937  0.3682  0.8641 -0.6783
   58MOL   H63539509   0.707   2.013   0.906 -2.1100  0.5065  0.0481
   58MOL   H63639510   0.456   2.018   0.930  1.2956 -0.0583 -1.9166
   58MOL   H63739511   0.456   1.850   0.962  0.3142 -0.4518  0.6620
   58MOL   H63839512   0.568   1.953   0.707 -2.3729 -0.8283 -1.5241
   58MOL   H63939513   0.549   1.781   0.752  0.7449 -0.7979 -0.6222
   58MOL   H64039514   0.337   1.964   0.677  1.1317  0.8941  3.1239
   58MOL   H64139515   0.301   1.815   0.770 -0.7060  0.4650 -0.2076
   58MOL   H64239516   0.389   1.680   0.588  0.5996 -0.4984 -1.8767
   58MOL   H64339517   0.286   1.806   0.522  0.1192  2.2783  0.2117
   58MOL   H64439518   0.585   1.778   0.504  0.6062  3.3520  0.8793
   58MOL   H64539519   0.532   1.930   0.488  0.0455  0.0838  0.0546
   58MOL   H64639520   0.558   1.847   0.281  0.9056 -2.6978 -0.2192
   58MOL   H64739521   0.403   1.913   0.287 -0.2874  0.2664  0.2699
   58MOL   N64839522   0.272   1.672   0.260 -0.3842 -0.4176 -0.1993
   58MOL   C64939523   0.198   1.559   0.208 -0.3066 -0.0497 -0.6048
   58MOL   C65039524   0.080   1.515   0.287 -0.0552  0.0677 -0.8968
   58MOL   C65139525   0.026   1.384   0.219 -0.0808  0.7635 -0.3897
   58MOL   C65239526   7.625   1.332   0.295  0.0958  0.9371 -0.4323
   58MOL   C65339527   7.559   1.208   0.229 -0.0508  0.1429  0.5455
   58MOL   C65439528   7.447   1.160   0.321 -0.1715 -0.2266  0.1245
   58MOL   C65539529   7.400   1.012   0.309  0.1534 -0.2505  0.4038
   58MOL   C65639530   7.349   0.982   0.166 -0.3293  0.2987 -0.2050
   58MOL   C65739531   7.296   0.838   0.170 -0.3503 -0.0113  0.0868
   58MOL   C65839532   7.249   0.795   0.029  0.2422 -0.7225  0.3429
   58MOL   C65939533   7.221   0.652   0.012 -0.5130  0.1518  0.8021
   58MOL   O66039534   7.180   0.582   0.106 -0.1693  0.3111  0.0077
   58MOL   H66139535   0.210   1.752   0.269 -2.4433 -1.9981  0.1795
   58MOL   H66239536   0.267   1.477   0.190  1.2970  0.8996  1.0200
   58MOL   H66339537   0.156   1.596   0.115 -0.5241  3.0983  0.6724
   58MOL   H66439538   0.012   1.599   0.299  0.6452  0.4274  0.6011
   58MOL   H66539539   0.099   1.487   0.391 -0.8010  2.5313 -0.0843
   58MOL   H66639540   7.715   1.397   0.115 -1.1473  1.2128 -0.0653
   58MOL   H66739541   0.108   1.313   0.209  0.6745  1.6081 -0.2534
   58MOL   H66839542   7.553   1.411   0.317  0.2536  1.0999 -0.4987
   58MOL   H66939543   7.666   1.293   0.388 -0.6847  4.5332  1.5391
   58MOL   H67039544   7.635   1.133   0.205  0.9715  0.9705  1.1781
   58MOL   H67139545   7.520   1.244   0.133  0.3594  2.0521  1.0751
   58MOL   H67239546   7.477   1.180   0.424 -1.2010  0.0074  0.3889
   58MOL   H67339547   7.362   1.225   0.301 -0.7510 -0.5741  1.3748
   58MOL   H67439548   7.325   0.992   0.385 -1.0367  0.4150 -0.5668
   58MOL   H67539549   7.476   0.938   0.333  0.8243 -0.3635 -1.9105
   58MOL   H67639550   7.266   1.048   0.140  0.6006  2.0369  1.1147
   58MOL   H67739551   7.426   1.011   0.095 -0.6301  1.3299 -0.1150
   58MOL   H67839552   7.219   0.836   0.247  0.2289 -0.1351  0.6731
   58MOL   H67939553   7.372   0.765   0.198 -0.8213 -0.2762  0.7024
   58MOL   H68039554   7.328   0.824   7.675 -0.9992  1.5919 -0.1533
   58MOL   H68139555   7.154   0.840   0.002  0.7704  0.8965  1.0982
   58MOL   H68239556   7.246   0.608   7.632 -4.2980  1.3786 -0.8265
   59MOL     N139557   0.504   1.367   3.851  0.2185 -0.1831  0.0638
   59MOL     C239558   0.614   1.390   3.758  0.0607  0.0075 -0.3480
   59MOL     C339559   0.706   1.501   3.803  0.1645 -0.3860  0.0498
   59MOL     C439560   0.841   1.509   3.719 -0.3870  0.5826 -0.0241
   59MOL     C539561   0.933   1.607   3.790 -0.4969 -0.1413  0.4371
   59MOL     C639562   0.903   1.760   3.775 -0.2200  0.5211 -0.2238
   59MOL     C739563   0.997   1.872   3.839  1.2119  0.1800  0.1234
   59MOL     C839564   1.117   1.898   3.744 -0.0290  0.4841  0.3424
   59MOL     C939565   1.224   1.990   3.797  0.0585  0.3547  0.0595
   59MOL    C1039566   1.331   2.021   3.699  0.0743  0.7889  0.2212
   59MOL    C1139567   1.430   2.120   3.762  0.7463  0.2758  0.1336
   59MOL    C1239568   1.537   2.152   3.657  0.0167 -0.3488  0.5114
   59MOL    O1339569   1.597   2.062   3.604 -0.8506  0.2495  0.4423
   59MOL    H1439570   0.418   1.405   3.813 -0.0419  0.7972  1.5721
   59MOL    H1539571   0.582   1.414   3.657  2.8582 -1.7503 -1.7186
   59MOL    H1639572   0.664   1.295   3.742  0.0962  0.2737 -1.8170
   59MOL    H1739573   0.740   1.482   3.905  1.7766  0.1255 -0.3782
   59MOL    H1839574   0.655   1.597   3.816  0.6787 -0.1987  0.7416
   59MOL    H1939575   0.874   1.406   3.719 -1.0237  0.3668  1.6542
   59MOL    H2039576   0.826   1.550   3.619  0.3728  0.4279 -0.2028
   59MOL    H2139577   1.034   1.605   3.749 -0.5394  0.7279  0.3005
   59MOL    H2239578   0.950   1.569   3.891  1.9787 -1.7286 -0.5025
   59MOL    H2339579   0.807   1.766   3.827  1.8590  0.3951  3.7829
   59MOL    H2439580   0.882   1.781   3.670 -1.5056 -1.5837 -0.4251
   59MOL    H2539581   0.931   1.954   3.868  0.0633 -0.1300 -1.5372
   59MOL    H2639582   1.035   1.828   3.932  0.8182  1.7234  1.0404
   59MOL    H2739583   1.065   1.951   3.664 -2.5329 -2.8279 -0.2837
   59MOL    H2839584   1.173   1.817   3.697  0.1664  0.9945 -0.3187
   59MOL    H2939585   1.185   2.089   3.822  2.4901  1.1219  0.9042
   59MOL    H3039586   1.271   1.945   3.884  1.4105 -0.6996 -1.1882
   59MOL    H3139587   1.282   2.067   3.614  0.4660 -0.2082 -0.5520
   59MOL    H3239588   1.377   1.929   3.664 -0.9345  0.4258 -0.1703
   59MOL    H3339589   1.472   2.063   3.846 -1.8349 -1.2496  0.4460
   59MOL    H3439590   1.398   2.214   3.806  0.4186 -0.9896  2.6933
   59MOL    H3539591   0.497   1.266   3.852 -0.6957 -0.1318 -0.4831
   59MOL    N3639592   1.573   2.281   3.644  0.7541  0.0168  0.3553
   59MOL    C3739593   1.689   2.335   3.570 -0.1834 -0.1188  0.1045
   59MOL    C3839594   1.662   2.388   3.427  0.3437  0.7055 -0.7321
   59MOL    C3939595   1.791   2.448   3.373 -0.3177 -0.1503 -0.2976
   59MOL    C4039596   1.768   2.531   3.250  0.2369  0.3057  0.6124
   59MOL    C4139597   1.730   2.448   3.125  0.4240  0.3794 -0.0450
   59MOL    C4239598   1.707   2.527   2.990  0.3798  0.1711 -0.6869
   59MOL    C4339599   1.681   2.429   2.869  0.3287  0.2166  0.8214
   59MOL    C4439600   1.685   2.481   2.721 -0.1389  0.4729  0.1898
   59MOL    C4539601   1.655   2.381   2.610 -0.1165 -0.4599 -0.0570
   59MOL    C4639602   1.660   2.443   2.465  0.8408 -0.3976  0.3736
   59MOL    C4739603   1.634   2.328   2.356 -0.4189  0.2581 -0.5748
   59MOL    O4839604   1.688   2.217   2.365  0.0444 -0.7450  0.5000
   59MOL    H4939605   1.512   2.353   3.680  2.6937  0.5776  2.6979
   59MOL    H5039606   1.722   2.420   3.630 -3.1948  1.2274 -0.0235
   59MOL    H5139607   1.772   2.265   3.565  1.2899  1.4174  2.1257
   59MOL    H5239608   1.575   2.452   3.432 -1.2180 -1.4401  0.4131
   59MOL    H5339609   1.628   2.308   3.361  2.0267  0.1348 -0.9555
   59MOL    H5439610   1.837   2.514   3.447  2.7540 -2.4298 -0.0580
   59MOL    H5539611   1.861   2.365   3.363 -0.8260 -1.1860  3.8214
   59MOL    H5639612   1.855   2.589   3.219  0.6066 -0.5884 -0.0526
   59MOL    H5739613   1.687   2.604   3.260 -0.9231 -0.9526  0.5860
   59MOL    H5839614   1.645   2.380   3.131  0.0054  0.8231 -0.9077
   59MOL    H5939615   1.814   2.381   3.107  0.6567  0.6280  0.1116
   59MOL    H6039616   1.625   2.599   3.001  0.6021  0.7328 -2.4507
   59MOL    H6139617   1.803   2.574   2.967  0.1288  1.4103  0.7287
   59MOL    H6239618   1.586   2.380   2.892  0.0450 -0.5360 -1.7970
   59MOL    H6339619   1.751   2.345   2.869 -1.6194 -1.4384  2.0662
   59MOL    H6439620   1.623   2.571   2.726 -0.3073  0.4529 -1.4175
   59MOL    H6539621   1.789   2.513   2.711  1.5188 -4.1273  1.5324
   59MOL    H6639622   1.562   2.334   2.643  0.2477 -1.4185 -0.3714
   59MOL    H6739623   1.730   2.304   2.627  1.6198  1.4512  1.1094
   59MOL    H6839624   1.757   2.486   2.439  0.4010  0.4380  0.1075
   59MOL    H6939625   1.586   2.520   2.446  0.4191 -0.9631 -0.3330
   59MOL    N7039626   1.549   2.358   2.255  0.7193  0.1033 -0.1117
   59MOL    C7139627   1.496   2.263   2.164  0.1011  0.0635  0.5510
   59MOL    C7239628   1.351   2.297   2.112  0.3415  0.1086 -0.0700
   59MOL    C7339629   1.248   2.274   2.223 -0.5472 -0.7217  0.1421
   59MOL    C7439630   1.106   2.326   2.196  0.1076  0.3553  0.3675
   59MOL    C7539631   1.006   2.283   2.311  0.3185  0.0792  0.8366
   59MOL    C7639632   0.855   2.322   2.289  0.0095  0.0740  0.5408
   59MOL    C7739633   0.762   2.279   2.398 -0.4263 -0.2314  0.3948
   59MOL    C7839634   0.613   2.313   2.367  0.0718  0.0744  0.4970
   59MOL    C7939635   0.522   2.245   2.466 -0.8158  1.0012  0.1529
   59MOL    C8039636   0.373   2.249   2.434 -0.0054  0.0636  0.6764
   59MOL    C8139637   0.327   2.163   2.315 -0.7022  0.2794  0.0431
   59MOL    O8239638   0.322   2.040   2.324 -0.6102  0.3913 -0.2422
   59MOL    H8339639   1.491   2.437   2.279  1.0458  0.3829 -0.2404
   59MOL    H8439640   1.561   2.254   2.077 -0.6238 -0.7477  0.0874
   59MOL    H8539641   1.495   2.160   2.200  0.9708  0.0503  0.5479
   59MOL    H8639642   1.330   2.234   2.025 -1.3345  1.6209 -0.8087
   59MOL    H8739643   1.351   2.396   2.067  0.1599  1.7411  3.3910
   59MOL    H8839644   1.247   2.167   2.240 -1.1856 -1.0534 -1.9257
   59MOL    H8939645   1.287   2.324   2.313 -0.6933 -0.7907  0.2442
   59MOL    H9039646   1.073   2.292   2.098  2.3668 -0.1484 -0.2314
   59MOL    H9139647   1.106   2.435   2.191  0.0835  0.4115  1.4996
   59MOL    H9239648   1.036   2.310   2.413  1.5394 -0.5090  0.6400
   59MOL    H9339649   1.019   2.175   2.314  2.4065  0.3086  1.4690
   59MOL    H9439650   0.837   2.426   2.263 -0.2071 -0.1653 -0.2673
   59MOL    H9539651   0.827   2.273   2.196  1.9124  2.7334 -1.4785
   59MOL    H9639652   0.790   2.331   2.489  0.5594  1.9565 -1.1145
   59MOL    H9739653   0.766   2.171   2.413 -0.6239 -0.1118  1.3459
   59MOL    H9839654   0.591   2.419   2.372 -0.2289  0.0619 -0.4572
   59MOL    H9939655   0.593   2.284   2.263  3.0164  1.2099 -0.4311
   59MOL   H10039656   0.544   2.293   2.562 -0.5408 -0.1649  0.6793
   59MOL   H10139657   0.562   2.145   2.479  0.6591  1.4624 -0.6942
   59MOL   H10239658   0.335   2.350   2.425 -2.1114 -0.7374  0.1248
   59MOL   H10339659   0.329   2.212   2.526 -0.7116  0.7167  0.6054
   59MOL   N10439660   0.319   2.228   2.199  0.2141  0.1728  0.1802
   59MOL   C10539661   0.264   2.160   2.079  0.1301 -0.5388 -0.2038
   59MOL   C10639662   0.258   2.259   1.963  0.3470 -0.4023  0.3535
   59MOL   C10739663   0.200   2.184   1.833  0.6704  0.6693 -0.5123
   59MOL   C10839664   0.211   2.266   1.702  0.1803  0.0274  0.2712
   59MOL   C10939665   0.108   2.379   1.702  0.4087  0.5530  0.1994
   59MOL   C11039666   7.681   2.325   1.682 -0.4458 -0.2106  0.7641
   59MOL   C11139667   7.572   2.358   1.784  0.5842 -0.4841  0.1080
   59MOL   C11239668   7.455   2.261   1.771  0.2173 -0.4453 -0.1065
   59MOL   C11339669   7.330   2.298   1.851  0.1520  0.1523 -0.6120
   59MOL   C11439670   7.235   2.176   1.859 -0.2274 -0.4182 -0.1210
   59MOL   C11539671   7.098   2.203   1.909 -0.2955  0.4893  0.0337
   59MOL   O11639672   7.051   2.317   1.902  0.1856 -0.6127 -0.1672
   59MOL   H11739673   0.328   2.329   2.199  1.6964  0.1295 -3.9639
   59MOL   H11839674   0.352   2.099   2.057  0.0721 -1.4886  2.0693
   59MOL   H11939675   0.174   2.098   2.078 -0.0454 -0.3062 -2.1355
   59MOL   H12039676   0.351   2.312   1.943  0.3904 -0.3485  0.6815
   59MOL   H12139677   0.200   2.345   1.996  0.0909 -0.5491  0.2882
   59MOL   H12239678   0.244   2.085   1.825 -1.0409 -0.1872  0.1784
   59MOL   H12339679   0.093   2.163   1.845  0.9825 -0.2817  0.7045
   59MOL   H12439680   0.186   2.221   1.606  0.0648  0.4308  0.1097
   59MOL   H12539681   0.309   2.311   1.689 -0.1653  0.8776  0.5690
   59MOL   H12639682   0.149   2.440   1.621  1.7026  0.3176  0.6554
   59MOL   H12739683   0.110   2.436   1.795 -2.5552 -0.3010  0.8341
   59MOL   H12839684   7.643   2.361   1.587  0.2493  1.5184  1.1189
   59MOL   H12939685   7.677   2.217   1.666 -0.9441 -0.0843  0.0305
   59MOL   H13039686   7.535   2.460   1.783  0.3942 -0.5550 -0.5068
   59MOL   H13139687   7.612   2.343   1.884  2.1867  0.0125 -0.4601
   59MOL   H13239688   7.416   2.267   1.670  0.2201 -3.2826 -0.3074
   59MOL   H13339689   7.493   2.164   1.802 -0.3260 -0.4942  0.4377
   59MOL   H13439690   7.274   2.379   1.805  0.5452  0.4926 -0.4957
   59MOL   H13539691   7.355   2.332   1.951  1.1434 -0.2826 -0.7056
   59MOL   H13639692   7.282   2.094   1.913  0.2943  0.3262  0.5611
   59MOL   H13739693   7.229   2.146   1.754 -1.8288  2.9578 -1.0604
   59MOL   N13839694   7.026   2.098   1.961 -0.9320 -0.4481 -0.5997
   59MOL   C13939695   6.887   2.126   2.006  0.0588  0.7017 -0.7579
   59MOL   C14039696   6.824   2.003   2.084  0.7080 -0.6802 -0.4196
   59MOL   C14139697   6.819   1.877   2.004 -0.2924  0.4167 -0.5508
   59MOL   C14239698   6.723   1.770   2.059 -0.4322  0.1967  0.4575
   59MOL   C14339699   6.754   1.639   1.991 -0.2656  0.5813 -0.2800
   59MOL   C14439700   6.671   1.516   2.042  0.9421  0.3497 -0.4106
   59MOL   C14539701   6.698   1.385   1.964 -0.7310 -0.7795 -0.3667
   59MOL   C14639702   6.593   1.274   1.999 -0.8315  0.1417  0.5762
   59MOL   C14739703   6.603   1.239   2.151  0.1440  0.1370  0.2992
   59MOL   C14839704   6.538   1.113   2.201  0.6507  0.1098  0.3927
   59MOL   C14939705   6.387   1.131   2.221 -0.6243  0.2827  0.0314
   59MOL   O15039706   6.328   1.238   2.200  0.4086 -0.2064 -0.2379
   59MOL   H15139707   7.063   2.005   1.972 -0.5368 -0.5670 -2.7761
   59MOL   H15239708   6.906   2.216   2.065 -2.0205  1.5104 -1.2573
   59MOL   H15339709   6.821   2.162   1.927 -1.5576 -0.5552 -0.0115
   59MOL   H15439710   6.727   2.037   2.121  1.9414  1.3621  1.0454
   59MOL   H15539711   6.878   1.997   2.178  2.0878  0.0897 -1.1430
   59MOL   H15639712   6.782   1.903   1.905  0.4281  1.1335 -0.6283
   59MOL   H15739713   6.922   1.842   1.998 -0.8449 -1.4205  0.1657
   59MOL   H15839714   6.618   1.790   2.038 -0.9868 -3.7024 -0.9309
   59MOL   H15939715   6.729   1.752   2.167 -0.6950  0.5234  0.5278
   59MOL   H16039716   6.854   1.601   2.008 -0.1599  1.4646  1.2397
   59MOL   H16139717   6.730   1.648   1.886  1.1945  0.4258 -0.6386
   59MOL   H16239718   6.703   1.493   2.144 -2.6543  1.8209  1.1155
   59MOL   H16339719   6.566   1.544   2.039  0.2078 -1.9994  1.3717
   59MOL   H16439720   6.799   1.345   1.972 -1.1532 -2.2225 -1.8996
   59MOL   H16539721   6.684   1.407   1.859 -0.9424 -1.3474 -0.4615
   59MOL   H16639722   6.494   1.313   1.976 -0.5711  1.0457  0.9720
   59MOL   H16739723   6.612   1.185   1.940  4.1425  1.0284  0.6599
   59MOL   H16839724   6.560   1.314   2.217  0.6636  0.0385  0.7530
   59MOL   H16939725   6.711   1.226   2.164 -0.1316 -1.3833  1.1815
   59MOL   H17039726   6.580   1.089   2.299 -0.5368 -2.6614  0.2667
   59MOL   H17139727   6.569   1.031   2.137  1.8920 -0.6979  1.9913
   59MOL   N17239728   6.316   1.021   2.256  0.3069  0.0263  0.1615
   59MOL   C17339729   6.169   1.019   2.254 -0.1897 -0.0470  0.3317
   59MOL   C17439730   6.123   1.071   2.394  0.2040  0.2517 -0.0930
   59MOL   C17539731   5.973   1.105   2.424 -0.1481  0.5167  0.1905
   59MOL   C17639732   5.887   0.989   2.456  0.2480  0.1773  0.1258
   59MOL   C17739733   5.765   1.030   2.539 -0.3716 -0.5063  0.2636
   59MOL   C17839734   5.649   1.092   2.469 -0.6049  0.1029 -0.0335
   59MOL   C17939735   5.571   0.985   2.387 -0.2053 -0.3991 -0.8520
   59MOL   C18039736   5.490   0.888   2.478 -0.6646 -0.4556 -0.5822
   59MOL   C18139737   5.385   0.818   2.408 -0.4833  0.4922 -0.0038
   59MOL   C18239738   5.293   0.732   2.494 -0.6730 -0.3155  0.1632
   59MOL   C18339739   5.145   0.722   2.452 -0.4761  0.0060 -0.8180
   59MOL   O18439740   5.107   0.779   2.348  0.2322 -0.2818  0.8251
   59MOL   H18539741   6.357   0.929   2.256 -0.3859 -0.3051  2.0996
   59MOL   H18639742   6.123   1.073   2.171  0.6267 -1.0758 -0.8108
   59MOL   H18739743   6.143   0.913   2.243 -0.8858  0.3125 -1.6940
   59MOL   H18839744   6.173   1.168   2.408  0.5189  0.1988 -0.8184
   59MOL   H18939745   6.161   1.015   2.479  0.7177  0.6439 -0.0594
   59MOL   H19039746   5.969   1.171   2.511  2.3211  0.9276  0.0349
   59MOL   H19139747   5.928   1.151   2.337 -0.4947 -0.8437 -0.3655
   59MOL   H19239748   5.950   0.925   2.518  2.1002  1.4155 -0.4579
   59MOL   H19339749   5.856   0.931   2.369 -2.0629 -0.0980  1.0933
   59MOL   H19439750   5.790   1.086   2.629 -0.9160 -0.2493  0.2564
   59MOL   H19539751   5.738   0.931   2.576 -0.6372 -0.0765  1.2293
   59MOL   H19639752   5.578   1.123   2.545 -1.1864 -0.9571 -0.1349
   59MOL   H19739753   5.679   1.181   2.414 -1.5452  0.8627  0.6777
   59MOL   H19839754   5.647   0.932   2.329  1.9682  0.2308  1.3175
   59MOL   H19939755   5.512   1.034   2.310 -0.6429  2.5763  1.3220
   59MOL   H20039756   5.548   0.816   2.536 -1.8960 -2.2996 -1.6070
   59MOL   H20139757   5.434   0.942   2.555 -0.8985  0.0226 -1.0867
   59MOL   H20239758   5.431   0.761   2.327 -1.3992  0.5122 -0.5469
   59MOL   H20339759   5.333   0.896   2.352  1.5609  0.8955 -1.3672
   59MOL   H20439760   5.295   0.761   2.599 -0.7328 -2.2264  0.7089
   59MOL   H20539761   5.343   0.635   2.495 -0.5199 -0.2240  2.8678
   59MOL   N20639762   5.067   0.644   2.524  0.3627 -0.3267  0.2337
   59MOL   C20739763   4.931   0.623   2.492 -0.4745 -0.0721 -0.6778
   59MOL   C20839764   4.871   0.514   2.578  0.2916  0.9135 -0.2821
   59MOL   C20939765   4.719   0.505   2.549  0.2986  0.1806  0.6067
   59MOL   C21039766   4.657   0.400   2.645  0.1220 -0.3599 -0.5099
   59MOL   C21139767   4.508   0.421   2.658 -0.1554  0.2289 -0.2339
   59MOL   C21239768   4.446   0.341   2.772  0.0056  0.3816 -0.0523
   59MOL   C21339769   4.480   0.190   2.777 -0.9127 -0.1777  0.1669
   59MOL   C21439770   4.461   0.113   2.642 -0.4990 -0.3362 -0.3133
   59MOL   C21539771   4.323   0.120   2.582 -0.1340 -0.1428  0.6113
   59MOL   C21639772   4.297   0.044   2.452 -0.0552  0.3578  0.2634
   59MOL   C21739773   4.158   0.078   2.388 -0.0520 -0.0154 -0.7365
   59MOL   O21839774   4.124   0.192   2.374  0.0689 -0.0739 -0.1676
   59MOL   H21939775   5.096   0.605   2.613 -0.3954  1.4027  1.2502
   59MOL   H22039776   4.922   0.601   2.385 -1.0467 -1.2870 -0.3923
   59MOL   H22139777   4.884   0.720   2.498 -0.0585  0.0728  0.2922
   59MOL   H22239778   4.876   0.542   2.683 -2.1300  1.4854 -0.3077
   59MOL   H22339779   4.920   0.418   2.562  0.3692  1.1725 -1.6898
   59MOL   H22439780   4.685   0.603   2.583 -1.4785 -0.7112  1.4212
   59MOL   H22539781   4.691   0.505   2.443  0.5532  0.0554  0.5390
   59MOL   H22639782   4.707   0.420   2.740  0.6757 -0.4763 -0.7756
   59MOL   H22739783   4.689   0.300   2.616 -0.1832  0.2577 -3.0405
   59MOL   H22839784   4.454   0.396   2.567 -0.1336  1.4513 -0.5902
   59MOL   H22939785   4.483   0.526   2.676 -1.0645 -0.4188  2.4178
   59MOL   H23039786   4.461   0.385   2.870 -1.2920  0.4067  0.1430
   59MOL   H23139787   4.339   0.360   2.763 -0.2606 -1.1652 -0.4304
   59MOL   H23239788   4.407   0.144   2.845  1.2057 -1.8239  1.3764
   59MOL   H23339789   4.578   0.164   2.815 -0.5017 -0.8449 -1.3014
   59MOL   H23439790   4.533   0.162   2.576 -0.9369 -1.5213 -1.6823
   59MOL   H23539791   4.498   0.011   2.647  0.2693 -0.0339  0.2656
   59MOL   H23639792   4.293   0.225   2.573  0.5821 -0.0580 -0.9461
   59MOL   H23739793   4.253   0.073   2.651  0.2265  0.6532  1.5430
   59MOL   H23839794   4.301   7.654   2.479 -1.3738 -0.4385 -2.4409
   59MOL   H23939795   4.369   0.068   2.374  2.4073  0.1218  2.3942
   59MOL   N24039796   4.083   7.686   2.365 -0.4440 -0.2139  0.7010
   59MOL   C24139797   3.945   7.689   2.312  0.0487 -0.0711  0.3794
   59MOL   C24239798   3.861   7.566   2.351 -0.1472 -0.2828 -0.0869
   59MOL   C24339799   3.735   7.553   2.267 -0.2336  0.1191 -0.8178
   59MOL   C24439800   3.643   7.436   2.312  0.4850  0.3358 -0.2718
   59MOL   C24539801   3.490   7.450   2.262 -1.3016 -0.4261 -0.2225
   59MOL   C24639802   3.399   7.336   2.298 -0.0034  0.3760  0.4806
   59MOL   C24739803   3.251   7.382   2.295 -0.3504 -0.6186  0.2720
   59MOL   C24839804   3.165   7.276   2.349  1.2121  0.5927  0.2064
   59MOL   C24939805   3.018   7.328   2.366 -0.0078  0.0646  0.0521
   59MOL   C25039806   2.987   7.416   2.487  0.0947  1.2758  0.4896
   59MOL   C25139807   3.008   7.358   2.627 -0.0221 -0.4596 -0.4636
   59MOL   O25239808   2.931   7.290   2.689  0.0258  0.2840  0.2954
   59MOL   H25339809   4.126   7.595   2.368  0.4966  0.2125  0.2199
   59MOL   H25439810   3.968   0.002   2.209  1.4737 -1.6309  0.2397
   59MOL   H25539811   3.894   0.062   2.350 -1.4213 -1.5200  1.8905
   59MOL   H25639812   3.834   7.568   2.457 -0.9966 -1.5432 -0.2667
   59MOL   H25739813   3.918   7.474   2.336  1.7460  1.1317 -1.7759
   59MOL   H25839814   3.675   7.644   2.277  0.0732  0.1992  0.3741
   59MOL   H25939815   3.767   7.541   2.164 -1.3157 -0.2134 -1.1216
   59MOL   H26039816   3.640   7.435   2.421  0.6662 -1.8227 -0.2700
   59MOL   H26139817   3.688   7.344   2.276 -0.4766  0.2983 -1.4130
   59MOL   H26239818   3.491   7.456   2.153 -2.2907 -2.3640 -0.3558
   59MOL   H26339819   3.453   7.547   2.297  0.3495  0.4674 -0.8955
   59MOL   H26439820   3.402   7.259   2.221  0.5496 -0.6377  1.5076
   59MOL   H26539821   3.419   7.280   2.389  0.2629 -0.5429 -0.1418
   59MOL   H26639822   3.222   7.427   2.200  1.4676 -0.6307 -0.3063
   59MOL   H26739823   3.253   7.464   2.367  2.0473  1.2206 -1.8039
   59MOL   H26839824   3.157   7.192   2.280 -3.6557  2.0770 -1.2501
   59MOL   H26939825   3.205   7.240   2.443  0.8371  0.0702  0.1662
   59MOL   H27039826   2.951   7.242   2.364  2.1600 -1.6391 -1.1245
   59MOL   H27139827   2.994   7.371   2.269  0.6921 -4.1903 -2.1301
   59MOL   H27239828   2.882   7.441   2.474 -0.8167 -1.4589  2.3480
   59MOL   H27339829   3.029   7.517   2.481 -0.3694  1.3713 -1.6954
   59MOL   N27439830   3.130   7.391   2.679 -0.2334  0.1873  1.1715
   59MOL   C27539831   3.193   7.340   2.796 -0.4758  0.1109  0.6538
   59MOL   C27639832   3.347   7.317   2.786 -0.1853  0.8401 -0.3922
   59MOL   C27739833   3.389   7.201   2.702 -0.1256 -0.0448 -0.3089
   59MOL   C27839834   3.545   7.212   2.661  0.5721  0.4334  0.1284
   59MOL   C27939835   3.594   7.074   2.615  0.4045 -0.8966 -0.4108
   59MOL   C28039836   3.561   7.055   2.466  0.5451 -0.2506 -0.7392
   59MOL   C28139837   3.620   6.918   2.420 -0.4080  0.3164 -0.3688
   59MOL   C28239838   3.623   6.905   2.267  0.5337  0.3185 -0.1106
   59MOL   C28339839   3.698   6.780   2.213  0.6303 -0.0741 -0.5154
   59MOL   C28439840   3.676   6.766   2.064 -0.4703 -0.0598  0.3935
   59MOL   C28539841   3.776   6.856   1.982  0.0378 -0.7105  0.6075
   59MOL   O28639842   3.897   6.843   1.992  0.0509  0.7608 -0.0828
   59MOL   H28739843   3.187   7.453   2.624  0.7108 -1.0556  0.7251
   59MOL   H28839844   3.141   7.247   2.815  0.6719 -1.2428 -2.4138
   59MOL   H28939845   3.185   7.414   2.876 -0.4031 -0.4144  1.1475
   59MOL   H29039846   3.386   7.319   2.888 -2.1904  1.4238  0.3996
   59MOL   H29139847   3.384   7.412   2.747 -0.6769  1.0243 -0.4168
   59MOL   H29239848   3.367   7.111   2.758 -0.1919  0.8674  1.1467
   59MOL   H29339849   3.320   7.208   2.617 -1.1771 -2.1362  0.3495
   59MOL   H29439850   3.604   7.236   2.749  1.2125 -0.2866 -0.0944
   59MOL   H29539851   3.561   7.288   2.585  0.0036 -0.0076 -0.4458
   59MOL   H29639852   3.549   6.992   2.671  0.5640 -0.1245  0.8554
   59MOL   H29739853   3.702   7.079   2.625  0.2336  1.2017  0.6804
   59MOL   H29839854   3.454   7.047   2.446  0.9163 -0.9110 -2.5445
   59MOL   H29939855   3.592   7.142   2.408  2.2759 -1.3324 -1.4614
   59MOL   H30039856   3.564   6.834   2.460 -1.9377  0.8237 -1.4182
   59MOL   H30139857   3.721   6.908   2.460 -0.3781 -1.7353 -0.9018
   59MOL   H30239858   3.521   6.905   2.228  0.8875 -0.5041 -1.0740
   59MOL   H30339859   3.667   6.999   2.233  2.9406 -0.5833  0.3842
   59MOL   H30439860   3.655   6.687   2.251 -0.2777  0.2923 -0.6362
   59MOL   H30539861   3.800   6.769   2.250  0.1608 -0.3734  0.7182
   59MOL   H30639862   3.575   6.794   2.034 -0.1731 -0.4847 -1.0188
   59MOL   H30739863   3.698   6.666   2.027 -1.0442 -0.4556  1.1016
   59MOL   N30839864   3.723   6.943   1.896  0.9416  0.1802 -0.0040
   59MOL   C30939865   3.790   7.060   1.848  0.8229 -0.0555  0.0939
   59MOL   C31039866   3.749   7.181   1.933  0.0410  0.7469 -0.9475
   59MOL   C31139867   3.607   7.226   1.934  0.0452 -0.2795 -0.5799
   59MOL   C31239868   3.567   7.305   1.813  0.6849  0.0353 -0.1986
   59MOL   C31339869   3.421   7.364   1.813 -0.4656 -0.2104 -0.1589
   59MOL   C31439870   3.303   7.287   1.872 -1.0330 -0.0460  0.4023
   59MOL   C31539871   3.167   7.358   1.837  0.1380  0.2777 -0.0239
   59MOL   C31639872   3.051   7.259   1.863 -0.2344  0.2500  0.2523
   59MOL   C31739873   2.911   7.295   1.801  0.0317  0.1051  0.2383
   59MOL   C31839874   2.811   7.185   1.824  0.7644 -0.2136  0.8875
   59MOL   C31939875   2.754   7.195   1.969 -0.3996 -0.3621 -0.4745
   59MOL   O32039876   2.685   7.291   1.993  0.0718 -0.8868  0.2970
   59MOL   H32139877   3.623   6.939   1.883  0.9788 -0.4896 -0.1066
   59MOL   H32239878   3.753   7.075   1.746 -0.1139 -1.8129  0.1479
   59MOL   H32339879   3.897   7.041   1.846  0.7491 -0.4317 -0.4732
   59MOL   H32439880   3.814   7.262   1.899 -0.1627  1.0882 -0.5324
   59MOL   H32539881   3.796   7.168   2.031 -0.8957  0.8023 -0.4853
   59MOL   H32639882   3.539   7.142   1.941 -2.6016  1.6816 -1.9910
   59MOL   H32739883   3.597   7.292   2.020 -0.8085 -0.4847 -0.5235
   59MOL   H32839884   3.575   7.240   1.726  2.0785 -1.3565  0.9302
   59MOL   H32939885   3.631   7.390   1.789 -1.3920  1.8063  0.3566
   59MOL   H33039886   3.391   7.380   1.710  1.0059 -1.0634 -0.7499
   59MOL   H33139887   3.431   7.465   1.852  1.5512 -1.6770  3.4094
   59MOL   H33239888   3.305   7.186   1.831  0.9792  0.2792 -0.3461
   59MOL   H33339889   3.305   7.272   1.979 -0.5943 -0.1026  0.3846
   59MOL   H33439890   3.169   7.397   1.736 -1.1841 -2.8068 -1.3063
   59MOL   H33539891   3.158   7.449   1.896 -1.4366 -0.5009  0.9833
   59MOL   H33639892   3.077   7.162   1.821 -1.9035  0.3214 -1.0334
   59MOL   H33739893   3.047   7.242   1.970 -3.9106  0.0516  0.1522
   59MOL   H33839894   2.929   7.312   1.695  2.5634  1.5444  0.8688
   59MOL   H33939895   2.873   7.390   1.838 -2.0109 -0.7704  0.4589
   59MOL   H34039896   2.853   7.085   1.813  0.3896 -0.2466 -0.2969
   59MOL   H34139897   2.724   7.187   1.757  0.6957 -1.3301  0.9438
   59MOL   N34239898   2.766   7.087   2.047  0.3770  0.0945 -0.3071
   59MOL   C34339899   2.701   7.068   2.179  0.3535 -0.1074 -0.1375
   59MOL   C34439900   2.793   6.991   2.273  0.6470 -0.4763  0.5263
   59MOL   C34539901   2.719   6.952   2.400  0.3930 -0.2194 -0.6993
   59MOL   C34639902   2.799   6.869   2.501  0.1641  0.2686  0.2581
   59MOL   C34739903   2.931   6.934   2.540 -0.2721  0.1756 -0.1643
   59MOL   C34839904   3.001   6.844   2.630 -0.0863 -0.2658 -0.8415
   59MOL   C34939905   3.130   6.908   2.684  0.4900 -0.1278  0.0385
   59MOL   C35039906   3.218   6.823   2.764  0.0287 -0.0031 -0.0893
   59MOL   C35139907   3.302   6.738   2.671 -0.3804  0.5879  0.2770
   59MOL   C35239908   3.403   6.650   2.755 -0.2973  0.1403  0.4793
   59MOL   C35339909   3.533   6.721   2.811 -0.5150  0.3248 -0.1699
   59MOL   O35439910   3.634   6.748   2.744 -0.0622 -1.0354  0.3822
   59MOL   H35539911   2.825   7.017   2.004 -2.7693 -2.4301 -0.7198
   59MOL   H35639912   2.683   7.162   2.231  4.7096 -0.2237  1.7972
   59MOL   H35739913   2.602   7.024   2.166  0.3930  0.4130 -2.4841
   59MOL   H35839914   2.886   7.047   2.286 -0.9025  1.8279  2.0344
   59MOL   H35939915   2.830   6.901   2.223 -0.0998  0.2851 -1.4507
   59MOL   H36039916   2.682   7.044   2.446  0.7564 -0.8025  0.7827
   59MOL   H36139917   2.636   6.889   2.367  0.6236 -0.4170 -0.9019
   59MOL   H36239918   2.827   6.773   2.457 -0.7335  1.0641 -2.1606
   59MOL   H36339919   2.733   6.847   2.585 -0.4107 -0.1627 -0.2960
   59MOL   H36439920   2.899   7.028   2.585 -0.0081 -1.1622  2.9861
   59MOL   H36539921   2.986   6.944   2.447 -0.4418 -0.4005 -0.3311
   59MOL   H36639922   2.939   6.813   2.714  1.1341 -0.0199  0.1587
   59MOL   H36739923   3.029   6.747   2.587 -1.9475 -1.5921  0.8516
   59MOL   H36839924   3.101   6.998   2.738 -0.1413  1.0634 -2.2465
   59MOL   H36939925   3.178   6.943   2.593 -0.3634  0.8331 -0.0585
   59MOL   H37039926   3.275   6.891   2.827 -2.2492  0.1084  1.8890
   59MOL   H37139927   3.151   6.766   2.827 -1.6455  1.4207 -0.5374
   59MOL   H37239928   3.358   6.804   2.604  1.5284 -1.0613  0.1907
   59MOL   H37339929   3.237   6.670   2.616  0.0994  0.2447  0.1277
   59MOL   H37439930   3.438   6.563   2.701 -1.0225 -1.4673  2.5075
   59MOL   H37539931   3.355   6.609   2.844 -1.1498 -1.3020 -0.6267
   59MOL   N37639932   3.524   6.752   2.941  0.4697  0.0763 -0.4257
   59MOL   C37739933   3.640   6.797   3.017  0.8348  0.3505  0.5297
   59MOL   C37839934   3.657   6.946   3.020 -0.2019  0.2659  0.0150
   59MOL   C37939935   3.540   7.027   3.083 -0.2426  0.5653  0.0916
   59MOL   C38039936   3.563   7.174   3.090  0.2117 -0.3661 -0.1816
   59MOL   C38139937   3.450   7.267   3.140 -0.7228 -0.4039  0.3369
   59MOL   C38239938   3.493   7.415   3.153  0.0965 -0.2338 -0.3479
   59MOL   C38339939   3.370   7.512   3.161 -0.2773  0.8889 -0.2000
   59MOL   C38439940   3.401   7.650   3.101 -0.0046  0.6314 -0.4369
   59MOL   C38539941   3.481   0.020   3.206  0.4715  0.4870 -0.2946
   59MOL   C38639942   3.562   0.135   3.146  0.7047 -0.3194 -0.0455
   59MOL   C38739943   3.484   0.242   3.077  0.0418  0.2975 -0.6829
   59MOL   O38839944   3.373   0.274   3.115 -0.5261 -0.3504 -0.4334
   59MOL   H38939945   3.438   6.716   2.981  0.9615 -1.0253 -0.3425
   59MOL   H39039946   3.630   6.748   3.114  0.9935 -1.9358 -0.5889
   59MOL   H39139947   3.724   6.742   2.975  2.2700  1.9240  1.2692
   59MOL   H39239948   3.655   6.981   2.916  1.4309  1.3295  0.3176
   59MOL   H39339949   3.747   6.979   3.072 -0.7362  0.5857  0.7388
   59MOL   H39439950   3.453   7.010   3.019 -1.7566  0.1748  2.1882
   59MOL   H39539951   3.509   6.982   3.178  1.0982  0.2795  0.3997
   59MOL   H39639952   3.562   7.211   2.988 -0.9109  2.1651  0.7093
   59MOL   H39739953   3.650   7.213   3.143 -1.2910  0.8618  1.4533
   59MOL   H39839954   3.432   7.243   3.244 -1.3100  2.1238  0.8604
   59MOL   H39939955   3.359   7.246   3.085 -0.3855  0.9884 -0.7899
   59MOL   H40039956   3.547   7.435   3.246 -1.0575  2.0392 -0.1307
   59MOL   H40139957   3.555   7.433   3.066  1.0287 -0.5585  0.2332
   59MOL   H40239958   3.335   7.511   3.264 -0.0115  0.5089 -0.1124
   59MOL   H40339959   3.290   7.473   3.098 -0.5809 -1.1050  1.3590
   59MOL   H40439960   3.461   7.643   3.011 -0.2480  2.3333 -0.7528
   59MOL   H40539961   3.303   7.690   3.072 -0.4145  0.9883  1.3734
   59MOL   H40639962   3.545   7.671   3.265 -2.4563  0.6089  3.2437
   59MOL   H40739963   3.409   0.053   3.281 -2.1617 -3.1693 -1.0485
   59MOL   H40839964   3.640   0.093   3.082  0.7019 -0.7390  0.2218
   59MOL   H40939965   3.609   0.191   3.226  1.4137 -2.6902  1.2491
   59MOL   N41039966   3.555   0.303   2.981 -0.6296 -0.3762  0.0670
   59MOL   C41139967   3.503   0.407   2.896  0.2875  0.2271  0.1599
   59MOL   C41239968   3.526   0.542   2.959  0.0051  0.1053  0.3267
   59MOL   C41339969   3.665   0.607   2.945 -0.8585 -0.3539  0.1485
   59MOL   C41439970   3.768   0.549   3.036  0.4234 -0.9256  0.5110
   59MOL   C41539971   3.731   0.555   3.188  0.0496 -0.7471  0.3789
   59MOL   C41639972   3.856   0.517   3.276  0.1647 -0.1874  0.2642
   59MOL   C41739973   3.834   0.557   3.420 -0.9389 -0.4591  0.4065
   59MOL   C41839974   3.838   0.707   3.450  0.1597  0.4522  0.0505
   59MOL   C41939975   3.803   0.738   3.599 -0.0907  0.2068 -0.0611
   59MOL   C42039976   3.865   0.868   3.653 -0.0087  0.2885  0.6610
   59MOL   C42139977   3.796   0.988   3.587 -0.3413  0.5562 -0.3867
   59MOL   O42239978   3.831   1.023   3.474 -0.5213 -0.2087  0.1473
   59MOL   H42339979   3.647   0.268   2.959 -0.5965  0.6448 -1.5110
   59MOL   H42439980   3.533   0.405   2.792  1.4952 -0.4779  0.5179
   59MOL   H42539981   3.395   0.391   2.888  0.1330  1.8313 -1.1561
   59MOL   H42639982   3.484   0.555   3.059 -0.6990  1.1721 -0.0995
   59MOL   H42739983   3.458   0.612   2.910  1.2616  0.8748 -0.3540
   59MOL   H42839984   3.690   0.603   2.839 -0.3079  0.8451  0.2349
   59MOL   H42939985   3.654   0.708   2.983 -1.4758 -0.8585  1.3341
   59MOL   H43039986   3.866   0.597   3.022 -1.3476  2.8512  0.4450
   59MOL   H43139987   3.789   0.448   3.001 -0.9815 -1.6130  1.6234
   59MOL   H43239988   3.661   0.474   3.206 -1.1778  0.3092  0.4716
   59MOL   H43339989   3.690   0.653   3.215 -2.1019 -1.4221 -0.3221
   59MOL   H43439990   3.867   0.408   3.279  0.4826 -0.2065 -1.0946
   59MOL   H43539991   3.948   0.562   3.241  0.3548  0.2116  1.2694
   59MOL   H43639992   3.915   0.512   3.477  0.5382  0.1494 -1.1514
   59MOL   H43739993   3.737   0.522   3.456 -1.7272  0.0485 -1.1848
   59MOL   H43839994   3.941   0.733   3.427  0.6695  1.0729  2.8862
   59MOL   H43939995   3.767   0.757   3.383 -1.8163  0.1377  1.8378
   59MOL   H44039996   3.826   0.656   3.667 -0.0597 -2.5442 -3.2598
   59MOL   H44139997   3.694   0.741   3.602 -0.0882  0.4472 -0.1899
   59MOL   H44239998   3.973   0.868   3.641  0.1126 -1.1311  1.5892
   59MOL   H44339999   3.844   0.867   3.760  2.3452 -0.1055  1.1308
   59MOL   N44440000   3.707   1.055   3.660 -0.0376  0.5675  0.0043
   59MOL   C44540001   3.638   1.171   3.619 -1.0406 -0.3296  0.5614
   59MOL   C44640002   3.510   1.141   3.534  0.6247 -0.5314 -0.8056
   59MOL   C44740003   3.402   1.065   3.618 -0.6752 -0.4695 -0.7084
   59MOL   C44840004   3.264   1.069   3.556 -0.1159 -0.5010 -0.6713
   59MOL   C44940005   3.162   1.012   3.650  0.2033  0.1687 -0.0313
   59MOL   C45040006   3.019   1.006   3.587 -0.2200 -0.1996 -0.5018
   59MOL   C45140007   2.922   0.913   3.664  0.2822 -0.4244  0.0630
   59MOL   C45240008   2.782   0.918   3.600 -0.2236  0.5812 -0.5022
   59MOL   C45340009   2.671   0.841   3.675 -0.3382  0.2506 -0.1639
   59MOL   C45440010   2.539   0.851   3.608 -0.0957  0.2710 -0.1517
   59MOL   C45540011   2.531   0.764   3.481 -0.0261  0.1115  0.7680
   59MOL   O45640012   2.615   0.683   3.443 -0.5054 -0.2562  0.2217
   59MOL   H45740013   3.690   1.021   3.754  2.6868 -0.4578  0.1897
   59MOL   H45840014   3.610   1.224   3.710  2.3775  1.4516  0.6695
   59MOL   H45940015   3.711   1.227   3.560 -1.3689 -0.0397  0.4283
   59MOL   H46040016   3.531   1.071   3.454 -2.3044  0.2923 -2.3687
   59MOL   H46140017   3.470   1.230   3.484 -1.6209 -1.7706 -1.2869
   59MOL   H46240018   3.431   0.961   3.632 -2.4807 -0.7003  1.7153
   59MOL   H46340019   3.396   1.116   3.715  0.6780 -1.6605  0.0242
   59MOL   H46440020   3.264   1.007   3.466 -1.1191 -1.1787 -0.2129
   59MOL   H46540021   3.236   1.173   3.539 -0.3043 -0.5673 -0.7579
   59MOL   H46640022   3.155   1.062   3.746 -0.8524 -1.3413  0.6972
   59MOL   H46740023   3.190   0.908   3.671 -1.7738 -0.2504  0.5962
   59MOL   H46840024   2.975   1.106   3.594 -0.4969 -0.4768  2.8840
   59MOL   H46940025   3.026   0.981   3.482  2.3025  0.1967 -0.4450
   59MOL   H47040026   2.908   0.957   3.763 -1.4088 -2.8548  0.9755
   59MOL   H47140027   2.951   0.809   3.673  0.0014 -0.6393 -1.4412
   59MOL   H47240028   2.751   1.022   3.582  0.5608  0.7134 -1.1130
   59MOL   H47340029   2.798   0.875   3.501  0.5283 -0.8690  0.2428
   59MOL   H47440030   2.659   0.889   3.773  1.8962  0.4220  0.0558
   59MOL   H47540031   2.708   0.741   3.697 -0.6235  0.3534  0.8284
   59MOL   H47640032   2.533   0.958   3.585 -0.0920 -0.1611 -2.2743
   59MOL   H47740033   2.458   0.828   3.676  2.0499 -0.2229  2.3225
   59MOL   N47840034   2.433   0.796   3.400 -0.0595 -0.0859 -0.1011
   59MOL   C47940035   2.399   0.731   3.274  0.3937  0.1871 -0.7850
   59MOL   C48040036   2.302   0.607   3.306  0.5382 -0.3211  0.7395
   59MOL   C48140037   2.249   0.543   3.182  0.6305 -0.2924 -0.0452
   59MOL   C48240038   2.170   0.410   3.198  0.0639 -0.4004 -0.0558
   59MOL   C48340039   2.023   0.436   3.227 -0.5562 -0.0917 -0.0323
   59MOL   C48440040   1.930   0.315   3.226 -0.6706  0.6051 -0.7577
   59MOL   C48540041   1.935   0.241   3.092  0.0521 -0.4761  0.3870
   59MOL   C48640042   1.801   0.173   3.072 -0.0810  0.2785 -0.4798
   59MOL   C48740043   1.673   0.262   3.037 -0.8691 -0.9131 -0.3835
   59MOL   C48840044   1.536   0.188   3.048  0.8464  0.5018  0.1990
   59MOL   C48940045   1.416   0.264   2.986 -0.4286  0.1284 -0.3987
   59MOL   O49040046   1.433   0.340   2.887  0.3121  0.3679  0.0906
   59MOL   H49140047   2.380   0.875   3.433  0.8680  0.5182 -0.0522
   59MOL   H49240048   2.342   0.797   3.209  2.4953  4.1406  1.1756
   59MOL   H49340049   2.483   0.691   3.217  0.5209 -1.1639  0.3012
   59MOL   H49440050   2.217   0.646   3.361  0.5753  1.2817 -0.3022
   59MOL   H49540051   2.362   0.533   3.360 -1.6031 -3.0751 -0.5110
   59MOL   H49640052   2.191   0.612   3.121 -0.2515  1.3575  2.6078
   59MOL   H49740053   2.338   0.537   3.119 -0.8933 -1.0350 -2.1710
   59MOL   H49840054   2.217   0.352   3.278 -1.0920 -2.2110 -0.6362
   59MOL   H49940055   2.187   0.345   3.112  2.5739  0.4968 -0.2774
   59MOL   H50040056   1.989   0.523   3.171  1.1402  1.0331  0.6512
   59MOL   H50140057   2.020   0.458   3.334  1.6723  0.3546 -0.0464
   59MOL   H50240058   1.955   0.240   3.300  1.4073 -1.8848 -3.8883
   59MOL   H50340059   1.829   0.347   3.254 -1.1536 -1.0078 -0.5797
   59MOL   H50440060   2.025   0.180   3.095 -0.0693 -0.6503  0.5187
   59MOL   H50540061   1.940   0.312   3.010  1.7489 -1.0429 -0.0162
   59MOL   H50640062   1.822   0.118   2.981  0.3250  3.4214 -2.3743
   59MOL   H50740063   1.770   0.115   3.159 -0.9335  1.3800 -0.0302
   59MOL   H50840064   1.693   0.305   2.939 -1.4358 -0.7968 -0.4516
   59MOL   H50940065   1.666   0.345   3.107 -1.5461  0.0586 -1.5647
   59MOL   H51040066   1.527   0.183   3.157 -2.8025  0.2176 -0.0592
   59MOL   H51140067   1.531   0.089   3.004  0.2129  0.4864  0.3019
   59MOL   N51240068   1.300   0.242   3.046 -0.3702 -0.8088  0.8238
   59MOL   C51340069   1.264   0.141   3.148  0.2975 -0.6523  0.2727
   59MOL   C51440070   1.252   0.000   3.088 -0.1140 -0.1331  0.4685
   59MOL   C51540071   1.240   7.624   3.210 -0.0214 -0.1094  0.0183
   59MOL   C51640072   1.218   7.479   3.168  0.3775  0.9653 -0.2823
   59MOL   C51740073   1.076   7.462   3.109 -0.5643  0.1613  0.4303
   59MOL   C51840074   1.023   7.316   3.106 -0.6704 -0.2035 -0.0819
   59MOL   C51940075   0.878   7.297   3.062  0.7255 -0.0216 -0.3744
   59MOL   C52040076   0.838   7.146   3.071  0.4648  0.0574  0.7423
   59MOL   C52140077   0.890   7.057   2.960 -0.3987 -0.5633  0.2360
   59MOL   C52240078   0.810   6.926   2.932 -0.2048  1.4798 -0.4405
   59MOL   C52340079   0.858   6.836   2.816  0.1150 -0.1166  0.4867
   59MOL   O52440080   0.954   6.865   2.747 -0.6802  0.1902  0.6796
   59MOL   H52540081   1.225   0.304   3.019 -1.3015 -1.1010  2.6534
   59MOL   H52640082   1.336   0.131   3.229 -1.5421 -0.1838  2.0138
   59MOL   H52740083   1.168   0.163   3.196  0.5511  2.3707 -0.5562
   59MOL   H52840084   1.343   7.692   3.032  0.4209 -0.5243  1.4937
   59MOL   H52940085   1.161   0.002   3.028 -2.4901  2.3778  3.9390
   59MOL   H53040086   1.327   7.631   3.275 -0.8925  2.6840  0.9650
   59MOL   H53140087   1.164   7.660   3.279  1.2980  0.6032  1.1272
   59MOL   H53240088   1.216   7.413   3.255 -0.5263  0.2614 -0.8336
   59MOL   H53340089   1.293   7.443   3.098 -0.9478 -0.4265 -1.0053
   59MOL   H53440090   1.066   7.503   3.008 -1.7174 -2.4693 -0.5604
   59MOL   H53540091   0.998   7.506   3.172  1.5088  0.5085  2.8239
   59MOL   H53640092   1.083   7.255   3.038 -1.5255 -0.1901 -0.8602
   59MOL   H53740093   1.038   7.275   3.206  2.4851 -2.1812 -1.3017
   59MOL   H53840094   0.875   7.344   2.963  1.1906  0.6721 -0.0629
   59MOL   H53940095   0.810   7.361   3.117 -0.5292 -1.4029 -0.2758
   59MOL   H54040096   0.858   7.108   3.171 -1.3170  0.2957  1.2002
   59MOL   H54140097   0.730   7.142   3.066  0.4765 -0.3808  0.8342
   59MOL   H54240098   0.994   7.038   2.989  0.0297  0.1909 -0.7678
   59MOL   H54340099   0.870   7.106   2.865 -2.0009  0.8779  1.2924
   59MOL   H54440100   0.703   6.946   2.920 -1.4203 -3.0496  1.4622
   59MOL   H54540101   0.822   6.849   3.008  0.0084  1.2896 -0.6634
   59MOL   N54640102   0.784   6.723   2.798 -0.0831 -0.0504  0.5870
   59MOL   C54740103   0.818   6.625   2.697 -0.2008  0.4486  0.3829
   59MOL   C54840104   0.929   6.527   2.724  0.4333 -0.2839 -0.0304
   59MOL   C54940105   0.967   6.432   2.607  0.6884 -0.4976  0.1385
   59MOL   C55040106   1.103   6.356   2.622 -0.2637 -0.2922 -0.3220
   59MOL   C55140107   1.101   6.268   2.746  0.1340 -0.2002 -0.1296
   59MOL   C55240108   1.010   6.149   2.747 -0.4212  0.5715 -0.1008
   59MOL   C55340109   0.981   6.068   2.873 -0.5536 -0.4768 -0.5202
   59MOL   C55440110   1.078   5.956   2.904  0.6898  0.0487 -0.5087
   59MOL   C55540111   1.025   5.818   2.938 -0.1572 -0.1853 -0.0570
   59MOL   C55640112   0.939   5.757   2.826 -0.2665 -0.4036 -0.2593
   59MOL   C55740113   1.020   5.730   2.702 -0.4839  0.4725 -0.4073
   59MOL   O55840114   1.132   5.676   2.713  0.0309 -0.2074  0.1947
   59MOL   H55940115   0.693   6.717   2.841  0.0646  0.7834  1.0251
   59MOL   H56040116   0.731   6.569   2.662 -0.7398  0.9087  0.9885
   59MOL   H56140117   0.827   6.685   2.606  0.0373  0.7018  0.5753
   59MOL   H56240118   0.897   6.471   2.812  2.8622  1.1706  1.8357
   59MOL   H56340119   1.018   6.584   2.749 -0.8509  1.6566  0.2344
   59MOL   H56440120   0.883   6.365   2.587 -0.7961  0.7317  2.0328
   59MOL   H56540121   0.976   6.488   2.514  2.2586  1.4602  1.4397
   59MOL   H56640122   1.180   6.432   2.630 -0.4342 -0.0004 -1.3235
   59MOL   H56740123   1.124   6.281   2.546  2.4066 -1.0582  1.1201
   59MOL   H56840124   1.090   6.321   2.841 -0.5620 -0.2552 -0.1796
   59MOL   H56940125   1.200   6.224   2.761  0.0564  0.3499  2.1619
   59MOL   H57040126   0.908   6.176   2.719 -0.0457 -0.3848 -2.4703
   59MOL   H57140127   1.031   6.090   2.658 -3.2868 -2.1052  0.9212
   59MOL   H57240128   0.884   6.023   2.855 -2.2312  2.3031  1.2788
   59MOL   H57340129   0.949   6.118   2.964 -1.5942 -0.6280 -0.8031
   59MOL   H57440130   1.135   5.951   2.811  1.0898  1.2180 -0.3380
   59MOL   H57540131   1.149   5.994   2.978  2.2890 -2.2497 -0.8124
   59MOL   H57640132   0.960   5.825   3.025  0.5849  3.3798  0.2693
   59MOL   H57740133   1.108   5.752   2.964 -0.2639 -1.2214 -2.1686
   59MOL   H57840134   0.853   5.823   2.813  0.2905  0.1860 -1.0295
   59MOL   H57940135   0.906   5.657   2.854 -0.7971 -0.0163  0.5024
   59MOL   N58040136   0.970   5.775   2.588 -0.3809  0.4798  0.4826
   59MOL   C58140137   1.043   5.749   2.461  0.8504 -0.0663 -0.1070
   59MOL   C58240138   1.126   5.868   2.406  0.4133 -0.1571 -0.0501
   59MOL   C58340139   1.045   5.990   2.378  0.4574  0.7789 -0.1348
   59MOL   C58440140   1.115   6.100   2.298 -0.1879  1.0028 -0.1831
   59MOL   C58540141   1.013   6.213   2.272  0.5933  0.4283 -0.3239
   59MOL   C58640142   1.087   6.316   2.191  0.0180  0.4604  0.0026
   59MOL   C58740143   0.994   6.419   2.128  0.7473 -0.5899 -0.1086
   59MOL   C58840144   0.927   6.383   1.989  0.1685 -0.1182 -0.3145
   59MOL   C58940145   0.819   6.475   1.938 -0.3382  0.0689 -0.2042
   59MOL   C59040146   0.724   6.411   1.834  0.1442 -0.1082 -0.2913
   59MOL   C59140147   0.589   6.482   1.811 -0.0768 -0.3959  0.6822
   59MOL   O59240148   0.505   6.500   1.900 -0.1164 -0.5891 -0.0094
   59MOL   H59340149   0.891   5.838   2.597 -1.8516 -1.1992 -0.5586
   59MOL   H59440150   1.103   5.659   2.468 -0.2634 -0.6113  3.4110
   59MOL   H59540151   0.974   5.731   2.379  0.9731  1.2461 -0.5111
   59MOL   H59640152   1.189   5.837   2.322 -1.9309 -2.9803 -0.8521
   59MOL   H59740153   1.205   5.896   2.476 -0.4375 -2.3812  1.8823
   59MOL   H59840154   0.953   5.960   2.329  2.7260  0.6596 -4.5896
   59MOL   H59940155   1.011   6.021   2.476  1.3271 -1.5038  0.9354
   59MOL   H60040156   1.150   6.046   2.210  0.5776 -2.3208  2.0749
   59MOL   H60140157   1.211   6.121   2.343 -0.4890  0.7207  0.5913
   59MOL   H60240158   0.959   6.252   2.358 -0.0286 -0.1726 -0.4311
   59MOL   H60340159   0.932   6.178   2.209  1.2032 -1.1917 -0.2472
   59MOL   H60440160   1.157   6.372   2.254 -0.6073 -0.0366  1.1627
   59MOL   H60540161   1.149   6.265   2.117 -1.3383 -0.1580 -0.7079
   59MOL   H60640162   1.056   6.506   2.104 -0.6439  0.7810  1.1193
   59MOL   H60740163   0.925   6.443   2.209  0.2093 -2.1682 -0.0866
   59MOL   H60840164   1.003   6.383   1.912 -0.1210  0.6194 -0.6047
   59MOL   H60940165   0.892   6.280   1.992  1.9200 -0.7295 -0.1478
   59MOL   H61040166   0.878   6.559   1.901 -1.1724  0.5166 -0.5305
   59MOL   H61140167   0.752   6.513   2.015  0.8374  1.3340  0.2174
   59MOL   H61240168   0.698   6.307   1.855  1.8715 -0.8343 -1.6660
   59MOL   H61340169   0.776   6.411   1.738 -1.8184  1.3215 -1.3930
   59MOL   N61440170   0.555   6.499   1.680 -0.2339  0.4790 -0.5719
   59MOL   C61540171   0.437   6.564   1.628  0.5199 -0.2772 -0.8913
   59MOL   C61640172   0.448   6.610   1.492  0.2677  0.2968  0.1808
   59MOL   C61740173   0.310   6.624   1.432 -0.0675  0.4251  0.4682
   59MOL   C61840174   0.309   6.704   1.300 -0.3142 -0.0450  0.4469
   59MOL   C61940175   0.332   6.857   1.314  0.2886 -0.2108  0.1213
   59MOL   C62040176   0.225   6.928   1.401  0.4579 -0.5702  0.6446
   59MOL   C62140177   0.265   6.965   1.540 -0.6403 -0.2699 -0.1708
   59MOL   C62240178   0.161   7.032   1.630 -0.2824 -0.0920  0.4317
   59MOL   C62340179   0.130   7.178   1.589 -0.4364  0.3772  0.5427
   59MOL   C62440180   0.022   7.259   1.661  0.0767 -0.3817  0.0312
   59MOL   C62540181   7.695   7.392   1.588  0.1594 -0.1474 -0.7289
   59MOL   O62640182   7.700   7.400   1.464 -0.3249  0.5523  0.0557
   59MOL   H62740183   0.628   6.470   1.616 -1.5227 -0.2595 -1.7292
   59MOL   H62840184   0.394   6.635   1.698 -0.4831 -0.1630 -1.6231
   59MOL   H62940185   0.362   6.486   1.641 -0.2024  0.6866  0.9366
   59MOL   H63040186   0.506   6.544   1.427 -1.7156 -1.4261  0.0743
   59MOL   H63140187   0.490   6.710   1.495 -0.6634  0.7298 -0.7988
   59MOL   H63240188   0.281   6.521   1.411 -0.5828  0.3303  1.6281
   59MOL   H63340189   0.232   6.657   1.499 -1.3380 -1.8174  0.1308
   59MOL   H63440190   0.211   6.691   1.255 -0.5428  1.8909  0.3653
   59MOL   H63540191   0.388   6.653   1.244 -0.0780 -2.4882  2.9112
   59MOL   H63640192   0.330   6.906   1.217  0.1100  0.0881  0.2754
   59MOL   H63740193   0.432   6.887   1.346  0.5590  0.6559 -1.5102
   59MOL   H63840194   0.189   7.017   1.350 -0.2763 -1.4899 -0.4573
   59MOL   H63940195   0.136   6.866   1.388  0.5595 -0.5245 -0.2674
   59MOL   H64040196   0.354   7.026   1.535 -0.7305 -0.3150 -2.7955
   59MOL   H64140197   0.290   6.868   1.584  1.1014 -0.8084 -2.3297
   59MOL   H64240198   0.076   6.965   1.632  0.6243 -1.2397  0.9356
   59MOL   H64340199   0.192   7.050   1.733  0.6686  0.4462  0.0641
   59MOL   H64440200   0.087   7.156   1.491  0.0239  1.1026  0.1785
   59MOL   H64540201   0.216   7.237   1.560  0.7171 -1.4559  0.1174
   59MOL   H64640202   0.061   7.295   1.756 -0.3719  1.0319 -0.3120
   59MOL   H64740203   7.645   7.209   1.690  0.4913 -0.8239  0.6189
   59MOL   N64840204   7.641   7.498   1.650  0.2514  0.8269  0.0761
   59MOL   C64940205   7.601   7.620   1.588  0.1236  0.9268  0.6611
   59MOL   C65040206   0.012   7.694   1.531  0.8736 -0.6314  0.6119
   59MOL   C65140207   7.695   0.117   1.469 -0.2584  0.4780 -0.1042
   59MOL   C65240208   0.108   0.199   1.461  0.5251  0.2830  0.1165
   59MOL   C65340209   0.077   0.344   1.448  0.1074 -0.0456  0.1473
   59MOL   C65440210   0.212   0.418   1.437  0.1017  0.7409  0.1939
   59MOL   C65540211   0.282   0.439   1.573 -0.1687 -0.5366 -0.0089
   59MOL   C65640212   0.225   0.548   1.663  0.2649  0.1439 -0.5156
   59MOL   C65740213   0.277   0.548   1.811 -0.6711  0.4012  0.0738
   59MOL   C65840214   0.209   0.441   1.899  0.2265 -0.2770  0.5111
   59MOL   C65940215   0.266   0.438   2.044  0.1500 -0.1517 -0.2716
   59MOL   O66040216   0.212   0.386   2.145 -0.2083  0.4508  0.3100
   59MOL   H66140217   7.632   7.493   1.751  0.7236  0.7676  0.1186
   59MOL   H66240218   7.565   7.673   1.676 -0.2802  1.3552  0.2388
   59MOL   H66340219   7.525   7.609   1.510  0.7088  1.6348 -0.0186
   59MOL   H66440220   0.048   7.634   1.447  0.7187 -0.2723  0.2893
   59MOL   H66540221   0.080   7.709   1.615 -0.1533  0.4114  1.2717
   59MOL   H66640222   7.647   0.121   1.371 -1.6702  1.2491  0.6072
   59MOL   H66740223   7.621   0.170   1.530  1.8996  0.1694  2.8948
   59MOL   H66840224   0.166   0.163   1.376  0.0189  1.4617 -0.7531
   59MOL   H66940225   0.176   0.187   1.545  1.7220  0.1158 -0.8654
   59MOL   H67040226   0.023   0.391   1.530 -0.4281 -2.0825  0.9690
   59MOL   H67140227   0.020   0.363   1.357 -0.7877 -0.3050  0.6560
   59MOL   H67240228   0.278   0.365   1.367  1.3610  2.2483  0.2172
   59MOL   H67340229   0.191   0.520   1.405  2.1357  0.8540 -0.9122
   59MOL   H67440230   0.381   0.479   1.550 -0.4509 -0.4293 -1.0174
   59MOL   H67540231   0.309   0.346   1.623 -1.1168 -0.4042  0.7672
   59MOL   H67640232   0.253   0.645   1.622  0.0622  0.2550 -0.3958
   59MOL   H67740233   0.116   0.543   1.656  0.0879  0.3324  1.6899
   59MOL   H67840234   0.268   0.650   1.847  1.0190  0.6901 -0.2784
   59MOL   H67940235   0.384   0.530   1.801 -0.8004 -0.5261  0.2957
   59MOL   H68040236   0.214   0.344   1.849  0.4970 -0.4381  0.8518
   59MOL   H68140237   0.104   0.468   1.909  0.8178  1.6337  1.8150
   59MOL   H68240238   0.363   0.485   2.060 -0.0498  0.1035  0.1893
   60MOL     N140239   6.144   2.933   1.663 -0.4555 -0.4347  0.7236
   60MOL     C240240   6.089   3.042   1.583 -0.2934 -0.7599 -0.3895
   60MOL     C340241   6.008   2.980   1.470 -0.0415 -0.6550 -0.4239
   60MOL     C440242   5.974   3.098   1.379 -0.1713 -0.4380  0.7866
   60MOL     C540243   5.887   3.074   1.259  0.5749  0.0793  0.4526
   60MOL     C640244   5.841   3.210   1.200 -0.2784  0.2797 -0.2261
   60MOL     C740245   5.736   3.202   1.080 -0.1535 -0.5371  0.5000
   60MOL     C840246   5.783   3.112   0.967  0.8007 -0.0338  0.5079
   60MOL     C940247   5.678   3.103   0.858  0.3543 -0.8305 -0.3082
   60MOL    C1040248   5.674   2.974   0.766  0.7000  0.6003  0.0197
   60MOL    C1140249   5.775   2.967   0.660 -0.6479 -0.1315 -0.6425
   60MOL    C1240250   5.746   3.071   0.555  0.0144  0.2325  0.2153
   60MOL    O1340251   5.628   3.098   0.522  0.4575  0.2184 -0.2819
   60MOL    H1440252   6.065   2.895   1.713 -0.5560 -2.2250 -0.7484
   60MOL    H1540253   6.170   3.098   1.536 -0.5370 -0.2104 -0.1503
   60MOL    H1640254   6.034   3.104   1.654 -0.2300 -0.9258 -0.1940
   60MOL    H1740255   5.923   2.927   1.512  0.0693 -0.6333 -0.1739
   60MOL    H1840256   6.069   2.905   1.420  2.4730  1.0831 -0.0645
   60MOL    H1940257   5.921   3.172   1.438  0.5468  0.1611  0.6894
   60MOL    H2040258   6.068   3.144   1.346 -0.8791 -1.5695 -3.1466
   60MOL    H2140259   5.807   3.005   1.284  1.1894 -1.7641 -2.4656
   60MOL    H2240260   5.942   3.023   1.180  2.7356 -0.4780  2.2673
   60MOL    H2340261   5.927   3.263   1.158  1.3942  0.9423  3.8417
   60MOL    H2440262   5.791   3.270   1.276 -1.7732  0.9647 -1.7008
   60MOL    H2540263   5.655   3.144   1.123 -0.2275 -1.9518 -1.4735
   60MOL    H2640264   5.700   3.297   1.040  1.9269  0.7276  1.5338
   60MOL    H2740265   5.803   3.013   1.009 -0.8493 -0.7773 -0.3773
   60MOL    H2840266   5.869   3.145   0.908 -0.3524  0.2989 -1.0175
   60MOL    H2940267   5.581   3.104   0.909  0.4027  0.8204 -0.2212
   60MOL    H3040268   5.681   3.191   0.793  2.1962  1.3572  2.6213
   60MOL    H3140269   5.572   2.972   0.726  1.3101  1.6897 -1.6076
   60MOL    H3240270   5.671   2.879   0.820 -0.4505 -0.5760 -2.0535
   60MOL    H3340271   5.765   2.873   0.605 -0.7204 -0.0849 -0.7104
   60MOL    H3440272   5.872   2.968   0.710 -0.3556 -1.3148 -1.1580
   60MOL    H3540273   6.209   2.958   1.736 -0.9413  0.5833  0.8240
   60MOL    N3640274   5.854   3.134   0.516  0.4089 -0.4824 -0.4029
   60MOL    C3740275   5.856   3.253   0.432  0.0016 -0.3492 -0.5410
   60MOL    C3840276   5.996   3.283   0.374  0.2614 -0.5403  0.4740
   60MOL    C3940277   6.004   3.422   0.303 -0.0833 -0.4439 -0.8207
   60MOL    C4040278   6.138   3.443   0.231 -0.8042  0.0036 -0.0337
   60MOL    C4140279   6.260   3.499   0.316 -0.1375  0.1848 -0.4637
   60MOL    C4240280   6.378   3.538   0.234 -1.0037 -0.1886 -0.8179
   60MOL    C4340281   6.495   3.598   0.321 -0.1635  0.5724  0.1154
   60MOL    C4440282   6.603   3.675   0.242  0.0088  0.5351 -0.3721
   60MOL    C4540283   6.734   3.708   0.314 -0.3096 -0.6952 -0.1526
   60MOL    C4640284   6.823   3.797   0.228 -0.3867 -0.5974 -0.2616
   60MOL    C4740285   6.917   3.743   0.128  0.0989 -0.5790  0.3143
   60MOL    O4840286   6.926   3.621   0.099 -0.2823 -0.2719 -0.4113
   60MOL    H4940287   5.939   3.093   0.551  0.5878 -1.0742 -1.5244
   60MOL    H5040288   5.784   3.245   0.351  0.8660  1.0448 -1.4603
   60MOL    H5140289   5.822   3.340   0.489 -3.4490 -0.1269 -2.8348
   60MOL    H5240290   6.011   3.198   0.308  2.8460  0.8370 -0.7904
   60MOL    H5340291   6.077   3.272   0.447 -0.4118 -2.4058  0.9763
   60MOL    H5440292   5.926   3.426   0.228 -0.4386 -2.2562 -0.5806
   60MOL    H5540293   5.981   3.508   0.366  0.0200 -0.8739 -0.1829
   60MOL    H5640294   6.114   3.514   0.152  0.5274  0.1175 -0.3409
   60MOL    H5740295   6.162   3.358   0.166  2.8710 -0.0307  1.2554
   60MOL    H5840296   6.288   3.421   0.387  1.0434  0.5539 -0.5157
   60MOL    H5940297   6.215   3.583   0.369 -0.6503 -0.3877  0.0305
   60MOL    H6040298   6.422   3.457   0.178  0.1633 -0.8870  1.0546
   60MOL    H6140299   6.357   3.610   0.155  1.1856  0.9346 -0.4050
   60MOL    H6240300   6.544   3.527   0.388 -0.6377 -1.3632 -1.5483
   60MOL    H6340301   6.451   3.676   0.383 -1.0690  1.0168 -1.0798
   60MOL    H6440302   6.630   3.621   0.152 -1.6586 -2.6092  0.9088
   60MOL    H6540303   6.557   3.763   0.197 -0.0845 -0.0379 -1.4098
   60MOL    H6640304   6.783   3.620   0.356  0.7681 -0.5691 -1.1272
   60MOL    H6740305   6.715   3.786   0.387 -2.4238  0.0850 -1.4955
   60MOL    H6840306   6.881   3.866   0.288 -0.1001  1.8476 -3.2171
   60MOL    H6940307   6.767   3.876   0.177  0.2232 -0.0019 -0.0127
   60MOL    N7040308   6.988   3.834   0.059  0.9058 -0.2115  0.1727
   60MOL    C7140309   7.083   3.803   7.675 -0.3830  0.4121  0.5486
   60MOL    C7240310   7.027   3.730   7.554 -0.1529  0.1893 -0.4938
   60MOL    C7340311   7.111   3.632   7.482 -0.3122 -0.1816 -0.0153
   60MOL    C7440312   7.052   3.577   7.348 -0.3112 -0.3157  0.4349
   60MOL    C7540313   6.919   3.497   7.360  0.5997 -0.2171  0.3926
   60MOL    C7640314   6.915   3.376   7.455 -0.1581 -0.6087 -0.6596
   60MOL    C7740315   6.967   3.246   7.380  0.0089  0.2815 -0.2987
   60MOL    C7840316   6.957   3.114   7.453 -0.6833 -0.6802 -0.3665
   60MOL    C7940317   6.824   3.078   7.502  0.6776 -0.1987 -0.5093
   60MOL    C8040318   6.833   2.942   7.571  0.4684 -0.0231  0.4763
   60MOL    C8140319   6.822   2.822   7.476  0.7554  0.6792 -0.3300
   60MOL    O8240320   6.918   2.747   7.461  0.0032 -0.5415 -0.6925
   60MOL    H8340321   6.981   3.933   0.075  0.2223 -0.5665  2.2061
   60MOL    H8440322   7.123   3.892   7.626 -1.1785 -0.1493 -1.1743
   60MOL    H8540323   7.160   3.743   0.007 -0.8857 -0.8427 -0.1996
   60MOL    H8640324   7.011   3.809   7.481 -0.7221  1.5691  1.0916
   60MOL    H8740325   6.933   3.676   7.568 -0.2583  0.9708  1.9670
   60MOL    H8840326   7.204   3.684   7.459 -0.2115 -0.3786 -0.0492
   60MOL    H8940327   7.131   3.557   7.558  0.3124 -0.5433 -0.5268
   60MOL    H9040328   7.126   3.519   7.294  1.5184  4.1191 -2.0110
   60MOL    H9140329   7.030   3.667   7.291  0.7251  0.6248  1.5042
   60MOL    H9240330   6.880   3.470   7.262  0.4583  4.3835 -0.9424
   60MOL    H9340331   6.836   3.562   7.389 -0.6859 -0.6428 -2.2129
   60MOL    H9440332   6.985   3.398   7.535  0.5269  1.5301 -1.8391
   60MOL    H9540333   6.813   3.364   7.492 -0.2233  0.0434 -0.6219
   60MOL    H9640334   7.065   3.260   7.335  0.2872 -0.6774  0.0072
   60MOL    H9740335   6.903   3.236   7.292 -0.3143 -0.0928 -0.0214
   60MOL    H9840336   7.000   3.031   7.396 -0.0589 -0.3358 -0.3998
   60MOL    H9940337   7.029   3.125   7.534  0.4224  1.1681 -1.5696
   60MOL   H10040338   6.753   3.071   7.420 -1.1427  0.4268  0.9665
   60MOL   H10140339   6.792   3.156   7.572  1.2565  0.2962 -0.7870
   60MOL   H10240340   6.751   2.941   7.642 -1.4048  1.6297 -1.5574
   60MOL   H10340341   6.926   2.931   7.626  1.9555  3.4683 -1.1497
   60MOL   N10440342   6.708   2.803   7.409 -0.9428  0.2583  0.3294
   60MOL   C10540343   6.691   2.690   7.321 -0.1130  0.8513  0.4343
   60MOL   C10640344   6.547   2.671   7.277  0.4905 -0.0923 -0.0029
   60MOL   C10740345   6.529   2.575   7.156 -0.1122  0.7696 -0.2064
   60MOL   C10840346   6.524   2.430   7.207 -0.2188  0.5546 -0.1162
   60MOL   C10940347   6.492   2.334   7.098 -0.3465 -0.1659 -0.2139
   60MOL   C11040348   6.506   2.188   7.140  0.0629  0.0472  0.2422
   60MOL   C11140349   6.384   2.121   7.218  0.0384 -0.2617 -0.2329
   60MOL   C11240350   6.397   1.967   7.216 -0.0091 -0.5293  1.1721
   60MOL   C11340351   6.317   1.899   7.325  0.5732 -1.0616 -0.5141
   60MOL   C11440352   6.164   1.934   7.335  0.7557 -0.2483 -0.7435
   60MOL   C11540353   6.140   2.048   7.435 -0.3626 -0.5016  0.1982
   60MOL   O11640354   6.184   2.034   7.551 -0.2634  0.2014 -0.3236
   60MOL   H11740355   6.629   2.862   7.431 -2.8654 -2.2629  0.3428
   60MOL   H11840356   6.754   2.711   7.234  0.1353 -0.1412  0.3716
   60MOL   H11940357   6.728   2.598   7.364 -0.4527  0.4847 -0.0539
   60MOL   H12040358   6.515   2.773   7.256 -0.0056 -0.8651 -3.3442
   60MOL   H12140359   6.484   2.636   7.359  3.0371 -0.7796  1.7119
   60MOL   H12240360   6.441   2.603   7.098 -0.6861 -1.5433 -0.5288
   60MOL   H12340361   6.615   2.583   7.090 -0.1944 -0.7687 -0.5267
   60MOL   H12440362   6.447   2.432   7.285 -3.1529  0.7964 -2.9328
   60MOL   H12540363   6.620   2.413   7.256 -0.3887  0.5812  0.2337
   60MOL   H12640364   6.550   2.349   7.007 -0.3890  0.4189 -0.1422
   60MOL   H12740365   6.386   2.348   7.077  0.1190  0.1784 -2.4335
   60MOL   H12840366   6.523   2.128   7.051  1.5691  1.0767 -0.1845
   60MOL   H12940367   6.592   2.156   7.200 -1.2436 -2.1445  1.0290
   60MOL   H13040368   6.290   2.162   7.181 -0.9273 -0.9590  1.3636
   60MOL   H13140369   6.390   2.152   7.323  1.5461  1.1950 -0.7225
   60MOL   H13240370   6.362   1.936   7.118  1.0136 -1.4082  1.0859
   60MOL   H13340371   6.499   1.930   7.218  0.0840 -1.1309 -5.1538
   60MOL   H13440372   6.364   1.946   7.411  0.4683  0.4370 -1.2657
   60MOL   H13540373   6.334   1.791   7.316  4.1220 -0.5517 -0.3342
   60MOL   H13640374   6.119   1.842   7.374  0.6816  1.3487  3.2294
   60MOL   H13740375   6.125   1.953   7.236  1.0537  0.2384 -0.7664
   60MOL   N13840376   6.070   2.148   7.389  0.2850 -0.0282 -0.5780
   60MOL   C13940377   6.051   2.269   7.455 -0.7672  0.4031  0.1409
   60MOL   C14040378   6.173   2.362   7.470  0.5359  0.6766  0.6134
   60MOL   C14140379   6.128   2.502   7.521  0.3017  0.3187 -0.3568
   60MOL   C14240380   6.246   2.569   7.591 -0.4180  0.4242 -0.4904
   60MOL   C14340381   6.214   2.681   7.692  0.2646 -0.2555 -0.2426
   60MOL   C14440382   6.334   2.756   0.030  0.4235 -0.4018  0.0871
   60MOL   C14540383   6.315   2.901   0.086 -0.4911  0.5160  0.5080
   60MOL   C14640384   6.271   2.881   0.232  0.2156  0.0901 -0.1630
   60MOL   C14740385   6.280   3.002   0.326 -0.0796  0.3395  0.0828
   60MOL   C14840386   6.301   2.968   0.477  0.6800  0.1429  0.4374
   60MOL   C14940387   6.183   2.902   0.539 -0.0760  0.0627  0.0684
   60MOL   O15040388   6.071   2.949   0.541  0.1558  0.6863 -0.3921
   60MOL   H15140389   6.039   2.138   7.293 -0.8208  0.3463 -0.2707
   60MOL   H15240390   5.978   2.312   7.386  0.8442 -0.5532 -2.2221
   60MOL   H15340391   5.994   2.257   7.547  1.8699 -2.3355  1.5187
   60MOL   H15440392   6.218   2.366   7.370 -0.9952 -0.5066 -0.1337
   60MOL   H15540393   6.247   2.317   7.535  1.5714  0.3215 -0.7703
   60MOL   H15640394   6.087   2.562   7.440  2.2258  1.7058 -0.3480
   60MOL   H15740395   6.038   2.495   7.582  2.0164 -1.1414  2.1165
   60MOL   H15840396   6.309   2.616   7.515 -0.6203  1.0909 -0.2504
   60MOL   H15940397   6.312   2.497   7.639 -1.3731 -0.3606 -0.3382
   60MOL   H16040398   6.160   2.639   0.061  1.9076  2.1001  2.0306
   60MOL   H16140399   6.140   2.746   7.644  0.0253  0.7929  1.5043
   60MOL   H16240400   6.396   2.699   0.099  1.2960  0.3410 -0.0764
   60MOL   H16340401   6.390   2.763   7.653 -1.2521  1.3961 -0.8072
   60MOL   H16440402   6.245   2.953   0.020 -1.6794 -0.4005  1.0288
   60MOL   H16540403   6.409   2.955   0.080 -0.0288 -0.4660 -2.2089
   60MOL   H16640404   6.167   2.849   0.227  0.2718 -0.3506  1.1473
   60MOL   H16740405   6.341   2.810   0.277 -0.0513 -0.8001 -1.1502
   60MOL   H16840406   6.195   3.069   0.312 -0.6838  0.1486  2.5400
   60MOL   H16940407   6.368   3.057   0.296  1.7246 -1.2074  2.3390
   60MOL   H17040408   6.320   3.065   0.522 -1.5632  1.4420 -1.3062
   60MOL   H17140409   6.380   2.895   0.497  0.9526  0.0425 -0.9372
   60MOL   N17240410   6.205   2.780   0.596 -0.1998  0.1856 -0.2002
   60MOL   C17340411   6.107   2.709   0.678  0.4005  0.3387 -0.1304
   60MOL   C17440412   6.109   2.750   0.830 -0.0105 -0.1056  0.2915
   60MOL   C17540413   5.998   2.701   0.920  0.8450  0.9477  0.1463
   60MOL   C17640414   6.015   2.727   1.074 -0.1798 -0.1910  0.0689
   60MOL   C17740415   5.894   2.671   1.153 -0.1984  0.0704 -0.3601
   60MOL   C17840416   5.897   2.697   1.303 -0.3850 -0.1376 -0.9635
   60MOL   C17940417   5.771   2.654   1.373 -0.5541 -0.1730 -0.1931
   60MOL   C18040418   5.771   2.694   1.522  0.3423  0.5494  0.0482
   60MOL   C18140419   5.652   2.626   1.589 -1.2376 -0.6759  0.2979
   60MOL   C18240420   5.614   2.682   1.728  0.3022  0.2379  0.1297
   60MOL   C18340421   5.725   2.654   1.833  0.6187 -0.6539 -0.6492
   60MOL   O18440422   5.757   2.744   1.916 -0.3489  0.1518 -0.6695
   60MOL   H18540423   6.290   2.728   0.583 -0.2589 -0.1178  0.6071
   60MOL   H18640424   6.008   2.730   0.638 -0.0307  2.3597  1.9251
   60MOL   H18740425   6.122   2.601   0.672  0.5927  0.3611 -0.0665
   60MOL   H18840426   6.105   2.858   0.836  2.6183 -0.0492  2.1575
   60MOL   H18940427   6.212   2.729   0.859  0.2217  0.6999  0.0609
   60MOL   H19040428   5.902   2.749   0.901  0.9607  1.3836  0.6707
   60MOL   H19140429   5.988   2.594   0.902 -1.2566  1.2516 -0.5990
   60MOL   H19240430   6.036   2.834   1.084  2.9603 -0.8061  0.5920
   60MOL   H19340431   6.108   2.679   1.104 -0.0919  0.4114  0.7624
   60MOL   H19440432   5.901   2.564   1.137 -0.6971 -0.2579  1.4616
   60MOL   H19540433   5.808   2.719   1.106 -0.3106 -0.7589 -1.0150
   60MOL   H19640434   5.988   2.681   1.360 -0.9640 -0.1536 -0.0315
   60MOL   H19740435   5.875   2.804   1.300 -1.2523 -0.2953 -0.3732
   60MOL   H19840436   5.760   2.546   1.373  0.9837 -0.3420 -1.0521
   60MOL   H19940437   5.681   2.690   1.322  0.0819  2.5317  0.5270
   60MOL   H20040438   5.860   2.670   1.579 -0.5000 -1.4442  0.5824
   60MOL   H20140439   5.753   2.802   1.527 -0.3905  0.5137 -1.5308
   60MOL   H20240440   5.671   2.519   1.597 -0.2890 -0.6270 -1.1153
   60MOL   H20340441   5.571   2.638   1.517 -0.2169 -1.0632 -0.9295
   60MOL   H20440442   5.524   2.637   1.771  1.6943 -2.0073  0.8082
   60MOL   H20540443   5.598   2.789   1.719 -0.6537  0.1966  1.1390
   60MOL   N20640444   5.765   2.528   1.852  0.0544  0.7874 -0.3460
   60MOL   C20740445   5.858   2.475   1.952 -0.0907  0.0493 -0.4133
   60MOL   C20840446   6.005   2.525   1.931  0.0846 -0.2111 -0.3678
   60MOL   C20940447   6.107   2.453   2.014 -0.1287 -0.7685  0.1028
   60MOL   C21040448   6.256   2.500   2.017  0.6270 -0.2790 -0.0796
   60MOL   C21140449   6.250   2.648   2.065 -0.9129 -0.2058 -0.5922
   60MOL   C21240450   6.381   2.697   2.131  0.1194 -0.2834 -0.6229
   60MOL   C21340451   6.365   2.849   2.167 -0.2576 -0.7589 -0.2913
   60MOL   C21440452   6.480   2.914   2.248  0.0953 -0.2468  0.1912
   60MOL   C21540453   6.613   2.913   2.172  0.7684 -0.0975 -0.0475
   60MOL   C21640454   6.612   2.985   2.037  0.5556 -0.1821 -0.4090
   60MOL   C21740455   6.616   2.899   1.913 -0.5271  0.9446  0.5194
   60MOL   O21840456   6.713   2.829   1.898 -0.1496 -0.5256  0.0435
   60MOL   H21940457   5.713   2.454   1.806 -2.2704  0.9948  1.7731
   60MOL   H22040458   5.856   2.366   1.942 -0.7853  0.2757 -3.0557
   60MOL   H22140459   5.819   2.510   2.048 -0.0814  0.8709 -0.7085
   60MOL   H22240460   5.996   2.623   1.978 -0.2273  0.3081 -1.4879
   60MOL   H22340461   6.031   2.526   1.826 -3.0272  1.7263 -1.1758
   60MOL   H22440462   6.070   2.452   2.117  1.0290  0.1438  0.5375
   60MOL   H22540463   6.103   2.349   1.982  2.1919 -0.7939 -0.1868
   60MOL   H22640464   6.310   2.494   1.922  0.5354 -0.3055 -0.1289
   60MOL   H22740465   6.311   2.435   2.086  0.2570  0.0977  0.5750
   60MOL   H22840466   6.183   2.660   2.150 -1.5053  1.9859 -1.3218
   60MOL   H22940467   6.219   2.716   1.985 -0.9377 -0.9214 -1.2003
   60MOL   H23040468   6.403   2.640   2.221 -0.3527  1.8055  0.8632
   60MOL   H23140469   6.459   2.685   2.057 -1.2079 -3.2066 -1.6233
   60MOL   H23240470   6.282   2.849   2.238 -0.9136 -1.7661 -1.0540
   60MOL   H23340471   6.356   2.921   2.086  0.1774  0.3946  0.6645
   60MOL   H23440472   6.451   3.017   2.269  1.6947  0.4215 -0.7810
   60MOL   H23540473   6.512   2.861   2.337  2.7144  1.7039  0.4613
   60MOL   H23640474   6.635   2.807   2.161  1.7956 -0.0600  1.5166
   60MOL   H23740475   6.696   2.954   2.230  0.9971 -0.1172 -0.3594
   60MOL   H23840476   6.709   3.035   2.039  0.9763 -0.9646 -0.9913
   60MOL   H23940477   6.540   3.067   2.034  1.6102  0.8018  0.4018
   60MOL   N24040478   6.515   2.914   1.827  0.5530  0.0974 -0.4685
   60MOL   C24140479   6.503   2.839   1.707 -1.1369 -0.2911 -0.4007
   60MOL   C24240480   6.422   2.712   1.728  0.5122 -0.3849 -0.1112
   60MOL   C24340481   6.380   2.641   1.595 -0.1759  0.4114  0.1752
   60MOL   C24440482   6.264   2.544   1.637  0.3327  0.1773 -0.0500
   60MOL   C24540483   6.204   2.459   1.526  0.5192 -0.2741  0.6762
   60MOL   C24640484   6.089   2.374   1.562  0.2375 -0.3743  0.1570
   60MOL   C24740485   6.050   2.289   1.434 -1.1371 -0.4268 -0.4489
   60MOL   C24840486   5.925   2.197   1.441 -0.0998 -0.5323  0.1185
   60MOL   C24940487   5.786   2.272   1.439 -0.5958 -0.3968 -0.2629
   60MOL   C25040488   5.674   2.180   1.495 -0.1520  0.1561 -0.3086
   60MOL   C25140489   5.677   2.186   1.654  0.1961  0.1596 -0.1734
   60MOL   O25240490   5.613   2.277   1.711  0.5681  0.5399 -0.6228
   60MOL   H25340491   6.438   2.975   1.851  0.5046  1.0140 -2.8295
   60MOL   H25440492   6.597   2.811   1.659 -0.1493 -0.9759  1.8641
   60MOL   H25540493   6.467   2.912   1.634  3.0534  2.1617 -0.1976
   60MOL   H25640494   6.329   2.745   1.773 -0.5592 -3.2900 -0.0492
   60MOL   H25740495   6.472   2.647   1.801  0.2152 -0.3580  0.1172
   60MOL   H25840496   6.355   2.716   1.520  4.0496  0.6841 -1.1221
   60MOL   H25940497   6.458   2.581   1.546 -1.7550 -0.6419 -1.1156
   60MOL   H26040498   6.185   2.607   1.679 -1.0711 -1.1018 -0.7074
   60MOL   H26140499   6.305   2.471   1.707  0.2971  1.2319  1.0833
   60MOL   H26240500   6.284   2.389   1.501  0.6163 -0.1800  0.7257
   60MOL   H26340501   6.187   2.519   1.437 -2.2299 -1.8839  0.0817
   60MOL   H26440502   6.109   2.313   1.651 -1.8323 -3.3511 -1.3704
   60MOL   H26540503   5.998   2.432   1.580 -0.4596 -1.1323 -0.9006
   60MOL   H26640504   6.141   2.231   1.418 -0.4034 -0.2298  2.7343
   60MOL   H26740505   6.037   2.355   1.348  2.2114  1.7328  0.6249
   60MOL   H26840506   5.931   2.134   1.352 -0.7807  0.2190 -0.4727
   60MOL   H26940507   5.929   2.122   1.520  1.6609 -0.4390  0.1253
   60MOL   H27040508   5.762   2.289   1.334  1.4382 -2.5199 -1.1207
   60MOL   H27140509   5.791   2.366   1.493 -0.4912  0.1130 -1.1438
   60MOL   H27240510   5.681   2.077   1.460 -1.0460  0.8012 -2.4311
   60MOL   H27340511   5.575   2.212   1.464 -0.7518  0.1629  1.5171
   60MOL   N27440512   5.736   2.083   1.726 -0.4296  0.3702  0.6325
   60MOL   C27540513   5.768   2.085   1.868  0.0836 -0.6932 -0.8198
   60MOL   C27640514   5.923   2.071   1.887  0.4956 -0.0260  0.5499
   60MOL   C27740515   5.971   2.081   2.038 -0.7948  0.3665  0.2198
   60MOL   C27840516   6.120   2.040   2.038  0.3496  0.1405 -0.5641
   60MOL   C27940517   6.179   2.047   2.179  0.1288  0.1568  0.0945
   60MOL   C28040518   6.320   1.986   2.187 -0.4937  0.1464 -0.4581
   60MOL   C28140519   6.372   1.965   2.329 -0.4429  0.7293 -0.0270
   60MOL   C28240520   6.516   1.916   2.326 -0.5733  0.4470  0.3842
   60MOL   C28340521   6.588   1.952   2.460  0.6554 -0.9547 -0.1334
   60MOL   C28440522   6.730   1.908   2.463 -0.7987  0.0248  0.1026
   60MOL   C28540523   6.790   1.917   2.602  0.6380  0.3646  0.2301
   60MOL   O28640524   6.773   2.012   2.683 -0.0637  0.7243 -0.0406
   60MOL   H28740525   5.772   2.002   1.677 -1.8237 -0.3471  0.7670
   60MOL   H28840526   5.714   2.013   1.930  2.0447  0.3822  2.2395
   60MOL   H28940527   5.743   2.179   1.917 -3.1597 -2.2285  0.6016
   60MOL   H29040528   5.980   2.138   1.823  1.5629 -1.4115  0.0250
   60MOL   H29140529   5.955   1.971   1.856  0.2299  0.4280 -1.2020
   60MOL   H29240530   5.947   2.172   2.093 -2.8641 -0.0354  0.0352
   60MOL   H29340531   5.916   2.000   2.085  2.2193 -2.0412 -0.2531
   60MOL   H29440532   6.184   2.110   1.985 -0.0565  1.5751  0.8050
   60MOL   H29540533   6.138   1.938   2.005 -0.5508  0.0282 -0.7130
   60MOL   H29640534   6.115   1.981   2.238  0.9600 -1.5553 -0.8904
   60MOL   H29740535   6.181   2.147   2.222  0.4105  0.1607  0.0680
   60MOL   H29840536   6.327   1.885   2.145  0.3862  0.0359 -0.0518
   60MOL   H29940537   6.386   2.048   2.126 -1.6276  1.5493 -0.2957
   60MOL   H30040538   6.314   1.892   2.386  0.7042  0.3746  0.7169
   60MOL   H30140539   6.365   2.058   2.386  0.1771  0.5165  0.4098
   60MOL   H30240540   6.524   1.809   2.307  1.0295  0.7407 -0.7712
   60MOL   H30340541   6.565   1.973   2.246 -0.9698 -1.4413 -1.2290
   60MOL   H30440542   6.548   1.888   2.538  0.5371 -0.4616  0.2095
   60MOL   H30540543   6.570   2.057   2.482 -0.8351 -0.8586 -1.7271
   60MOL   H30640544   6.801   1.956   2.395  0.4718  0.3482  1.6411
   60MOL   H30740545   6.723   1.803   2.436  1.1807  0.5738 -2.7680
   60MOL   N30840546   6.868   1.814   2.637 -0.7385 -0.0049  0.6675
   60MOL   C30940547   6.934   1.797   2.764 -0.6994  0.4025 -0.0413
   60MOL   C31040548   7.084   1.835   2.748 -0.9752  0.2348  0.1262
   60MOL   C31140549   7.146   1.737   2.634  0.6853 -0.3445  0.1850
   60MOL   C31240550   7.300   1.726   2.621  0.5963  0.2097 -0.7940
   60MOL   C31340551   7.365   1.667   2.743 -0.8415 -0.1719  0.1017
   60MOL   C31440552   7.520   1.660   2.731  0.4194  0.0452 -0.3343
   60MOL   C31540553   7.594   1.630   2.856  0.1540  0.3242 -0.7498
   60MOL   C31640554   0.036   1.651   2.833 -0.7091 -0.1534 -0.2327
   60MOL   C31740555   0.136   1.639   2.948  0.2475  0.9091 -0.6885
   60MOL   C31840556   0.152   1.494   3.005 -0.2823 -0.0781 -0.1254
   60MOL   C31940557   0.076   1.463   3.141 -0.3077  0.2530  0.4551
   60MOL   O32040558   0.102   1.528   3.244  0.0625  0.7086  0.1496
   60MOL   H32140559   6.860   1.733   2.577  1.9917  0.6630 -0.7057
   60MOL   H32240560   6.924   1.691   2.788  0.9598 -0.0608 -1.3001
   60MOL   H32340561   6.889   1.855   2.845  0.9285 -1.4149  2.2315
   60MOL   H32440562   7.134   1.811   2.842  1.5636  0.1505 -1.1938
   60MOL   H32540563   7.096   1.939   2.717 -0.2249  0.5923  1.5702
   60MOL   H32640564   7.105   1.637   2.646  0.5892 -0.2309  0.8659
   60MOL   H32740565   7.103   1.756   2.536 -1.1520 -1.5322  0.7136
   60MOL   H32840566   7.338   1.821   2.583  1.8134  0.2018  0.3423
   60MOL   H32940567   7.314   1.657   2.539  2.3747 -1.2494  0.6889
   60MOL   H33040568   7.326   1.569   2.770  0.9758 -0.9505 -0.0007
   60MOL   H33140569   7.344   1.728   2.831 -0.0613  0.4957 -0.1624
   60MOL   H33240570   7.551   1.597   2.648  1.0661 -0.4162  0.2516
   60MOL   H33340571   7.558   1.756   2.698 -2.9032  2.0969  1.4391
   60MOL   H33440572   7.575   1.529   2.893  1.1103  0.8038  1.1256
   60MOL   H33540573   7.565   1.691   2.942  0.5158  2.1668 -1.9044
   60MOL   H33640574   0.085   1.601   2.749  0.9344  1.2087 -0.1165
   60MOL   H33740575   0.050   1.750   2.791  2.3717 -0.9068 -1.0926
   60MOL   H33840576   0.114   1.707   3.030 -0.8304 -0.0690 -0.1388
   60MOL   H33940577   0.237   1.657   2.914  1.4760 -2.2007  1.0871
   60MOL   H34040578   0.257   1.472   3.020 -0.0052  0.9058 -0.5869
   60MOL   H34140579   0.121   1.417   2.934  1.8735  0.3956 -1.6294
   60MOL   N34240580   7.704   1.371   3.143  0.6666  0.3977  0.3261
   60MOL   C34340581   7.619   1.350   3.259  0.3640  0.2152 -0.5177
   60MOL   C34440582   7.480   1.403   3.242  0.1386  0.2057 -0.5082
   60MOL   C34540583   7.463   1.551   3.247 -0.6768  0.3345  0.3839
   60MOL   C34640584   7.327   1.597   3.219  0.1582 -0.4602  0.0482
   60MOL   C34740585   7.295   1.750   3.236  0.0733 -0.5311  0.6141
   60MOL   C34840586   7.199   1.812   3.135  0.3680 -0.1336 -0.1241
   60MOL   C34940587   7.135   1.949   3.176 -0.1993 -0.3668  0.1189
   60MOL   C35040588   7.043   2.010   3.074 -0.2281  0.6749  0.2210
   60MOL   C35140589   7.006   2.153   3.081  0.7328  0.0563  0.0457
   60MOL   C35240590   6.911   2.188   2.963 -0.3113 -0.0766 -0.1419
   60MOL   C35340591   6.771   2.190   3.008  0.5594  0.6766  0.1083
   60MOL   O35440592   6.734   2.264   3.096  0.0567  0.5070 -0.3781
   60MOL   H35540593   7.700   1.308   3.065  2.0015  1.6899 -0.8158
   60MOL   H35640594   7.624   1.241   3.260  0.6307  0.2238  0.7088
   60MOL   H35740595   7.657   1.380   3.357 -2.6761 -0.1174  0.8371
   60MOL   H35840596   7.422   1.349   3.316  0.2697  2.0406  0.9741
   60MOL   H35940597   7.441   1.361   3.150  0.6888  0.5646 -0.9121
   60MOL   H36040598   7.478   1.584   3.350 -1.8612  0.1620  0.6121
   60MOL   H36140599   7.523   1.597   3.168 -0.6245 -0.0047  0.2284
   60MOL   H36240600   7.253   1.535   3.271 -0.7194  1.2711  0.8835
   60MOL   H36340601   7.310   1.574   3.113 -0.8744  2.6841 -0.4952
   60MOL   H36440602   7.381   1.816   3.244 -0.3348 -0.0004  0.7091
   60MOL   H36540603   7.243   1.761   3.331 -2.6551 -3.5029 -0.4338
   60MOL   H36640604   7.252   1.830   3.041 -1.3613  2.0128 -0.7350
   60MOL   H36740605   7.121   1.743   3.102 -0.6877 -0.1688  2.3872
   60MOL   H36840606   7.218   2.017   3.198 -1.4912  0.8131  1.4994
   60MOL   H36940607   7.079   1.942   3.269 -0.4213 -1.3138 -0.0812
   60MOL   H37040608   7.113   2.004   2.990 -0.1566  0.5465  0.2903
   60MOL   H37140609   6.957   1.945   3.058 -0.4398  0.9370  0.3090
   60MOL   H37240610   7.098   2.211   3.081 -1.2306  3.3470  2.6433
   60MOL   H37340611   6.967   2.180   3.180  1.8802  1.9953 -0.0136
   60MOL   H37440612   6.917   2.116   2.881  1.0554  0.8977 -0.9235
   60MOL   H37540613   6.923   2.291   2.929  0.3126 -0.2589 -0.4839
   60MOL   N37640614   6.688   2.097   2.943  0.3485 -0.0569 -0.1787
   60MOL   C37740615   6.538   2.084   2.967 -0.3044 -0.0452  0.7192
   60MOL   C37840616   6.466   2.079   2.833 -0.1365 -0.1173  0.0420
   60MOL   C37940617   6.316   2.026   2.828  0.5145 -0.5635  0.2795
   60MOL   C38040618   6.250   2.027   2.687 -0.2378 -0.6440  0.2974
   60MOL   C38140619   6.120   1.940   2.686 -0.2246 -0.8506 -0.4424
   60MOL   C38240620   6.028   1.949   2.570 -0.0697  0.6597 -0.1240
   60MOL   C38340621   5.892   1.874   2.592 -0.4394 -0.5470 -0.2624
   60MOL   C38440622   5.789   1.907   2.481  0.2554  0.1223 -0.4725
   60MOL   C38540623   5.737   2.057   2.461 -0.0734 -0.9394 -0.0336
   60MOL   C38640624   5.598   2.059   2.387  0.6371  0.4685 -0.5273
   60MOL   C38740625   5.578   2.190   2.321 -0.1440  0.1913  1.0951
   60MOL   O38840626   5.585   2.294   2.393 -0.2199  0.1405  0.5062
   60MOL   H38940627   6.731   2.044   2.868 -1.0545 -1.8747  0.2348
   60MOL   H39040628   6.519   1.992   3.021  0.2425 -1.2718 -1.1287
   60MOL   H39140629   6.505   2.179   3.009  1.8838  0.6264  0.9916
   60MOL   H39240630   6.521   2.011   2.767  2.2066  1.1843  0.5766
   60MOL   H39340631   6.482   2.170   2.775  2.1679 -0.5678 -0.0770
   60MOL   H39440632   6.292   1.931   2.875 -0.0436  0.2737  1.7248
   60MOL   H39540633   6.265   2.095   2.896  1.0326 -1.1729  1.2878
   60MOL   H39640634   6.315   2.001   2.603 -0.7371  2.2806 -1.0582
   60MOL   H39740635   6.218   2.128   2.663 -2.1271 -1.1165  0.6942
   60MOL   H39840636   6.064   1.962   2.777 -0.4296 -1.1732 -0.4901
   60MOL   H39940637   6.149   1.838   2.711  0.9738 -0.3503  0.2383
   60MOL   H40040638   6.004   2.055   2.559 -0.5020  0.6867  1.0181
   60MOL   H40140639   6.084   1.918   2.482 -0.0822 -1.4471  0.5780
   60MOL   H40240640   5.852   1.901   2.690 -1.2921 -1.1617 -0.4332
   60MOL   H40340641   5.902   1.765   2.598  1.5419 -0.3801 -0.3461
   60MOL   H40440642   5.824   1.876   2.383 -1.4653  0.5173 -1.2359
   60MOL   H40540643   5.701   1.847   2.504  0.1251 -0.8924 -3.3740
   60MOL   H40640644   5.813   2.114   2.409 -0.6964  1.2901  1.4444
   60MOL   H40740645   5.734   2.101   2.561  0.3375  1.0405 -0.8876
   60MOL   H40840646   5.520   2.040   2.461 -0.3132  1.5243 -1.2473
   60MOL   H40940647   5.595   1.986   2.306 -0.0465 -0.3723  0.2455
   60MOL   N41040648   5.555   2.197   2.188  0.6315 -0.2149 -0.5782
   60MOL   C41140649   5.543   2.322   2.114 -0.2733 -0.2822  0.1956
   60MOL   C41240650   5.437   2.301   2.001 -0.3663 -1.0438  0.2978
   60MOL   C41340651   5.411   2.432   1.937 -0.6683 -0.5350  0.3412
   60MOL   C41440652   5.326   2.420   1.805  0.1491 -0.1593  0.3089
   60MOL   C41540653   5.200   2.332   1.816  0.7688  0.0090  0.0642
   60MOL   C41640654   5.093   2.391   1.908 -0.6611  0.0051 -0.7490
   60MOL   C41740655   4.963   2.305   1.889  0.3235 -0.1252  0.6084
   60MOL   C41840656   4.843   2.367   1.949 -0.1163 -0.4689  0.0961
   60MOL   C41940657   4.707   2.288   1.921 -1.2450 -0.4404 -0.3579
   60MOL   C42040658   4.575   2.364   1.926  0.0689 -0.2154 -0.7220
   60MOL   C42140659   4.573   2.459   2.046 -0.1977 -0.4721 -0.8310
   60MOL   O42240660   4.608   2.410   2.157  0.2865 -0.3215  0.6978
   60MOL   H42340661   5.546   2.104   2.149  0.2082 -0.4123 -0.0105
   60MOL   H42440662   5.515   2.403   2.181  0.0883  0.7720 -0.8980
   60MOL   H42540663   5.639   2.345   2.067  0.5677 -1.4593  1.2993
   60MOL   H42640664   5.343   2.274   2.049 -0.5709  0.0471  0.5165
   60MOL   H42740665   5.465   2.226   1.927  0.0407 -1.4284  0.8365
   60MOL   H42840666   5.369   2.503   2.008 -0.7834  1.5274 -1.7441
   60MOL   H42940667   5.508   2.468   1.904 -1.0632  1.0377  0.8825
   60MOL   H43040668   5.392   2.379   1.729 -1.4029  0.9845 -1.7171
   60MOL   H43140669   5.290   2.517   1.769 -0.1132 -0.7301 -0.9887
   60MOL   H43240670   5.239   2.231   1.835 -2.2232 -1.2286 -0.0932
   60MOL   H43340671   5.157   2.326   1.717 -2.2405 -1.6391  1.3950
   60MOL   H43440672   5.136   2.380   2.008  0.1595 -0.5690 -1.1601
   60MOL   H43540673   5.079   2.494   1.876  1.7955  0.2710 -1.0225
   60MOL   H43640674   4.980   2.206   1.933 -0.2908 -0.4013  0.2176
   60MOL   H43740675   4.941   2.280   1.786  0.5492  1.2224  0.2294
   60MOL   H43840676   4.864   2.381   2.055  0.0853  1.1658 -0.1567
   60MOL   H43940677   4.844   2.465   1.902 -1.9489 -0.6217 -0.3187
   60MOL   H44040678   4.705   2.207   1.994  2.7186  0.9170  1.4419
   60MOL   H44140679   4.712   2.246   1.820 -1.8827  1.0365 -1.0160
   60MOL   H44240680   4.485   2.302   1.933 -1.1229  1.7094  1.5738
   60MOL   H44340681   4.565   2.418   1.832  0.4506 -0.0344 -0.6572
   60MOL   N44440682   4.549   2.591   2.030 -0.2982 -0.1638  0.6213
   60MOL   C44540683   4.576   2.683   2.140  0.9857 -0.1264  0.6213
   60MOL   C44640684   4.462   2.784   2.172 -0.4769  0.0087  0.9071
   60MOL   C44740685   4.453   2.896   2.068  0.1435  0.0510  0.0852
   60MOL   C44840686   4.380   3.021   2.119  0.1991 -0.0677  0.1888
   60MOL   C44940687   4.234   2.999   2.153 -0.6267 -0.1340 -0.2650
   60MOL   C45040688   4.154   3.119   2.210 -0.2501  0.0371 -0.2345
   60MOL   C45140689   4.216   3.192   2.325  0.2962  0.2756  0.1753
   60MOL   C45240690   4.251   3.096   2.444  0.5427  0.0025 -0.2008
   60MOL   C45340691   4.122   3.035   2.514 -0.9925  0.2723  0.5609
   60MOL   C45440692   3.999   3.126   2.539 -0.2702  0.2338  0.1077
   60MOL   C45540693   4.023   3.235   2.638 -0.0688 -0.3281 -0.7751
   60MOL   O45640694   4.079   3.216   2.742  0.2400 -0.0833  0.1234
   60MOL   H45740695   4.522   2.633   1.942 -0.8350  2.2534  1.9297
   60MOL   H45840696   4.612   2.640   2.234  1.8764  2.7974  1.6719
   60MOL   H45940697   4.654   2.752   2.109 -1.8779  2.3110 -1.4790
   60MOL   H46040698   4.461   2.831   2.271 -1.9146 -2.7189  2.2623
   60MOL   H46140699   4.367   2.731   2.177 -0.7037  0.4122  0.8913
   60MOL   H46240700   4.550   2.927   2.030 -0.2236  0.8373 -0.2361
   60MOL   H46340701   4.401   2.866   1.977 -0.7249  0.1133  0.5596
   60MOL   H46440702   4.389   3.106   2.052  0.2208 -0.7731 -0.7047
   60MOL   H46540703   4.432   3.055   2.209  0.3220 -1.7665  0.7674
   60MOL   H46640704   4.227   2.931   2.238 -2.1658  2.3352  1.6165
   60MOL   H46740705   4.189   2.957   2.063 -1.5513  1.6669 -0.6539
   60MOL   H46840706   4.142   3.188   2.126 -1.2476 -0.0030 -0.1294
   60MOL   H46940707   4.050   3.096   2.233 -0.5216 -0.0805 -1.5552
   60MOL   H47040708   4.142   3.264   2.359  1.1810  0.8593  0.8713
   60MOL   H47140709   4.302   3.252   2.296  1.0824  0.3926  2.6281
   60MOL   H47240710   4.321   3.018   2.414 -0.5173 -1.0137 -0.0690
   60MOL   H47340711   4.304   3.150   2.522  0.5828  1.0814 -0.9571
   60MOL   H47440712   4.151   2.972   2.598  0.8313  0.1942 -0.0855
   60MOL   H47540713   4.094   2.958   2.443  2.1538  1.5794 -2.2489
   60MOL   H47640714   3.941   3.059   2.602 -0.5930  0.9354  0.5666
   60MOL   H47740715   3.941   3.153   2.451 -3.5064  3.4707  3.0353
   60MOL   N47840716   3.975   3.351   2.594  0.1743  0.1002  0.1854
   60MOL   C47940717   3.981   3.470   2.666  0.1916 -0.0039 -1.1555
   60MOL   C48040718   3.949   3.589   2.587 -0.7824 -0.1984  0.8531
   60MOL   C48140719   3.939   3.723   2.661 -0.0388 -0.0833  0.0277
   60MOL   C48240720   3.906   3.836   2.575  0.0809 -0.1977 -0.7405
   60MOL   C48340721   3.884   3.970   2.649 -0.9737  0.1446 -0.1767
   60MOL   C48440722   3.805   4.073   2.562 -0.1563  0.6635 -0.4517
   60MOL   C48540723   3.797   4.205   2.620 -0.2204  0.3510  0.2668
   60MOL   C48640724   3.723   4.298   2.528 -0.7697  0.3488  0.2689
   60MOL   C48740725   3.728   4.448   2.554 -0.9213  0.6543  0.0761
   60MOL   C48840726   3.670   4.533   2.452  0.1222 -0.1784  0.0596
   60MOL   C48940727   3.736   4.532   2.315  0.2699  0.4090 -0.8543
   60MOL   O49040728   3.855   4.496   2.299  0.6340 -0.5337  0.0029
   60MOL   H49140729   3.943   3.351   2.498  1.2515 -1.7727 -0.2056
   60MOL   H49240730   3.905   3.453   2.742  2.0081  1.6298  1.0750
   60MOL   H49340731   4.084   3.471   2.701 -0.6373 -2.9394  1.5167
   60MOL   H49440732   3.851   3.574   2.541 -0.9746  0.8776  0.9021
   60MOL   H49540733   4.016   3.605   2.502 -0.4064  1.9635  1.5251
   60MOL   H49640734   3.861   3.720   2.738  1.2636  0.2731  1.3736
   60MOL   H49740735   4.028   3.746   2.719  0.2926 -0.0910 -0.4723
   60MOL   H49840736   3.817   3.811   2.518  1.1315 -0.9423 -2.0809
   60MOL   H49940737   3.984   3.845   2.499  1.4120 -0.0734  0.6084
   60MOL   H50040738   3.985   4.001   2.677 -0.9449  0.7539 -0.9429
   60MOL   H50140739   3.825   3.959   2.740 -1.3243 -3.0455 -0.7259
   60MOL   H50240740   3.853   4.078   2.465  1.9837  1.4404  0.6052
   60MOL   H50340741   3.707   4.027   2.553 -0.3681  0.7819  1.0849
   60MOL   H50440742   3.899   4.238   2.639 -0.6460  2.0682 -0.3192
   60MOL   H50540743   3.746   4.194   2.716  1.7922 -1.2530  1.1890
   60MOL   H50640744   3.759   4.286   2.426 -1.9427 -1.2431  0.0261
   60MOL   H50740745   3.618   4.269   2.526 -1.0156  1.3074 -1.6991
   60MOL   H50840746   3.831   4.484   2.562 -0.0023 -1.2836 -2.5124
   60MOL   H50940747   3.680   4.464   2.651 -0.5264  0.0172  0.3803
   60MOL   H51040748   3.676   4.634   2.493  0.6140 -1.1903  2.5551
   60MOL   H51140749   3.563   4.510   2.455 -0.1357  0.9255 -0.6055
   60MOL   N51240750   3.664   4.577   2.214 -0.2295  0.6711  0.2144
   60MOL   C51340751   3.707   4.577   2.073  0.2217  0.0472 -0.0581
   60MOL   C51440752   3.633   4.683   1.991  0.2741  0.6278  0.6589
   60MOL   C51540753   3.640   4.677   1.836  0.5372  0.3642  0.0661
   60MOL   C51640754   3.580   4.809   1.773 -0.6568 -0.6548  0.0462
   60MOL   C51740755   3.603   4.828   1.625 -0.0331  0.0316  1.1107
   60MOL   C51840756   3.549   4.711   1.542 -0.1666 -0.2382 -0.2252
   60MOL   C51940757   3.406   4.729   1.493 -0.0918  0.1792 -0.5377
   60MOL   C52040758   3.365   4.635   1.391 -0.4277  0.0032 -0.2068
   60MOL   C52140759   3.219   4.642   1.342  0.0939 -0.3842  0.4552
   60MOL   C52240760   3.176   4.526   1.242  0.3472 -0.5164  0.9619
   60MOL   C52340761   3.034   4.541   1.175 -0.5556  0.1676  0.3494
   60MOL   O52440762   2.944   4.601   1.231 -0.3621 -0.0788  0.5187
   60MOL   H52540763   3.569   4.608   2.232 -0.5898 -0.3738  0.1719
   60MOL   H52640764   3.812   4.598   2.057  0.4920  0.2057  1.7990
   60MOL   H52740765   3.696   4.481   2.022 -3.9542  0.5504 -0.3462
   60MOL   H52840766   3.672   4.775   2.035  1.8759  0.2387  0.1183
   60MOL   H52940767   3.527   4.672   2.011  0.7719 -0.7548  2.5656
   60MOL   H53040768   3.741   4.663   1.798 -0.7690 -0.2401 -3.3003
   60MOL   H53140769   3.594   4.582   1.809  0.3290  0.5331 -0.1687
   60MOL   H53240770   3.627   4.896   1.820 -2.1712  0.7505 -1.0034
   60MOL   H53340771   3.474   4.801   1.795 -0.6491 -1.0623 -0.0665
   60MOL   H53440772   3.711   4.827   1.610 -0.4561 -1.2001 -2.2374
   60MOL   H53540773   3.568   4.926   1.595  0.0730 -0.1715  0.3119
   60MOL   H53640774   3.621   4.715   1.460 -0.8047 -0.2566 -0.7942
   60MOL   H53740775   3.569   4.614   1.587  0.8733  0.6506  1.2563
   60MOL   H53840776   3.383   4.832   1.466 -1.3898 -0.1223 -0.6522
   60MOL   H53940777   3.339   4.713   1.578  0.0634  1.3196 -0.1991
   60MOL   H54040778   3.438   4.640   1.310 -0.7789  1.3789 -0.4402
   60MOL   H54140779   3.386   4.539   1.440  0.4604  0.6324  0.6840
   60MOL   H54240780   3.199   4.740   1.298  1.5987  0.2811  1.2417
   60MOL   H54340781   3.155   4.648   1.430  0.5798 -0.6672  0.8268
   60MOL   H54440782   3.184   4.429   1.290 -0.7405 -1.1121 -0.0468
   60MOL   H54540783   3.239   4.538   1.154  0.3041  2.9189  1.3139
   60MOL   N54640784   3.021   4.478   1.058 -0.3238  0.0194  0.8171
   60MOL   C54740785   2.910   4.462   0.964 -1.2732 -0.1498  0.3959
   60MOL   C54840786   2.890   4.310   0.931 -0.5265 -0.2958  0.5978
   60MOL   C54940787   2.828   4.270   0.798  0.6723  0.0249  0.6540
   60MOL   C55040788   2.772   4.121   0.796  0.5750  0.3315  0.9439
   60MOL   C55140789   2.665   4.095   0.685 -0.1130 -0.5023  0.5048
   60MOL   C55240790   2.630   3.948   0.661  0.4395  0.1897 -0.1644
   60MOL   C55340791   2.611   3.869   0.791 -0.2777  0.5879  0.1263
   60MOL   C55440792   2.510   3.756   0.773  0.3658  0.4377 -0.2785
   60MOL   C55540793   2.515   3.660   0.896 -0.5954 -0.2013 -0.3792
   60MOL   C55640794   2.412   3.544   0.899  0.3891  0.5435  0.4829
   60MOL   C55740795   2.445   3.427   0.805 -0.3945  0.2751 -0.4922
   60MOL   O55840796   2.561   3.383   0.790 -0.6262  0.1255  0.3728
   60MOL   H55940797   3.107   4.435   1.027  1.1609  2.5168  1.3219
   60MOL   H56040798   2.812   4.499   0.995 -1.5405 -1.0001  0.5841
   60MOL   H56140799   2.942   4.513   0.873  2.3074 -1.8008  0.6377
   60MOL   H56240800   2.822   4.265   1.003 -0.6329 -1.1565 -0.0377
   60MOL   H56340801   2.983   4.255   0.943 -0.5676 -1.0699 -2.1638
   60MOL   H56440802   2.755   4.345   0.769  2.0159  1.4383  0.8461
   60MOL   H56540803   2.898   4.289   0.717  0.2702 -2.1238 -0.2212
   60MOL   H56640804   2.737   4.104   0.898  1.7777  0.2141  1.3461
   60MOL   H56740805   2.859   4.056   0.783  0.2741  0.3153 -1.2247
   60MOL   H56840806   2.691   4.133   0.586  0.1542  3.4696  1.9802
   60MOL   H56940807   2.572   4.146   0.710  0.2381  0.7614 -0.6958
   60MOL   H57040808   2.536   3.944   0.606 -0.1739  1.4295  0.7514
   60MOL   H57140809   2.699   3.899   0.593 -0.7634 -0.8826 -0.6252
   60MOL   H57240810   2.568   3.931   0.870 -3.0993 -0.6664 -0.3710
   60MOL   H57340811   2.711   3.841   0.823 -0.4441 -3.5745 -2.6676
   60MOL   H57440812   2.407   3.790   0.766  1.1282  3.0671  0.4566
   60MOL   H57540813   2.526   3.692   0.687  1.7264 -1.1237  1.1096
   60MOL   H57640814   2.508   3.724   0.984  1.0627  0.2181 -0.5424
   60MOL   H57740815   2.615   3.619   0.910  0.7486  3.3902  1.1399
   60MOL   H57840816   2.318   3.593   0.874 -0.7525 -1.5966  0.4660
   60MOL   H57940817   2.411   3.496   0.997  0.0117 -2.1404 -0.7742
   60MOL   N58040818   2.343   3.399   0.725  0.1122 -0.7273  0.2223
   60MOL   C58140819   2.363   3.318   0.604  0.2614 -0.4319  0.3874
   60MOL   C58240820   2.430   3.417   0.502 -0.0312  0.4422  0.9197
   60MOL   C58340821   2.483   3.337   0.377 -0.6236  0.5580  0.5443
   60MOL   C58440822   2.367   3.273   0.301  1.0746 -0.4106  1.1839
   60MOL   C58540823   2.413   3.197   0.176  0.2863 -0.0881 -1.0616
   60MOL   C58640824   2.461   3.058   0.206  0.4327  0.9690 -0.0637
   60MOL   C58740825   2.544   2.993   0.092 -0.1295 -0.5414  0.7022
   60MOL   C58840826   2.644   2.892   0.148  0.6813 -0.4328 -0.5924
   60MOL   C58940827   2.711   2.822   0.029 -0.5394  0.1717  0.6878
   60MOL   C59040828   2.815   2.715   0.068 -0.1591 -0.3769  0.3900
   60MOL   C59140829   2.762   2.573   0.098  0.4092  0.6474  0.0599
   60MOL   O59240830   2.641   2.566   0.135 -0.6265  0.7027 -0.3741
   60MOL   H59340831   2.254   3.441   0.750 -0.4789 -1.8750  0.0411
   60MOL   H59440832   2.434   3.237   0.623  0.1060 -0.8989 -0.9660
   60MOL   H59540833   2.272   3.277   0.560 -0.2796 -0.4196  1.4716
   60MOL   H59640834   2.518   3.471   0.539  0.9735 -0.4249 -0.1662
   60MOL   H59740835   2.355   3.491   0.475 -0.4695  0.3176  1.7653
   60MOL   H59840836   2.541   3.409   0.320  0.3972 -0.4936  0.2213
   60MOL   H59940837   2.549   3.252   0.395 -1.7206 -0.3917  0.1751
   60MOL   H60040838   2.306   3.354   0.263 -0.1204 -0.9374  1.9682
   60MOL   H60140839   2.295   3.220   0.363 -0.4040 -0.3268 -0.4349
   60MOL   H60240840   2.493   3.249   0.123  1.8094 -2.2010 -0.9009
   60MOL   H60340841   2.331   3.195   0.103 -1.1482 -0.6420  0.5409
   60MOL   H60440842   2.516   3.056   0.300  2.2065 -2.0216 -1.1285
   60MOL   H60540843   2.372   2.997   0.224 -0.7810  2.8342  0.4446
   60MOL   H60640844   2.589   3.069   0.029 -0.9136 -0.6271  0.0294
   60MOL   H60740845   2.468   2.943   0.032 -0.1360  0.8379 -0.4768
   60MOL   H60840846   2.713   2.937   0.219 -0.5297  1.4618 -0.5634
   60MOL   H60940847   2.587   2.820   0.206 -0.6978  1.4707  0.4630
   60MOL   H61040848   2.749   2.901   7.680 -1.6485 -1.8495 -2.5712
   60MOL   H61140849   2.628   2.773   7.694  0.2835 -0.1756 -0.3478
   60MOL   H61240850   2.851   2.748   0.165  2.6539 -0.6865 -0.4972
   60MOL   H61340851   2.897   2.705   7.712 -2.1386 -0.6638 -1.9090
   60MOL   N61440852   2.844   2.459   0.102 -0.0642  0.6249  0.4759
   60MOL   C61540853   2.792   2.328   0.141 -0.9566 -0.5465  0.7861
   60MOL   C61640854   2.787   2.238   0.014 -0.1693 -0.3091  0.0483
   60MOL   C61740855   2.661   2.264   7.645  0.3053  0.8970  0.2199
   60MOL   C61840856   2.648   2.196   7.503  0.0804 -0.6258 -0.2990
   60MOL   C61940857   2.517   2.227   7.433  0.0925  0.6580 -0.3652
   60MOL   C62040858   2.497   2.149   7.301  1.2700 -0.0545  0.0998
   60MOL   C62140859   2.360   2.183   7.229  0.4592  0.3541  0.5190
   60MOL   C62240860   2.357   2.316   7.175  0.3469  0.5451 -0.1143
   60MOL   C62340861   2.238   2.331   7.079  0.7107 -0.2169 -0.8143
   60MOL   C62440862   2.190   2.479   7.064 -0.8990  0.0399 -0.0866
   60MOL   C62540863   2.062   2.503   6.984 -0.6304 -0.0285  0.1575
   60MOL   O62640864   2.016   2.617   6.962  0.5952  0.2460  0.1528
   60MOL   H62740865   2.943   2.479   0.106  0.0540  0.1798 -0.1738
   60MOL   H62840866   2.702   2.339   0.203 -1.3164  1.0166  0.0328
   60MOL   H62940867   2.867   2.274   0.199 -2.3410 -0.4603  2.6994
   60MOL   H63040868   2.792   2.131   0.032 -0.4041 -0.1122  1.3011
   60MOL   H63140869   2.872   2.270   7.671 -1.2179 -0.3146 -1.5061
   60MOL   H63240870   2.574   2.239   7.706 -0.7742  0.0407 -1.6054
   60MOL   H63340871   2.654   2.372   7.638  1.8700  1.4596  5.4830
   60MOL   H63440872   2.673   2.091   7.515 -0.1181 -0.6708 -0.2748
   60MOL   H63540873   2.715   2.245   7.432 -0.2736 -3.4499 -2.6618
   60MOL   H63640874   2.511   2.333   7.411 -2.0030  0.2167 -2.1651
   60MOL   H63740875   2.436   2.192   7.497  1.5124 -0.8627  0.6248
   60MOL   H63840876   2.574   2.190   7.235  1.0730  2.8900  1.5840
   60MOL   H63940877   2.510   2.042   7.318  1.4364  0.3369  2.6818
   60MOL   H64040878   2.275   2.170   7.295 -0.5828 -1.0704 -1.0580
   60MOL   H64140879   2.366   2.111   7.147  0.9011  1.2070 -0.2136
   60MOL   H64240880   2.355   2.393   7.251 -1.3190 -1.0427  1.4795
   60MOL   H64340881   2.445   2.323   7.110 -0.1040 -1.7025 -1.0364
   60MOL   H64440882   2.153   2.277   7.122  1.9301 -1.6243 -0.1188
   60MOL   H64540883   2.255   2.290   6.979  1.0000 -0.8417 -0.5120
   60MOL   H64640884   2.262   2.532   7.002 -0.0646 -0.4284  0.4847
   60MOL   H64740885   2.174   2.517   7.165 -1.9471  1.0678 -0.6278
   60MOL   N64840886   2.011   2.393   6.923 -0.2553  0.2624  0.0904
   60MOL   C64940887   1.893   2.371   6.841  0.8809  0.0514 -0.4628
   60MOL   C65040888   1.907   2.234   6.768  0.2714 -0.6383 -0.6727
   60MOL   C65140889   1.780   2.177   6.707 -0.9286  0.3323 -0.6205
   60MOL   C65240890   1.770   2.029   6.696  0.3450  0.3044  0.0866
   60MOL   C65340891   1.647   1.977   6.624  0.1366 -0.2178  0.3081
   60MOL   C65440892   1.635   1.830   6.631 -0.5171  0.4409 -0.6822
   60MOL   C65540893   1.508   1.771   6.567  0.4112 -0.3326 -0.0846
   60MOL   C65640894   1.504   1.620   6.554  0.7811 -0.5402  0.1076
   60MOL   C65740895   1.593   1.552   6.447 -0.0442 -0.6251  0.2449
   60MOL   C65840896   1.553   1.567   6.299  0.2321  0.3751  0.7256
   60MOL   C65940897   1.676   1.568   6.198  0.9495 -0.0476 -0.1018
   60MOL   O66040898   1.772   1.636   6.210 -0.5769 -0.4741  0.0729
   60MOL   H66140899   2.064   2.308   6.935 -0.2292  0.1138 -1.0759
   60MOL   H66240900   1.871   2.444   6.763 -1.9120  0.9999  1.1400
   60MOL   H66340901   1.814   2.375   6.916  0.5013  0.1524 -0.8660
   60MOL   H66440902   1.949   2.152   6.825  0.5337 -0.2006 -0.2291
   60MOL   H66540903   1.980   2.249   6.689  0.3312  1.2949 -0.2742
   60MOL   H66640904   1.707   2.207   6.782 -1.4862 -0.0176 -1.0269
   60MOL   H66740905   1.760   2.223   6.611  1.2267  0.1305 -1.2049
   60MOL   H66840906   1.772   1.999   6.801 -1.8205 -1.4155 -0.3398
   60MOL   H66940907   1.863   1.993   6.652 -2.1022 -0.3245 -4.8648
   60MOL   H67040908   1.651   1.998   6.518  2.5735 -1.3514  0.1560
   60MOL   H67140909   1.561   2.029   6.668  0.2845  0.1072  0.2182
   60MOL   H67240910   1.721   1.784   6.584  0.0912 -0.6012  1.4032
   60MOL   H67340911   1.660   1.802   6.733  1.4395 -0.1990 -1.3170
   60MOL   H67440912   1.522   1.812   6.467  1.0895 -1.4487 -0.4541
   60MOL   H67540913   1.422   1.811   6.621 -0.7219 -3.8727  0.8492
   60MOL   H67640914   1.555   1.601   6.648  1.9392  2.4768  0.1450
   60MOL   H67740915   1.406   1.574   6.566  1.1496 -0.8407  2.2188
   60MOL   H67840916   1.601   1.446   6.469 -0.4730 -0.4353  1.3735
   60MOL   H67940917   1.686   1.609   6.454 -2.5581  3.3239  3.7379
   60MOL   H68040918   1.509   1.667   6.289 -1.2119 -0.3980 -0.9065
   60MOL   H68140919   1.479   1.497   6.260  0.1523  0.4898  0.6694
   60MOL   H68240920   1.662   1.507   6.108 -0.2010 -0.0612  0.0785
   61MOL     N140921   1.608   4.610   6.427 -0.4769  0.4667 -0.0705
   61MOL     C240922   1.726   4.569   6.348 -0.2623  0.3041 -0.2648
   61MOL     C340923   1.763   4.429   6.389  0.1144 -0.2947  0.2590
   61MOL     C440924   1.879   4.363   6.306 -0.0933  0.9692 -0.2817
   61MOL     C540925   1.927   4.235   6.384 -0.2881  0.2528  0.1578
   61MOL     C640926   2.024   4.143   6.308  0.2418 -0.0071 -0.4506
   61MOL     C740927   2.039   4.013   6.389  0.3056  0.3514  0.0708
   61MOL     C840928   1.916   3.922   6.373 -0.8513 -0.1916  0.8364
   61MOL     C940929   1.907   3.803   6.466 -0.3506 -0.6246 -0.6674
   61MOL    C1040930   1.871   3.851   6.600 -0.1821 -0.4000  0.5131
   61MOL    C1140931   1.842   3.742   6.706  0.1467 -0.9802 -0.5864
   61MOL    C1240932   1.958   3.653   6.752 -0.4956  0.3955 -0.1064
   61MOL    O1340933   2.077   3.688   6.736 -0.1739 -0.5047 -0.3039
   61MOL    H1440934   1.528   4.590   6.369 -0.9522  1.7893  0.1080
   61MOL    H1540935   1.806   4.643   6.351 -1.1440  1.2077  2.1744
   61MOL    H1640936   1.697   4.558   6.244 -1.0936  0.7350 -0.0786
   61MOL    H1740937   1.686   4.353   6.381  0.2898 -0.5500  0.8855
   61MOL    H1840938   1.809   4.424   6.489  0.8564  0.5235 -0.0307
   61MOL    H1940939   1.850   4.335   6.204 -0.3082 -0.2790  0.1152
   61MOL    H2040940   1.960   4.435   6.293  1.7793 -1.0069  0.0595
   61MOL    H2140941   1.834   4.190   6.418 -0.6717 -0.1119 -1.3151
   61MOL    H2240942   1.971   4.274   6.476 -1.8651 -0.0059  1.0319
   61MOL    H2340943   2.119   4.196   6.298 -0.3801  1.2265  0.0256
   61MOL    H2440944   1.987   4.126   6.208  0.4567 -1.7565 -0.2458
   61MOL    H2540945   2.128   3.961   6.353  0.3249  2.6689 -3.4336
   61MOL    H2640946   2.071   4.040   6.490 -0.1136  3.1587 -0.5020
   61MOL    H2740947   1.927   3.899   6.267  3.1296  3.1607  0.3835
   61MOL    H2840948   1.824   3.981   6.380  0.4349  1.8464  1.0195
   61MOL    H2940949   1.835   3.730   6.431 -1.0566 -1.1152  1.6835
   61MOL    H3040950   1.995   3.742   6.487  0.7573  0.8167 -1.0708
   61MOL    H3140951   1.777   3.907   6.599 -0.7497 -1.1960  4.0264
   61MOL    H3240952   1.956   3.912   6.632  0.6184 -0.6349 -1.1269
   61MOL    H3340953   1.763   3.678   6.667 -0.4492 -1.6530  1.6637
   61MOL    H3440954   1.803   3.786   6.798  2.1342 -0.6045  0.1092
   61MOL    H3540955   1.603   4.710   6.439 -0.7707  0.4525 -0.0693
   61MOL    N3640956   1.919   3.542   6.820  0.3763 -0.1370  0.3322
   61MOL    C3740957   2.015   3.441   6.853  0.7046  0.1568  0.3037
   61MOL    C3840958   1.993   3.319   6.766 -0.4709 -0.3417  0.7542
   61MOL    C3940959   2.085   3.202   6.794 -0.6401 -0.6593  0.1767
   61MOL    C4040960   2.083   3.084   6.699 -0.0196  0.2532  0.2050
   61MOL    C4140961   1.948   3.014   6.678 -0.8471 -0.6722  1.0159
   61MOL    C4240962   1.966   2.898   6.580  0.1019 -0.1350  0.3450
   61MOL    C4340963   1.838   2.813   6.567  0.7713 -0.8878  0.0959
   61MOL    C4440964   1.731   2.904   6.501  0.6385 -0.4905 -0.4202
   61MOL    C4540965   1.619   2.822   6.438 -0.2104 -0.0993 -0.2856
   61MOL    C4640966   1.524   2.909   6.351 -0.5511 -0.2203 -0.4340
   61MOL    C4740967   1.411   2.993   6.428 -0.0909 -0.2290  0.2375
   61MOL    O4840968   1.419   3.002   6.549  0.2634 -0.5335 -0.7076
   61MOL    H4940969   1.819   3.528   6.828  0.1378  0.1420 -1.7397
   61MOL    H5040970   2.119   3.462   6.828  0.4575  0.9437 -0.0638
   61MOL    H5140971   2.026   3.425   6.961 -2.1269  0.9450  0.7606
   61MOL    H5240972   2.004   3.348   6.661 -0.4888 -1.6424  0.3930
   61MOL    H5340973   1.887   3.294   6.776 -0.1830 -1.6572  0.5426
   61MOL    H5440974   2.184   3.248   6.806 -0.3675 -0.6693 -1.9652
   61MOL    H5540975   2.046   3.157   6.886  0.3904  1.3091  1.6243
   61MOL    H5640976   2.150   3.005   6.731 -1.4105 -0.5858  1.0867
   61MOL    H5740977   2.116   3.120   6.602 -0.7207 -1.4081 -0.6573
   61MOL    H5840978   1.882   3.089   6.635  0.8903 -0.5321 -1.4916
   61MOL    H5940979   1.903   2.979   6.771 -1.4609 -0.8186  0.6654
   61MOL    H6040980   2.006   2.924   6.482 -0.0459  1.1957  0.6335
   61MOL    H6140981   2.040   2.827   6.619 -0.8964 -0.2343  2.1221
   61MOL    H6240982   1.799   2.757   6.653  0.4097 -2.7679 -1.2607
   61MOL    H6340983   1.881   2.737   6.501 -0.4343 -1.5830  0.0838
   61MOL    H6440984   1.698   2.982   6.570  1.5789 -0.1867 -0.3097
   61MOL    H6540985   1.781   2.959   6.422 -2.5855  0.0305 -2.1813
   61MOL    H6640986   1.572   2.759   6.513  0.3748 -0.9531 -0.6256
   61MOL    H6740987   1.670   2.751   6.374 -0.1577 -0.8041  0.5322
   61MOL    H6840988   1.475   2.842   6.281  1.3742  1.4181 -3.4740
   61MOL    H6940989   1.575   2.976   6.282  0.7803  0.8016  1.4982
   61MOL    N7040990   1.329   3.066   6.355  0.4910 -0.4138 -0.1415
   61MOL    C7140991   1.224   3.162   6.403 -0.6554 -0.2342  0.1563
   61MOL    C7240992   1.090   3.165   6.326 -0.5545 -0.0714  0.6078
   61MOL    C7340993   1.107   3.155   6.176  0.2564  0.2556  0.1373
   61MOL    C7440994   0.980   3.194   6.097 -0.9091  0.0471 -0.3582
   61MOL    C7540995   0.855   3.097   6.108  0.8416  0.2822  1.1610
   61MOL    C7640996   0.781   3.090   6.241 -0.6197  0.0875  0.1697
   61MOL    C7740997   0.738   3.217   6.327 -0.6774 -0.9257 -0.2454
   61MOL    C7840998   0.685   3.327   6.234 -0.2410  0.6335 -0.5970
   61MOL    C7940999   0.546   3.298   6.176  0.1323 -0.2959 -0.1728
   61MOL    C8041000   0.497   3.393   6.062  0.2458 -0.6675 -0.0641
   61MOL    C8141001   0.344   3.389   6.052  0.1349  0.1594 -0.6235
   61MOL    O8241002   0.286   3.285   6.044 -0.0215  0.3617 -0.0810
   61MOL    H8341003   1.337   3.053   6.256  1.1224  0.4768 -0.2133
   61MOL    H8441004   1.211   3.156   6.511 -1.6469 -0.2945  0.0378
   61MOL    H8541005   1.275   3.256   6.383 -0.4424 -0.5871 -1.0025
   61MOL    H8641006   1.042   3.261   6.346  1.2954  1.5174 -2.2461
   61MOL    H8741007   1.033   3.078   6.358 -2.4499  0.9491  0.0632
   61MOL    H8841008   1.197   3.198   6.131  0.3783  0.1538  0.2840
   61MOL    H8941009   1.120   3.050   6.149  2.7384  0.4863  0.3381
   61MOL    H9041010   1.004   3.206   5.992 -0.3036  0.8855 -0.1356
   61MOL    H9141011   0.957   3.295   6.131  0.4517  0.6279 -1.0814
   61MOL    H9241012   0.873   2.994   6.076  1.4930  0.5287  0.7207
   61MOL    H9341013   0.776   3.142   6.049  0.3431 -1.8900  0.1368
   61MOL    H9441014   0.684   3.047   6.215 -0.1729 -0.0470 -1.2850
   61MOL    H9541015   0.828   3.016   6.305  0.1322  1.1446  0.8407
   61MOL    H9641016   0.821   3.257   6.385  0.6758 -1.2877 -1.8875
   61MOL    H9741017   0.660   3.202   6.401 -2.0234  2.7584 -0.8191
   61MOL    H9841018   0.685   3.421   6.290  0.7172  1.5146 -2.0416
   61MOL    H9941019   0.746   3.357   6.149 -0.5861  2.9902 -0.0322
   61MOL   H10041020   0.480   3.288   6.263  1.0400 -0.8658  0.4637
   61MOL   H10141021   0.533   3.196   6.139  0.6401 -0.4248 -0.0029
   61MOL   H10241022   0.550   3.374   5.969  2.7058  0.1309  1.1445
   61MOL   H10341023   0.539   3.490   6.088  1.4134 -0.9274 -0.9150
   61MOL   N10441024   0.281   3.507   6.044 -0.1910 -0.0545 -0.1086
   61MOL   C10541025   0.140   3.530   6.033 -0.6451 -0.1437 -0.4679
   61MOL   C10641026   0.071   3.547   6.177 -0.0427  0.2172 -0.1253
   61MOL   C10741027   7.638   3.574   6.185  0.6381  0.3458  0.3043
   61MOL   C10841028   7.605   3.719   6.175 -0.0713 -0.1312 -0.8609
   61MOL   C10941029   7.451   3.758   6.158  0.7901  0.9765  0.2971
   61MOL   C11041030   7.430   3.904   6.148  0.9356 -0.3175 -0.3260
   61MOL   C11141031   7.279   3.947   6.163  0.3989 -0.1404 -0.2165
   61MOL   C11241032   7.182   3.886   6.063 -0.2194 -0.1978  0.2196
   61MOL   C11341033   7.033   3.881   6.107 -0.2057  0.1925  0.2997
   61MOL   C11441034   6.946   3.822   5.994  1.2805  0.2255  0.2851
   61MOL   C11541035   6.915   3.935   5.885  0.1664  0.3910 -0.7493
   61MOL   O11641036   6.965   4.047   5.894  0.4493  0.5735 -0.0810
   61MOL   H11741037   0.333   3.592   6.062 -1.7552  0.7680  0.6583
   61MOL   H11841038   0.142   3.611   5.960  0.8841  0.3081  0.0480
   61MOL   H11941039   0.098   3.446   5.979  0.0952 -1.1077  0.4461
   61MOL   H12041040   0.118   3.628   6.233  0.2845 -0.0782  0.0278
   61MOL   H12141041   0.080   3.455   6.234  1.8732  1.5463  1.7841
   61MOL   H12241042   7.581   3.505   6.123  0.6052  0.3458  0.3349
   61MOL   H12341043   7.604   3.546   6.285 -0.2204 -0.9172 -0.3289
   61MOL   H12441044   7.671   3.761   6.100  1.4921 -0.4029  0.3440
   61MOL   H12541045   7.636   3.762   6.270 -2.6461  0.6076 -0.2982
   61MOL   H12641046   7.394   3.724   6.245 -0.4996 -0.6043 -1.1372
   61MOL   H12741047   7.405   3.704   6.075 -0.1482  0.4766  1.1261
   61MOL   H12841048   7.484   3.960   6.224  0.6498  0.7019 -0.8605
   61MOL   H12941049   7.453   3.945   6.049  0.6104 -0.3802 -0.4307
   61MOL   H13041050   7.266   4.055   6.161 -1.4228 -0.3277  0.0096
   61MOL   H13141051   7.247   3.907   6.259  0.4631 -1.4892 -0.7421
   61MOL   H13241052   7.201   3.949   5.976  3.1299 -0.9521  0.3374
   61MOL   H13341053   7.218   3.787   6.035  1.3341  0.8183 -1.4814
   61MOL   H13441054   6.999   3.979   6.142  1.1102  0.5709  0.5348
   61MOL   H13541055   7.025   3.815   6.193 -0.6229 -0.2739 -0.0944
   61MOL   H13641056   6.852   3.793   6.042  0.3054  1.0674 -1.0460
   61MOL   H13741057   6.990   3.738   5.941 -1.1516 -1.2123  0.4822
   61MOL   N13841058   6.833   3.900   5.794  0.1171 -0.0411  0.3794
   61MOL   C13941059   6.756   3.972   5.693  0.3607 -0.5371 -0.1884
   61MOL   C14041060   6.818   4.001   5.558 -0.1909  0.3807  0.0985
   61MOL   C14141061   6.713   4.066   5.458 -0.0636  0.5580 -0.8001
   61MOL   C14241062   6.775   4.101   5.326  0.4127 -0.3799 -1.0910
   61MOL   C14341063   6.691   4.189   5.227 -0.1194  0.2598 -0.5016
   61MOL   C14441064   6.778   4.245   5.114 -0.2104 -0.4696 -0.4268
   61MOL   C14541065   6.784   4.141   5.001 -0.3672  0.1513  0.5150
   61MOL   C14641066   6.891   4.178   4.896  0.8289 -0.0243 -0.2724
   61MOL   C14741067   7.034   4.122   4.902  0.4470  0.1954  0.0800
   61MOL   C14841068   7.121   4.195   4.994 -0.3723  0.3963 -0.2741
   61MOL   C14941069   7.181   4.325   4.948  0.4836  0.3717  0.1694
   61MOL   O15041070   7.108   4.422   4.927 -0.7693 -0.0643 -0.0224
   61MOL   H15141071   6.813   3.801   5.797  0.9090 -0.3135 -2.0467
   61MOL   H15241072   6.658   3.924   5.686  0.3073 -0.5505  0.5703
   61MOL   H15341073   6.732   4.073   5.728 -0.3229 -0.8231  0.1690
   61MOL   H15441074   6.840   3.906   5.509 -1.0432 -0.3644  1.1146
   61MOL   H15541075   6.914   4.051   5.562 -0.1307  0.5651 -3.0948
   61MOL   H15641076   6.623   4.005   5.446  0.7755 -1.5703  2.7736
   61MOL   H15741077   6.672   4.157   5.503 -1.5963  1.0245 -3.0721
   61MOL   H15841078   6.806   4.009   5.276  0.4675 -1.8666  1.5890
   61MOL   H15941079   6.861   4.163   5.351 -0.1350 -0.2067  0.3726
   61MOL   H16041080   6.638   4.270   5.277  0.9222 -0.3077  1.6047
   61MOL   H16141081   6.615   4.118   5.192 -1.0260  0.5317  0.8559
   61MOL   H16241082   6.745   4.346   5.087 -0.0091 -0.1058  0.6744
   61MOL   H16341083   6.882   4.260   5.140 -0.5572 -1.8242  1.9058
   61MOL   H16441084   6.689   4.118   4.952  0.2690 -1.0659 -0.1654
   61MOL   H16541085   6.807   4.047   5.050 -0.4718 -0.5088 -0.6754
   61MOL   H16641086   6.850   4.141   4.802 -2.0620 -0.6271  1.1666
   61MOL   H16741087   6.902   4.286   4.886 -0.9665  0.3727  1.6340
   61MOL   H16841088   7.081   4.112   4.804 -1.3501  2.2846 -1.0260
   61MOL   H16941089   7.020   4.021   4.941  0.2672 -0.8087 -2.4411
   61MOL   H17041090   7.214   4.139   5.009  0.1298  0.7788 -1.8476
   61MOL   H17141091   7.076   4.205   5.092  0.9812 -0.8842  0.5068
   61MOL   N17241092   7.316   4.333   4.946  0.3454  0.2714  0.5219
   61MOL   C17341093   7.390   4.453   4.898  0.4127 -0.9454 -0.3037
   61MOL   C17441094   7.415   4.560   5.011  0.2363 -0.0323  0.0738
   61MOL   C17541095   7.428   4.702   4.954 -0.7182 -0.7490 -0.5446
   61MOL   C17641096   7.300   4.748   4.884 -0.1962  0.4380 -0.0392
   61MOL   C17741097   7.291   4.899   4.864  0.2877 -0.3117 -0.3754
   61MOL   C17841098   7.159   4.947   4.790 -0.4767 -0.8977  0.1472
   61MOL   C17941099   7.133   5.099   4.812 -0.1242  0.5905 -0.5721
   61MOL   C18041100   6.980   5.109   4.847  0.0301  0.5789  0.4400
   61MOL   C18141101   6.875   5.090   4.726 -0.2667 -0.3355  0.1636
   61MOL   C18241102   6.726   5.086   4.779 -0.8108  0.1259  0.4583
   61MOL   C18341103   6.627   5.083   4.667 -0.6168  0.1567  0.2323
   61MOL   O18441104   6.600   5.183   4.601 -0.2619 -0.1147 -0.1560
   61MOL   H18541105   7.371   4.255   4.978  2.3458  0.2629 -2.6874
   61MOL   H18641106   7.491   4.430   4.865  1.0769 -0.8635  1.5714
   61MOL   H18741107   7.350   4.505   4.811 -0.6832  0.3441  0.9350
   61MOL   H18841108   7.508   4.539   5.063 -0.9915 -0.0921  2.2989
   61MOL   H18941109   7.329   4.560   5.078  0.2242 -1.4752  0.0672
   61MOL   H19041110   7.440   4.762   5.044  0.8216  1.3317 -2.0753
   61MOL   H19141111   7.520   4.711   4.895  0.1972  2.0726  1.2175
   61MOL   H19241112   7.218   4.707   4.942  1.0679 -2.4225 -0.1999
   61MOL   H19341113   7.284   4.711   4.783  0.2402  0.7268 -0.2147
   61MOL   H19441114   7.373   4.927   4.797  0.6526  0.8977  0.5727
   61MOL   H19541115   7.309   4.947   4.959 -2.8246 -1.4037  0.8204
   61MOL   H19641116   7.166   4.935   4.682  1.0915 -0.1659  0.1462
   61MOL   H19741117   7.079   4.879   4.818 -1.3751 -0.1965 -0.6892
   61MOL   H19841118   7.167   5.150   4.723 -1.9428 -0.4771 -1.9057
   61MOL   H19941119   7.189   5.126   4.902  1.1542  0.0259 -1.1758
   61MOL   H20041120   6.967   5.046   4.935  0.5898  1.1384  0.9274
   61MOL   H20141121   6.971   5.211   4.884  0.4494  0.0972  1.9011
   61MOL   H20241122   6.897   4.998   4.671  0.5114  0.5170 -0.9771
   61MOL   H20341123   6.905   5.167   4.656  1.6354 -0.2401  1.0445
   61MOL   H20441124   6.692   5.168   4.842  0.5141  1.3680 -0.4222
   61MOL   H20541125   6.711   5.000   4.845 -1.6098  0.1651  0.3345
   61MOL   N20641126   6.566   4.968   4.646  0.0491  0.5969  0.3352
   61MOL   C20741127   6.452   4.938   4.548 -0.0883 -1.0927 -0.3752
   61MOL   C20841128   6.489   4.963   4.404 -0.4853  0.2580  0.2643
   61MOL   C20941129   6.590   4.864   4.337 -0.0078 -0.1483 -0.7643
   61MOL   C21041130   6.591   4.885   4.188 -0.4709  0.7175 -1.0507
   61MOL   C21141131   6.690   4.804   4.119  0.5651 -1.0558 -0.3646
   61MOL   C21241132   6.689   4.652   4.145 -0.6081  0.0138  0.3555
   61MOL   C21341133   6.784   4.603   4.250 -0.1762 -0.0589  0.2216
   61MOL   C21441134   6.793   4.452   4.276 -0.3153  0.0213 -0.0456
   61MOL   C21541135   6.658   4.397   4.329  0.1463  0.2021  0.6124
   61MOL   C21641136   6.662   4.241   4.340 -0.7967 -0.2158 -0.4835
   61MOL   C21741137   6.734   4.197   4.463 -0.4301  0.2919  0.0881
   61MOL   O21841138   6.747   4.263   4.561  0.3759 -0.0419 -0.3508
   61MOL   H21941139   6.600   4.892   4.704  0.7637  1.0834  0.5582
   61MOL   H22041140   6.359   4.990   4.570  0.2640 -1.2065  1.4760
   61MOL   H22141141   6.430   4.831   4.558  0.9757 -1.2205  0.7539
   61MOL   H22241142   6.530   5.064   4.399 -2.9698  1.4509  3.0168
   61MOL   H22341143   6.393   4.973   4.352 -0.0582  1.9782 -0.2274
   61MOL   H22441144   6.692   4.873   4.373 -0.2046 -1.0271  0.0384
   61MOL   H22541145   6.561   4.763   4.364 -2.2758  1.1003  1.7292
   61MOL   H22641146   6.603   4.990   4.163 -0.8382  0.6765 -1.4082
   61MOL   H22741147   6.491   4.857   4.154 -0.3241 -1.8109  0.4024
   61MOL   H22841148   6.794   4.832   4.133 -0.0797  0.3923  1.8518
   61MOL   H22941149   6.662   4.816   4.014 -0.8129  1.7915  0.2583
   61MOL   H23041150   6.589   4.615   4.170  0.1180 -1.9216  0.4186
   61MOL   H23141151   6.725   4.614   4.049 -0.2055  0.5936  0.2749
   61MOL   H23241152   6.757   4.638   4.349  1.5516  0.4408  0.5436
   61MOL   H23341153   6.883   4.642   4.224 -0.5786 -0.9602 -2.8615
   61MOL   H23441154   6.818   4.398   4.184 -1.3291  0.4714 -0.5992
   61MOL   H23541155   6.869   4.438   4.352  0.6245  1.1630 -0.7598
   61MOL   H23641156   6.576   4.418   4.261  1.6817  2.8989 -0.4939
   61MOL   H23741157   6.637   4.445   4.425 -1.1964 -2.7044  1.8418
   61MOL   H23841158   6.715   4.209   4.250 -0.5752  0.9414 -0.7815
   61MOL   H23941159   6.564   4.192   4.337  0.1087 -1.9608 -3.9328
   61MOL   N24041160   6.780   4.074   4.456  0.0176  0.1870 -0.2811
   61MOL   C24141161   6.866   4.017   4.558  0.0128  0.5275  0.0908
   61MOL   C24241162   6.952   3.902   4.500 -0.2482  0.1799 -0.4652
   61MOL   C24341163   7.057   3.850   4.605 -0.5159  0.1708  0.1330
   61MOL   C24441164   7.120   3.720   4.561 -0.3653  0.1477 -0.4158
   61MOL   C24541165   7.247   3.692   4.644  0.1542 -0.5129 -0.3368
   61MOL   C24641166   7.327   3.577   4.579 -0.3095  0.7420 -0.5053
   61MOL   C24741167   7.444   3.529   4.657 -0.0615  0.1252 -0.3375
   61MOL   C24841168   7.421   3.384   4.688 -0.1639 -0.0378 -0.3583
   61MOL   C24941169   7.418   3.286   4.568  0.6793  0.9084 -0.6125
   61MOL   C25041170   7.409   3.133   4.598  0.2568 -0.1826  0.4874
   61MOL   C25141171   7.454   3.035   4.485  0.4388 -0.3390  0.5711
   61MOL   O25241172   7.487   3.076   4.374  1.0381 -0.2682  0.0690
   61MOL   H25341173   6.782   4.038   4.361  0.5795 -0.8996  0.1289
   61MOL   H25441174   6.791   3.970   4.621 -0.6280 -0.3150 -1.2678
   61MOL   H25541175   6.925   4.084   4.620  1.2324 -0.1705 -0.2936
   61MOL   H25641176   7.010   3.940   4.416  0.2728  1.6000  0.5253
   61MOL   H25741177   6.878   3.835   4.455 -1.2346  0.8834  0.0892
   61MOL   H25841178   7.120   3.935   4.628  0.3047 -0.0649 -1.1640
   61MOL   H25941179   7.002   3.825   4.696 -3.3433  0.2020 -1.4940
   61MOL   H26041180   7.149   3.743   4.459  0.3455  1.0083 -0.0239
   61MOL   H26141181   7.050   3.637   4.573  0.6813 -0.5252  1.0997
   61MOL   H26241182   7.231   3.661   4.747  0.7453 -2.5101 -0.8105
   61MOL   H26341183   7.302   3.785   4.653  0.2235 -0.4263 -1.4905
   61MOL   H26441184   7.250   3.500   4.565 -0.2657  0.2298  1.9594
   61MOL   H26541185   7.361   3.617   4.483 -1.1817 -0.4628 -1.3363
   61MOL   H26641186   7.457   3.599   4.740 -1.3957 -0.0750  0.0583
   61MOL   H26741187   7.538   3.543   4.603  1.5028 -0.4873  2.1336
   61MOL   H26841188   7.497   3.357   4.761 -1.3433 -0.7295  0.6298
   61MOL   H26941189   7.326   3.379   4.740  0.4297  0.5909  0.8056
   61MOL   H27041190   7.501   3.306   4.501  0.5434  0.7155 -0.8403
   61MOL   H27141191   7.337   3.315   4.501  0.7778  0.3106 -0.9996
   61MOL   H27241192   7.311   3.106   4.639 -0.6225  2.6164  0.3278
   61MOL   H27341193   7.485   3.111   4.673 -0.0737 -1.8916  0.3546
   61MOL   N27441194   7.469   2.913   4.529  0.3239 -0.0270 -0.2778
   61MOL   C27541195   7.474   2.797   4.449  0.3874  1.2373 -0.3174
   61MOL   C27641196   7.620   2.750   4.417  0.1431  0.0840 -0.1672
   61MOL   C27741197   7.618   2.634   4.310 -0.2294  0.3660 -0.8502
   61MOL   C27841198   7.621   2.700   4.176  0.1201 -0.1824  0.2884
   61MOL   C27941199   7.616   2.609   4.051  0.2450 -0.4932  0.0978
   61MOL   C28041200   0.036   2.547   4.016  0.5772 -1.1106 -0.3006
   61MOL   C28141201   0.044   2.492   3.877  0.1498 -0.6207 -0.0043
   61MOL   C28241202   0.126   2.364   3.871  0.1729  0.3008  0.3265
   61MOL   C28341203   0.111   2.291   3.737  0.1098 -0.2922 -0.8298
   61MOL   C28441204   0.231   2.197   3.702  0.3115 -0.5772  0.1011
   61MOL   C28541205   0.221   2.066   3.769  0.4933  0.7695 -0.3614
   61MOL   O28641206   0.143   2.044   3.862 -0.1952 -0.5953 -0.3523
   61MOL   H28741207   7.451   2.894   4.627  0.5302 -1.1756 -0.4508
   61MOL   H28841208   7.426   2.819   4.353 -0.7372  1.0365  0.1931
   61MOL   H28941209   7.422   2.722   4.507 -0.1873  0.3630 -1.9411
   61MOL   H29041210   7.677   2.712   4.502 -0.5723 -2.6417 -0.8554
   61MOL   H29141211   7.681   2.837   4.394 -0.5139  0.0156 -2.2860
   61MOL   H29241212   7.692   2.554   4.319 -0.7988 -0.1412 -0.6579
   61MOL   H29341213   7.523   2.586   4.334 -0.9957  2.2311 -0.1138
   61MOL   H29441214   7.704   2.770   4.171  0.6054 -0.6111  1.9745
   61MOL   H29541215   7.531   2.760   4.182  1.0087  1.1320  0.6579
   61MOL   H29641216   7.593   2.656   3.955 -0.1294 -0.5608  0.1548
   61MOL   H29741217   7.546   2.527   4.063  2.0642 -2.3587 -1.5708
   61MOL   H29841218   0.106   2.628   4.034 -3.1048  1.8231  1.3202
   61MOL   H29941219   0.072   2.473   4.088  1.0796 -1.1159 -0.5586
   61MOL   H30041220   0.093   2.556   3.804 -0.2302  0.2330  0.4818
   61MOL   H30141221   7.659   2.466   3.848 -0.5075  2.6070 -0.7509
   61MOL   H30241222   0.230   2.382   3.898  0.3892  0.2200 -0.4388
   61MOL   H30341223   0.098   2.301   3.956 -0.6919  0.9156  0.5052
   61MOL   H30441224   0.101   2.364   3.657 -0.6124 -1.6517 -2.0005
   61MOL   H30541225   0.015   2.239   3.734 -0.0489 -0.0987  0.4178
   61MOL   H30641226   0.325   2.252   3.699  1.5957 -2.6158  1.4334
   61MOL   H30741227   0.230   2.174   3.596  0.0472  1.1998 -0.3066
   61MOL   N30841228   0.294   1.966   3.720  0.0738  0.3299 -0.1348
   61MOL   C30941229   0.317   1.833   3.766  0.3278  0.1321 -0.0222
   61MOL   C31041230   0.454   1.828   3.833 -0.5866  0.9096  0.3050
   61MOL   C31141231   0.477   1.921   3.952  0.1722  0.0040  0.0256
   61MOL   C31241232   0.626   1.916   3.995  0.1322 -0.1126 -0.2467
   61MOL   C31341233   0.651   1.988   4.128  0.0747 -0.1969 -0.1226
   61MOL   C31441234   0.799   1.997   4.172 -0.0424  0.2771  0.0695
   61MOL   C31541235   0.823   2.061   4.310  0.4792  0.2719  0.5071
   61MOL   C31641236   0.771   2.195   4.333  0.7966  0.1518  0.5227
   61MOL   C31741237   0.792   2.254   4.474 -0.3317  0.4946 -0.2075
   61MOL   C31841238   0.740   2.393   4.498 -0.3800 -0.0146 -0.0871
   61MOL   C31941239   0.778   2.441   4.640  0.0425 -0.4496  0.1935
   61MOL   O32041240   0.890   2.443   4.686  0.0327  0.2779 -0.0808
   61MOL   H32141241   0.340   1.983   3.632  1.2906  1.8014  0.7691
   61MOL   H32241242   0.311   1.760   3.685  0.2091  3.1459 -2.8680
   61MOL   H32341243   0.229   1.806   3.825 -0.6725  2.1275 -0.5472
   61MOL   H32441244   0.532   1.833   3.758 -0.8779  0.8360 -0.0032
   61MOL   H32541245   0.478   1.726   3.863  1.9427  0.5658 -2.6813
   61MOL   H32641246   0.437   2.019   3.928  0.4777  0.6391  2.0194
   61MOL   H32741247   0.420   1.885   4.038  2.4811 -0.3696  1.4584
   61MOL   H32841248   0.683   1.961   3.914  1.1440 -1.4966 -0.3285
   61MOL   H32941249   0.664   1.814   4.009  1.5050  0.3209 -0.7138
   61MOL   H33041250   0.594   1.919   4.189  1.7964 -3.1648 -1.7577
   61MOL   H33141251   0.604   2.086   4.114  0.1611 -0.1441 -0.0468
   61MOL   H33241252   0.834   1.893   4.174 -0.0994  0.2377 -0.6603
   61MOL   H33341253   0.857   2.044   4.092  2.5880  0.4123  1.9829
   61MOL   H33441254   0.929   2.073   4.332  0.4799  0.7148  0.2614
   61MOL   H33541255   0.788   1.988   4.383 -1.3603 -0.3431 -0.9506
   61MOL   H33641256   0.813   2.258   4.255 -1.4374 -0.0656 -0.8761
   61MOL   H33741257   0.665   2.200   4.308  0.4265 -0.2206  1.9602
   61MOL   H33841258   0.898   2.256   4.497 -0.4049  1.4130  0.0541
   61MOL   H33941259   0.744   2.194   4.552 -0.3576 -1.1666 -1.4603
   61MOL   H34041260   0.635   2.402   4.471 -0.9656  0.3642  2.1902
   61MOL   H34141261   0.797   2.453   4.428 -3.3612  1.1511 -1.5522
   61MOL   N34241262   0.671   2.489   4.712  0.8273 -0.0390  0.1889
   61MOL   C34341263   0.686   2.540   4.848 -0.1893  0.1061  0.2354
   61MOL   C34441264   0.728   2.688   4.851  0.1317 -0.1522  0.2850
   61MOL   C34541265   0.658   2.782   4.753  0.0500  0.0341  0.6229
   61MOL   C34641266   0.713   2.924   4.763  0.3969  0.4497 -0.3518
   61MOL   C34741267   0.635   3.020   4.674 -0.1550  0.3195  0.3449
   61MOL   C34841268   0.724   3.141   4.631  0.5557 -0.1070  0.5232
   61MOL   C34941269   0.641   3.263   4.602 -0.9623  0.7170 -0.2700
   61MOL   C35041270   0.565   3.252   4.468  1.1718 -0.1984  0.2594
   61MOL   C35141271   0.505   3.379   4.412 -0.1491 -0.0143 -0.2051
   61MOL   C35241272   0.419   3.356   4.285 -0.5820 -0.0769  0.1259
   61MOL   C35341273   0.510   3.299   4.171  0.5134 -0.0112 -0.8764
   61MOL   O35441274   0.623   3.339   4.158  0.2472 -0.1916 -0.4323
   61MOL   H35541275   0.584   2.506   4.664  1.1659 -2.0741 -1.2286
   61MOL   H35641276   0.581   2.537   4.875 -0.5274 -1.7389 -1.1624
   61MOL   H35741277   0.749   2.470   4.902 -0.5512  0.9302  1.7471
   61MOL   H35841278   0.835   2.693   4.826  0.4826 -1.1993  1.5618
   61MOL   H35941279   0.730   2.725   4.954  2.3517  1.6815 -0.3498
   61MOL   H36041280   0.652   2.742   4.652 -2.9511  0.2642  0.6480
   61MOL   H36141281   0.556   2.775   4.791  0.0810  1.2352  0.9355
   61MOL   H36241282   0.821   2.917   4.752  0.7853  0.7391  2.9505
   61MOL   H36341283   0.703   2.967   4.862 -1.8134 -0.1691 -0.2810
   61MOL   H36441284   0.563   3.047   4.751  2.0530 -0.8694  2.9444
   61MOL   H36541285   0.591   2.973   4.586 -0.3102  0.0705  0.5534
   61MOL   H36641286   0.797   3.148   4.712  0.2902 -2.7338  1.0603
   61MOL   H36741287   0.784   3.104   4.547  2.0112  1.8913  0.6471
   61MOL   H36841288   0.711   3.347   4.606  2.9217 -2.4486  0.8445
   61MOL   H36941289   0.582   3.289   4.689  1.4716 -0.3967  1.7919
   61MOL   H37041290   0.634   3.206   4.397  1.5789  0.3626  0.2930
   61MOL   H37141291   0.490   3.174   4.478  0.4886  0.4087 -0.1400
   61MOL   H37241292   0.586   3.448   4.388 -0.2777  0.7945  1.6207
   61MOL   H37341293   0.446   3.426   4.491  0.0350 -2.1542  1.2517
   61MOL   H37441294   0.370   3.446   4.247 -1.1421 -0.1661  0.6174
   61MOL   H37541295   0.343   3.278   4.297 -0.1477 -0.2177  2.1410
   61MOL   N37641296   0.466   3.192   4.102 -0.3513 -0.3374  1.0113
   61MOL   C37741297   0.529   3.076   4.031  0.4704  0.7823 -0.1891
   61MOL   C37841298   0.431   2.991   3.951 -0.1645 -0.3706  0.4761
   61MOL   C37941299   0.497   2.876   3.875  0.0955 -0.1706  0.2969
   61MOL   C38041300   0.408   2.773   3.806  0.4101  0.4022  0.3081
   61MOL   C38141301   0.480   2.684   3.711 -0.4513  0.4125 -0.2646
   61MOL   C38241302   0.385   2.597   3.630 -0.6690  0.8633 -0.2754
   61MOL   C38341303   0.444   2.542   3.504 -0.5266 -0.0236  0.3953
   61MOL   C38441304   0.339   2.452   3.425 -0.4425 -0.6861  0.3441
   61MOL   C38541305   0.392   2.403   3.286  0.1139 -0.4200 -0.7824
   61MOL   C38641306   0.440   2.262   3.280 -0.1069 -0.0478  0.2587
   61MOL   C38741307   0.566   2.223   3.357 -0.0409  0.1129 -0.3912
   61MOL   O38841308   0.665   2.298   3.345  0.2487  0.0122  0.1133
   61MOL   H38941309   0.367   3.173   4.111 -0.8690  0.1408 -2.6201
   61MOL   H39041310   0.610   3.113   3.968  1.2452 -0.2643  0.1615
   61MOL   H39141311   0.580   3.007   4.098 -1.9667  2.4725  3.5372
   61MOL   H39241312   0.379   3.061   3.886 -0.2216 -1.1570 -0.3326
   61MOL   H39341313   0.351   2.957   4.016 -1.2433  0.9708 -0.1217
   61MOL   H39441314   0.570   2.924   3.809  0.1418  1.4873  1.5231
   61MOL   H39541315   0.561   2.821   3.944  1.4860 -0.6786 -1.3384
   61MOL   H39641316   0.334   2.822   3.744 -0.8251 -0.9554  0.6831
   61MOL   H39741317   0.351   2.713   3.877  0.0260  0.3498 -0.0415
   61MOL   H39841318   0.552   2.625   3.768  0.2723 -0.8199 -2.3989
   61MOL   H39941319   0.533   2.753   3.645  0.6257 -0.4048 -0.2800
   61MOL   H40041320   0.347   2.508   3.680  1.9516 -1.3984 -2.0994
   61MOL   H40141321   0.302   2.664   3.609  1.0580  3.3893  0.7565
   61MOL   H40241322   0.536   2.489   3.528 -1.5966 -0.7543  2.9987
   61MOL   H40341323   0.481   2.625   3.443 -0.9481  0.9789  1.4768
   61MOL   H40441324   0.303   2.370   3.487  0.8793 -2.7278 -1.4985
   61MOL   H40541325   0.254   2.515   3.400 -0.5189 -0.4204  1.2653
   61MOL   H40641326   0.485   2.457   3.271  1.3309 -1.8234  1.5256
   61MOL   H40741327   0.319   2.419   3.207 -0.5076 -2.3562 -0.6305
   61MOL   H40841328   0.460   2.246   3.174  0.1052 -1.4521  0.4995
   61MOL   H40941329   0.358   2.191   3.293 -2.8580  2.7358 -1.0058
   61MOL   N41041330   0.566   2.103   3.418  0.1999 -0.0948  0.0627
   61MOL   C41141331   0.674   2.036   3.484 -0.0620 -0.3581 -0.7790
   61MOL   C41241332   0.728   2.117   3.611 -0.1622 -0.2638  0.1349
   61MOL   C41341333   0.616   2.169   3.697  0.1147  0.2892 -0.0686
   61MOL   C41441334   0.665   2.247   3.824 -0.8652 -0.2057 -0.0960
   61MOL   C41541335   0.552   2.309   3.907  0.0030  0.2113 -0.0351
   61MOL   C41641336   0.598   2.415   4.006 -0.7485  0.4095  0.2135
   61MOL   C41741337   0.486   2.485   4.087  0.2185 -0.3111 -0.2377
   61MOL   C41841338   0.528   2.586   4.191 -0.8071  0.1963 -0.3191
   61MOL   C41941339   0.408   2.648   4.265 -0.2350  0.2505 -0.1909
   61MOL   C42041340   0.317   2.557   4.343  0.1466 -0.0827  0.4250
   61MOL   C42141341   0.355   2.545   4.484 -0.4516 -0.1751  0.5125
   61MOL   O42241342   0.461   2.589   4.536 -0.3640  0.6614 -0.1305
   61MOL   H42341343   0.477   2.056   3.416 -0.6797  1.5361  0.9475
   61MOL   H42441344   0.623   1.948   3.522 -0.8353  0.2576 -0.3718
   61MOL   H42541345   0.760   1.996   3.432 -0.1600 -0.8759 -0.5517
   61MOL   H42641346   0.779   2.205   3.573 -0.7811 -0.2059 -0.5631
   61MOL   H42741347   0.806   2.065   3.667  1.1226  0.7905 -0.6693
   61MOL   H42841348   0.555   2.240   3.641 -0.9281  0.8561  1.7658
   61MOL   H42941349   0.554   2.085   3.728 -1.0665  0.4082 -2.0140
   61MOL   H43041350   0.744   2.314   3.793 -1.3728  1.5057  2.1606
   61MOL   H43141351   0.714   2.170   3.884  1.5524  0.0970 -1.6401
   61MOL   H43241352   0.491   2.224   3.936  0.1674 -0.5600 -1.8559
   61MOL   H43341353   0.492   2.369   3.839 -0.3460 -0.4349 -0.3014
   61MOL   H43441354   0.671   2.379   4.078 -0.8644 -1.4074 -0.5464
   61MOL   H43541355   0.645   2.498   3.955  1.1082 -1.8663 -1.9251
   61MOL   H43641356   0.423   2.406   4.128 -0.6610 -0.4199 -1.7659
   61MOL   H43741357   0.414   2.525   4.016 -0.0212  0.7945  0.6119
   61MOL   H43841358   0.594   2.531   4.259 -2.4136 -0.1341  0.9929
   61MOL   H43941359   0.589   2.663   4.143  1.3114 -0.4391  1.2325
   61MOL   H44041360   0.351   2.695   4.186  1.0459  3.2260  0.6004
   61MOL   H44141361   0.447   2.732   4.322 -0.3394 -0.2221  0.5742
   61MOL   H44241362   0.300   2.459   4.298 -0.6873  0.7919 -1.2481
   61MOL   H44341363   0.220   2.605   4.335  0.4969  0.5363 -0.1994
   61MOL   N44441364   0.275   2.471   4.559  0.5327  0.2432 -1.0082
   61MOL   C44541365   0.288   2.436   4.701  0.7010 -0.7861  0.5172
   61MOL   C44641366   0.335   2.291   4.721  0.4543 -0.0989 -0.1646
   61MOL   C44741367   0.344   2.264   4.880 -0.2286  0.0953 -0.1581
   61MOL   C44841368   0.437   2.150   4.915 -0.8638  0.0257  0.0978
   61MOL   C44941369   0.590   2.175   4.892  1.3791  0.2057 -0.3501
   61MOL   C45041370   0.674   2.063   4.964  0.0728  0.3972 -0.0893
   61MOL   C45141371   0.823   2.091   4.959  0.0392  0.1507 -0.6086
   61MOL   C45241372   0.889   2.098   4.816  0.5300  0.1883 -0.7011
   61MOL   C45341373   1.041   2.109   4.829  0.1335  0.8614  0.1031
   61MOL   C45441374   1.120   2.095   4.694  0.8198 -0.6908 -0.1648
   61MOL   C45541375   1.138   1.950   4.638 -0.7852  0.2071  0.3545
   61MOL   O45641376   1.145   1.856   4.717  0.0606 -0.2431  0.3087
   61MOL   H45741377   0.195   2.432   4.512  1.5767 -1.9777 -1.0156
   61MOL   H45841378   0.350   2.512   4.748  2.3404 -2.3076  0.8782
   61MOL   H45941379   0.185   2.435   4.737 -0.3057  0.6845 -2.1827
   61MOL   H46041380   0.432   2.273   4.674  0.3189 -0.3276 -0.3564
   61MOL   H46141381   0.272   2.217   4.672  0.7246 -0.5172  0.1160
   61MOL   H46241382   0.374   2.348   4.942 -0.8893  0.2790 -0.0781
   61MOL   H46341383   0.243   2.242   4.914  0.1005  0.4919  1.0869
   61MOL   H46441384   0.404   2.060   4.864 -1.5817 -0.3205  1.1457
   61MOL   H46541385   0.417   2.131   5.021 -0.7262 -0.9398 -0.0429
   61MOL   H46641386   0.607   2.272   4.939 -3.0775  0.9082  0.0405
   61MOL   H46741387   0.603   2.191   4.785  2.0511 -1.0087 -0.4577
   61MOL   H46841388   0.630   2.053   5.064  1.6776  0.1350  0.6004
   61MOL   H46941389   0.652   1.970   4.912 -0.2696  0.8962 -0.8403
   61MOL   H47041390   0.872   2.014   5.020  1.8056  2.2439  0.7113
   61MOL   H47141391   0.835   2.182   5.018  3.8285 -1.0584  0.6370
   61MOL   H47241392   0.843   2.011   4.770  0.4782  1.4049 -3.0345
   61MOL   H47341393   0.857   2.187   4.762 -0.7486 -0.9319 -1.8538
   61MOL   H47441394   1.078   2.027   4.890  0.4576 -0.2242 -1.5355
   61MOL   H47541395   1.073   2.200   4.881  1.5281  1.3825 -1.6452
   61MOL   H47641396   1.220   2.125   4.724  1.2248  0.0651 -2.2279
   61MOL   H47741397   1.083   2.157   4.613 -1.1488 -1.5023  0.0818
   61MOL   N47841398   1.155   1.940   4.505 -0.1075  0.1074 -0.2069
   61MOL   C47941399   1.203   1.817   4.450 -1.2452  0.5345 -0.0262
   61MOL   C48041400   1.162   1.785   4.305 -0.2841  0.7079  0.2991
   61MOL   C48141401   1.192   1.636   4.271  0.3683 -0.5626 -0.7774
   61MOL   C48241402   1.155   1.587   4.128  0.1539 -0.5272  0.2037
   61MOL   C48341403   1.232   1.653   4.018 -0.6840  0.0756  0.1846
   61MOL   C48441404   1.377   1.601   3.996  0.2606  0.1521  0.3654
   61MOL   C48541405   1.452   1.641   3.861 -0.1430  0.2561  0.1825
   61MOL   C48641406   1.603   1.610   3.865  0.9023  0.4783  0.7467
   61MOL   C48741407   1.687   1.620   3.737 -0.3571 -0.9370  0.1893
   61MOL   C48841408   1.696   1.755   3.658  0.3010 -0.1977  0.0651
   61MOL   C48941409   1.777   1.748   3.530 -0.6949 -0.1494 -0.9233
   61MOL   O49041410   1.842   1.646   3.501  0.7268 -0.1630  0.0277
   61MOL   H49141411   1.174   2.022   4.448  0.3097  1.3471  1.6687
   61MOL   H49241412   1.312   1.814   4.449 -1.2323  0.7360  0.4419
   61MOL   H49341413   1.167   1.733   4.508  1.5879 -1.1860 -0.6770
   61MOL   H49441414   1.216   1.853   4.240  0.4817  2.0372  2.2747
   61MOL   H49541415   1.056   1.800   4.288 -1.1368  0.6062  4.7767
   61MOL   H49641416   1.301   1.637   4.278  0.2969 -1.2339  0.5921
   61MOL   H49741417   1.159   1.572   4.353 -2.4564  0.6644 -0.8959
   61MOL   H49841418   1.053   1.621   4.111  0.5798 -0.2533 -1.9368
   61MOL   H49941419   1.173   1.480   4.128  1.4891 -0.3362  1.8491
   61MOL   H50041420   1.239   1.760   4.037 -0.0891  0.2180 -0.8248
   61MOL   H50141421   1.189   1.641   3.919 -0.7855  0.1998  0.2143
   61MOL   H50241422   1.434   1.634   4.083 -1.7912 -1.6163  2.4631
   61MOL   H50341423   1.373   1.492   3.989  0.8077  0.2704 -2.0363
   61MOL   H50441424   1.444   1.745   3.828  0.4321  0.5625  1.0140
   61MOL   H50541425   1.415   1.580   3.779  1.8841 -0.9779  0.1646
   61MOL   H50641426   1.648   1.681   3.935 -0.1124  1.4405  0.4444
   61MOL   H50741427   1.591   1.506   3.894 -3.9051 -0.0033 -2.3704
   61MOL   H50841428   1.659   1.544   3.664  0.0281  0.4646 -1.4514
   61MOL   H50941429   1.791   1.602   3.761  0.1460  1.9217  0.3380
   61MOL   H51041430   1.744   1.829   3.721 -1.9152  0.6379  0.8111
   61MOL   H51141431   1.600   1.803   3.643  1.0616  2.1191  2.3431
   61MOL   N51241432   1.781   1.856   3.451 -0.4263 -0.0299 -0.0802
   61MOL   C51341433   1.855   1.879   3.325  0.3996 -0.4101 -0.9606
   61MOL   C51441434   1.787   1.992   3.250 -0.8632 -0.2208  0.4562
   61MOL   C51541435   1.856   2.024   3.117  0.3121  0.6778 -0.2491
   61MOL   C51641436   1.997   2.083   3.148  0.5759 -0.2289 -0.0203
   61MOL   C51741437   2.082   2.102   3.024 -0.6558  0.0092  0.0149
   61MOL   C51841438   2.043   2.220   2.934  0.0145  0.5233 -0.4751
   61MOL   C51941439   2.088   2.352   2.996  0.1096 -0.2188 -0.4754
   61MOL   C52041440   2.076   2.471   2.902 -0.1139 -0.0610 -0.0267
   61MOL   C52141441   2.102   2.604   2.969 -0.2044  0.4934  0.0060
   61MOL   C52241442   2.253   2.632   2.999 -0.4511 -0.8520  0.6482
   61MOL   C52341443   2.289   2.759   3.079  0.1983  0.0711  0.0542
   61MOL   O52441444   2.215   2.858   3.066 -0.0626  0.3699  0.4400
   61MOL   H52541445   1.724   1.934   3.480 -0.3082 -0.3050  0.9150
   61MOL   H52641446   1.961   1.888   3.350  0.2633  1.0381 -0.8433
   61MOL   H52741447   1.841   1.787   3.269 -0.3958 -2.3899  2.3875
   61MOL   H52841448   1.783   2.084   3.308 -0.9754 -1.5679  2.6448
   61MOL   H52941449   1.681   1.967   3.240 -1.5105  1.9912  1.4308
   61MOL   H53041450   1.862   1.934   3.056 -2.6674  1.0207 -1.1490
   61MOL   H53141451   1.800   2.092   3.052 -0.9216 -1.0120 -1.0065
   61MOL   H53241452   2.043   2.021   3.225 -2.1682 -2.6289 -0.2234
   61MOL   H53341453   1.994   2.181   3.195 -0.8651 -1.5264  2.6998
   61MOL   H53441454   2.074   2.010   2.966  0.4054 -1.5528  2.2854
   61MOL   H53541455   2.189   2.108   3.040 -0.1184 -1.0342 -2.8946
   61MOL   H53641456   2.087   2.216   2.834  0.5453  1.1007 -0.2589
   61MOL   H53741457   1.935   2.209   2.923  0.0546 -3.0634  1.9797
   61MOL   H53841458   2.190   2.340   3.033  0.9420  1.6364 -2.0799
   61MOL   H53941459   2.020   2.383   3.076  1.7702 -2.8242  2.0676
   61MOL   H54041460   2.148   2.462   2.821  0.2482  1.3096  0.1375
   61MOL   H54141461   1.980   2.483   2.851  0.8912  1.3330 -1.6185
   61MOL   H54241462   2.046   2.597   3.062  0.4296 -2.9587  0.1862
   61MOL   H54341463   2.060   2.689   2.914 -1.6895  0.5809  1.2525
   61MOL   H54441464   2.320   2.648   2.915 -0.1903 -4.2042  0.1634
   61MOL   H54541465   2.291   2.551   3.061  1.0652 -0.7465 -0.1157
   61MOL   N54641466   2.401   2.781   3.136 -0.2187  0.2876  0.3415
   61MOL   C54741467   2.512   2.690   3.160 -0.0942 -0.4061  0.0993
   61MOL   C54841468   2.604   2.675   3.033 -0.6524 -0.1208 -0.3458
   61MOL   C54941469   2.731   2.601   3.055  0.5248 -0.4610  0.2164
   61MOL   C55041470   2.804   2.587   2.923 -0.9089  0.4266  0.2107
   61MOL   C55141471   2.951   2.523   2.944  0.8654 -0.7566 -0.4701
   61MOL   C55241472   3.028   2.515   2.815  0.5809 -0.7753 -0.6938
   61MOL   C55341473   3.086   2.376   2.788 -0.3435  0.1772 -0.2512
   61MOL   C55441474   3.171   2.369   2.661  0.1347 -0.1318 -0.8391
   61MOL   C55541475   3.234   2.230   2.638  0.3994 -0.4623 -0.1873
   61MOL   C55641476   3.345   2.176   2.735 -0.3725  0.6001  0.1080
   61MOL   C55741477   3.434   2.059   2.690 -0.3259 -0.3899 -0.2150
   61MOL   O55841478   3.443   2.028   2.570  0.1365 -0.0401  0.0159
   61MOL   H55941479   2.412   2.880   3.152  0.4109  0.2710  0.0435
   61MOL   H56041480   2.571   2.723   3.246  0.2021 -2.3604  0.6559
   61MOL   H56141481   2.472   2.591   3.181  1.1465 -1.0100 -0.3719
   61MOL   H56241482   2.612   2.774   2.990  0.3333 -0.8300 -1.8198
   61MOL   H56341483   2.547   2.633   2.951  0.1161 -2.5805  0.3356
   61MOL   H56441484   2.782   2.663   3.128  1.1434  1.7605 -2.0449
   61MOL   H56541485   2.710   2.508   3.109  2.0546 -0.7744  0.2834
   61MOL   H56641486   2.808   2.675   2.859 -0.2362  0.1895 -0.0836
   61MOL   H56741487   2.765   2.508   2.858  0.2034  1.0543 -1.2719
   61MOL   H56841488   2.939   2.431   3.002  0.3594 -1.8605 -2.2934
   61MOL   H56941489   3.002   2.601   3.002 -1.2879  0.7460 -0.5484
   61MOL   H57041490   2.985   2.563   2.727  0.4478  0.1856 -0.1115
   61MOL   H57141491   3.121   2.572   2.815  0.5644 -0.7355 -1.9205
   61MOL   H57241492   3.004   2.305   2.779  1.2607 -1.6408 -0.7501
   61MOL   H57341493   3.151   2.343   2.870 -2.3598 -0.4166  1.1453
   61MOL   H57441494   3.117   2.407   2.575  0.9366 -0.0181 -1.2982
   61MOL   H57541495   3.249   2.443   2.678 -0.1301  0.1457 -0.8185
   61MOL   H57641496   3.289   2.241   2.544 -0.7998 -0.0691 -0.8513
   61MOL   H57741497   3.155   2.157   2.620 -1.8940  2.1521 -0.9931
   61MOL   H57841498   3.295   2.149   2.828 -1.2038 -0.8948 -0.7397
   61MOL   H57941499   3.409   2.260   2.762 -0.1626  0.7830 -0.9387
   61MOL   N58041500   3.505   2.000   2.791 -0.6194 -0.0770  0.2376
   61MOL   C58141501   3.599   1.896   2.781 -0.7630  0.1091 -0.1548
   61MOL   C58241502   3.632   1.841   2.914  0.5805 -0.0088 -0.6513
   61MOL   C58341503   3.643   1.953   3.021  0.3529 -0.2751 -0.0744
   61MOL   C58441504   3.682   1.897   3.162  0.0134  0.1019 -0.1841
   61MOL   C58541505   3.695   1.999   3.283  0.3897  0.1151 -0.4744
   61MOL   C58641506   3.727   1.938   3.422  0.0742 -0.2746 -0.4533
   61MOL   C58741507   3.736   2.046   3.528  0.5863  0.6256 -0.0152
   61MOL   C58841508   3.859   2.138   3.529 -0.3578 -0.1437 -0.2427
   61MOL   C58941509   3.854   2.253   3.630 -0.0808 -0.3208 -0.3210
   61MOL   C59041510   3.911   2.204   3.772 -0.5160 -0.0087 -0.6605
   61MOL   C59141511   3.813   2.139   3.870  0.7874  0.1923  0.2517
   61MOL   O59241512   3.696   2.115   3.834 -0.4012  0.3896  0.2281
   61MOL   H59341513   3.495   2.029   2.887 -0.3454  1.3439 -0.1505
   61MOL   H59441514   3.559   1.816   2.719  0.7252 -2.3077  1.9014
   61MOL   H59541515   3.685   1.940   2.729 -0.8183  0.7697  0.2979
   61MOL   H59641516   3.726   1.787   2.911  1.5719  1.6171  0.2691
   61MOL   H59741517   3.557   1.772   2.950  2.0630 -1.5607 -0.4887
   61MOL   H59841518   3.716   2.030   2.995  0.7108 -1.1897 -1.8675
   61MOL   H59941519   3.553   2.010   3.043  0.9826  0.7490 -0.1128
   61MOL   H60041520   3.780   1.849   3.159 -0.0475 -0.1110  0.7989
   61MOL   H60141521   3.620   1.815   3.199  0.5349 -0.3639 -0.3361
   61MOL   H60241522   3.610   2.066   3.294 -1.4714 -2.4871  1.5568
   61MOL   H60341523   3.782   2.059   3.255  0.4781  0.3805  0.3643
   61MOL   H60441524   3.656   1.860   3.452 -0.3571 -0.0687 -0.9291
   61MOL   H60541525   3.819   1.881   3.432 -1.6877 -2.5342  5.4935
   61MOL   H60641526   3.722   1.999   3.626  1.6425  0.9360  0.2928
   61MOL   H60741527   3.649   2.110   3.514 -1.0356 -1.3299  0.9062
   61MOL   H60841528   3.954   2.086   3.538  1.1848  2.3581 -1.4918
   61MOL   H60941529   3.886   2.182   3.433  1.7891  0.4244  0.5802
   61MOL   H61041530   3.753   2.295   3.631  0.8065  1.8830 -0.1133
   61MOL   H61141531   3.922   2.335   3.608  0.2538 -0.2489  0.9075
   61MOL   H61241532   3.950   2.291   3.827 -0.1972  0.6236 -1.8734
   61MOL   H61341533   3.991   2.132   3.755  0.5865  0.7219  1.2186
   61MOL   N61441534   3.853   2.088   3.992 -0.1366  0.2537 -0.5741
   61MOL   C61541535   3.764   2.021   4.084  0.0902  0.8694  0.0408
   61MOL   C61641536   3.691   2.107   4.188  0.8023 -0.0038 -0.2604
   61MOL   C61741537   3.592   2.024   4.274 -0.0766 -0.1634 -0.3536
   61MOL   C61841538   3.526   2.115   4.383  0.0101 -0.2987 -0.1034
   61MOL   C61941539   3.465   2.044   4.504  0.0644  0.2313 -0.5821
   61MOL   C62041540   3.377   2.140   4.584  0.5027  0.5527  0.6668
   61MOL   C62141541   3.312   2.075   4.703  0.2058  0.1589  0.3222
   61MOL   C62241542   3.186   2.158   4.744  0.1824  0.2390  0.2259
   61MOL   C62341543   3.219   2.282   4.828 -0.0486 -0.4789 -0.2748
   61MOL   C62441544   3.096   2.346   4.892 -0.0015 -0.0790  0.4735
   61MOL   C62541545   3.123   2.476   4.971 -0.0331 -0.2317 -0.0738
   61MOL   O62641546   3.226   2.535   4.947  0.0973  0.1029 -0.1369
   61MOL   H62741547   3.951   2.073   4.007 -0.7393 -1.4625  1.9416
   61MOL   H62841548   3.819   1.939   4.131  0.3365  0.3816 -1.0653
   61MOL   H62941549   3.689   1.968   4.025 -1.8483  1.6439  1.7478
   61MOL   H63041550   3.640   2.186   4.132  1.0770  1.8251  2.0018
   61MOL   H63141551   3.766   2.149   4.255  0.8341  0.5796 -0.6614
   61MOL   H63241552   3.517   1.986   4.205 -1.7110  1.8781  0.2452
   61MOL   H63341553   3.644   1.937   4.316 -0.2025  1.4469  3.3063
   61MOL   H63441554   3.469   2.179   4.316 -0.6294 -0.3788  0.3573
   61MOL   H63541555   3.599   2.191   4.409 -1.1157  0.8799 -0.3079
   61MOL   H63641556   3.547   2.003   4.562 -1.4277 -0.2911  1.2159
   61MOL   H63741557   3.409   1.959   4.465 -0.0551  0.9950 -2.1181
   61MOL   H63841558   3.427   2.232   4.613  2.6190 -0.4750  0.3564
   61MOL   H63941559   3.290   2.170   4.524 -0.5704 -2.4275  0.6422
   61MOL   H64041560   3.382   2.069   4.787  1.2715 -1.1663 -0.6237
   61MOL   H64141561   3.275   1.975   4.683 -0.6949  0.7791 -1.1817
   61MOL   H64241562   3.122   2.183   4.659  2.1589  0.5462 -1.1923
   61MOL   H64341563   3.128   2.099   4.816 -2.9415  1.0507 -1.5276
   61MOL   H64441564   3.271   2.351   4.761 -1.7211  0.5752 -0.5360
   61MOL   H64541565   3.281   2.240   4.907  1.0458  0.8134 -0.4113
   61MOL   H64641566   3.064   2.260   4.950  0.9067 -1.0741 -0.4659
   61MOL   H64741567   3.017   2.363   4.819 -0.0497  1.3087  0.8385
   61MOL   N64841568   3.023   2.521   5.047  0.2956  0.1158  0.0311
   61MOL   C64941569   3.033   2.653   5.105 -0.3051 -0.7641  0.9403
   61MOL   C65041570   2.969   2.763   5.015 -0.1955  0.1331  0.2251
   61MOL   C65141571   2.951   2.900   5.093 -0.2546  0.5503  0.3489
   61MOL   C65241572   2.911   3.015   4.992 -0.2796 -0.1531  0.1369
   61MOL   C65341573   2.807   3.118   5.051 -0.1410  0.2919 -0.6184
   61MOL   C65441574   2.802   3.245   4.973 -0.1025  0.2125 -0.1156
   61MOL   C65541575   2.679   3.334   4.992 -0.7431  0.0713  0.5027
   61MOL   C65641576   2.652   3.424   4.866 -0.2541  0.2659  0.2198
   61MOL   C65741577   2.556   3.547   4.888  0.6649  0.2798  0.0035
   61MOL   C65841578   2.411   3.502   4.923 -0.9215 -0.5181  0.6461
   61MOL   C65941579   2.326   3.437   4.815  0.0515 -0.6938  0.1610
   61MOL   O66041580   2.366   3.347   4.747  0.4364 -0.0539 -0.0925
   61MOL   H66141581   2.958   2.455   5.087 -0.5350  0.3629 -0.8905
   61MOL   H66241582   3.131   2.680   5.143  0.3640 -1.1963 -0.4224
   61MOL   H66341583   2.963   2.652   5.188 -0.9416  3.0867  0.5479
   61MOL   H66441584   2.866   2.738   4.991 -0.3870  0.7711  0.3603
   61MOL   H66541585   3.033   2.774   4.927  1.4272 -2.3104  1.0569
   61MOL   H66641586   2.869   2.884   5.163 -1.0669 -0.9928 -0.9337
   61MOL   H66741587   3.042   2.934   5.143 -1.1186  1.1299  1.5725
   61MOL   H66841588   2.863   2.968   4.906 -0.0424  0.1927 -0.1860
   61MOL   H66941589   3.000   3.056   4.945 -0.9616  0.1901 -0.8755
   61MOL   H67041590   2.828   3.146   5.154  0.5160  0.2263 -0.7329
   61MOL   H67141591   2.711   3.066   5.051  0.3356 -0.6234  0.5500
   61MOL   H67241592   2.890   3.309   4.976 -0.7922  1.1374  1.0313
   61MOL   H67341593   2.792   3.207   4.871 -2.4594  1.2157 -0.2766
   61MOL   H67441594   2.694   3.408   5.070 -1.3692 -0.2064  0.8921
   61MOL   H67541595   2.594   3.267   5.007  0.4536 -1.2795  1.4674
   61MOL   H67641596   2.746   3.468   4.833 -0.0695  0.4605  0.9818
   61MOL   H67741597   2.624   3.360   4.783  0.1056 -0.1713  0.4291
   61MOL   H67841598   2.543   3.601   4.795 -1.2795 -0.6275 -0.2531
   61MOL   H67941599   2.595   3.618   4.961 -0.3251 -0.2840  1.0989
   61MOL   H68041600   2.365   3.596   4.956 -2.1433 -0.7144 -0.4768
   61MOL   H68141601   2.404   3.448   5.017  2.0199 -1.3744  0.4268
   61MOL   H68241602   2.221   3.465   4.806  0.8793  2.8836  0.8757
   62MOL     N141603   4.427   6.549   3.251 -0.8391 -0.0716 -0.1368
   62MOL     C241604   4.359   6.472   3.153 -0.1641  0.1577  0.0446
   62MOL     C341605   4.418   6.508   3.018 -0.3794  0.3988 -0.1557
   62MOL     C441606   4.372   6.395   2.911 -0.1383 -0.4118 -0.4212
   62MOL     C541607   4.425   6.421   2.768  1.0152  0.9283  0.6118
   62MOL     C641608   4.335   6.352   2.658  0.4855  0.0839  0.0420
   62MOL     C741609   4.352   6.415   2.517 -0.1195 -0.2553  0.3084
   62MOL     C841610   4.327   6.313   2.407 -0.1875 -0.5832 -0.0789
   62MOL     C941611   4.182   6.269   2.407  0.7483 -0.2759 -0.1417
   62MOL    C1041612   4.160   6.175   2.287  0.2401  0.1677 -0.2588
   62MOL    C1141613   4.012   6.128   2.274  0.5156 -0.6105  0.1705
   62MOL    C1241614   3.899   6.231   2.254 -0.1718 -0.0790 -0.3634
   62MOL    O1341615   3.920   6.351   2.266 -0.1058 -0.0140  0.1312
   62MOL    H1441616   4.520   6.510   3.259 -0.8352 -0.0390 -0.0186
   62MOL    H1541617   4.254   6.499   3.144 -0.1243  0.0738 -0.6915
   62MOL    H1641618   4.352   6.365   3.173 -1.3321  0.2311  0.1044
   62MOL    H1741619   4.525   6.498   3.038 -0.2350 -0.7334 -1.4021
   62MOL    H1841620   4.378   6.605   2.987 -0.5905 -0.0186 -1.2056
   62MOL    H1941621   4.408   6.297   2.939  0.7690  0.1330  0.3469
   62MOL    H2041622   4.264   6.383   2.913 -0.1250 -0.3951  0.4202
   62MOL    H2141623   4.529   6.390   2.771  0.6402 -0.4804 -0.2054
   62MOL    H2241624   4.440   6.528   2.756  0.0432  0.7920 -2.3093
   62MOL    H2341625   4.229   6.371   2.675  0.6705  0.0542  1.2692
   62MOL    H2441626   4.356   6.245   2.661  4.1654  0.6604 -2.2043
   62MOL    H2541627   4.290   6.504   2.508 -0.1556 -0.2914  0.1956
   62MOL    H2641628   4.454   6.453   2.513 -0.1366 -0.1720  0.6912
   62MOL    H2741629   4.388   6.224   2.421 -0.4642 -0.7871 -0.1756
   62MOL    H2841630   4.351   6.356   2.309 -0.9270 -0.0364 -0.0278
   62MOL    H2941631   4.178   6.218   2.503  0.8340 -0.1789 -0.0866
   62MOL    H3041632   4.111   6.352   2.411 -0.0298 -0.9876  0.9560
   62MOL    H3141633   4.231   6.092   2.291  2.2344  1.8489 -0.0612
   62MOL    H3241634   4.183   6.229   2.195  1.9837 -0.3302 -0.1287
   62MOL    H3341635   3.989   6.063   2.358  0.2568  0.0235  0.5917
   62MOL    H3441636   4.011   6.055   2.193  2.0329 -0.5220  0.0632
   62MOL    H3541637   4.388   6.543   3.344  0.4476 -0.4532  0.3916
   62MOL    N3641638   3.777   6.178   2.250  0.4827 -0.3840 -0.0862
   62MOL    C3741639   3.645   6.242   2.238  0.0778 -0.4567 -0.4697
   62MOL    C3841640   3.576   6.283   2.376  0.3292 -0.1779  0.4567
   62MOL    C3941641   3.436   6.340   2.352  0.0667  0.3957  0.3051
   62MOL    C4041642   3.436   6.487   2.323  0.0701  0.2372 -0.0525
   62MOL    C4141643   3.294   6.544   2.291 -0.5476 -0.6434 -0.1871
   62MOL    C4241644   3.298   6.699   2.263  0.6547 -0.4685 -0.5029
   62MOL    C4341645   3.156   6.745   2.234  0.1420  0.6305  0.2810
   62MOL    C4441646   3.152   6.873   2.149  0.6890 -0.1461  0.4949
   62MOL    C4541647   3.211   6.863   2.005 -0.5101  0.0491 -0.2769
   62MOL    C4641648   3.139   6.765   1.913 -0.7443 -0.0020 -0.3864
   62MOL    C4741649   2.988   6.791   1.872 -0.7194 -0.5271 -0.4052
   62MOL    O4841650   2.925   6.891   1.912 -0.3550 -0.1890  0.3827
   62MOL    H4941651   3.781   6.077   2.252 -0.1395 -0.4315 -1.1634
   62MOL    H5041652   3.662   6.331   2.177 -0.1426 -0.8991 -1.1747
   62MOL    H5141653   3.580   6.175   2.182  0.1334 -1.6566  0.8678
   62MOL    H5241654   3.647   6.353   2.421 -0.6770  2.4904 -1.9606
   62MOL    H5341655   3.579   6.213   2.459 -0.5947  1.4923  1.9381
   62MOL    H5441656   3.385   6.307   2.262  1.7957  2.4301 -1.4660
   62MOL    H5541657   3.375   6.320   2.441  0.3643  0.3999  0.5090
   62MOL    H5641658   3.496   6.504   2.233  0.5110  2.3159  0.5960
   62MOL    H5741659   3.484   6.549   2.399 -0.6604  1.5122 -0.6112
   62MOL    H5841660   3.228   6.528   2.376  0.8311  0.4066  1.0980
   62MOL    H5941661   3.241   6.494   2.210 -3.6908  0.7439  0.9604
   62MOL    H6041662   3.324   6.755   2.353  1.1626 -0.6337 -0.5425
   62MOL    H6141663   3.375   6.729   2.192  0.7637 -0.8786 -0.5627
   62MOL    H6241664   3.108   6.756   2.332 -0.0523  0.3322  0.2211
   62MOL    H6341665   3.095   6.671   2.182 -1.4043  1.2754  1.1406
   62MOL    H6441666   3.048   6.905   2.154  1.0203  0.9803  0.3316
   62MOL    H6541667   3.204   6.952   2.203 -1.7647  0.5982  1.8524
   62MOL    H6641668   3.319   6.849   2.005 -0.2192  2.1271  1.3794
   62MOL    H6741669   3.184   6.960   1.964  0.5521  1.3691  2.1149
   62MOL    H6841670   3.153   6.662   1.947  3.5330 -0.3479 -2.7844
   62MOL    H6941671   3.197   6.764   1.821 -0.1874 -1.9048 -0.0529
   62MOL    N7041672   2.935   6.702   1.793 -0.4489 -0.5144  0.4145
   62MOL    C7141673   2.802   6.705   1.738  0.9455 -0.0805 -0.3283
   62MOL    C7241674   2.815   6.757   1.593 -0.1724  0.2320  0.3951
   62MOL    C7341675   2.687   6.733   1.509  0.3466 -0.3431 -0.2660
   62MOL    C7441676   2.715   6.767   1.360  0.1255 -0.1740 -0.0519
   62MOL    C7541677   2.582   6.748   1.289 -0.3429 -0.0464  0.2533
   62MOL    C7641678   2.594   6.724   1.138  0.1864  0.6712  0.1430
   62MOL    C7741679   2.667   6.604   1.076 -0.2906 -0.2340  0.5077
   62MOL    C7841680   2.639   6.602   0.926  0.4729  0.3779 -0.9385
   62MOL    C7941681   2.742   6.516   0.845  0.7079 -0.4886 -0.2916
   62MOL    C8041682   2.703   6.501   0.697 -0.2904 -0.0765 -0.7956
   62MOL    C8141683   2.785   6.394   0.625  0.7119 -0.4657 -0.0225
   62MOL    O8241684   2.738   6.280   0.611 -0.3035 -0.2294 -0.2463
   62MOL    H8341685   3.001   6.631   1.766  2.8753  2.3204  0.7084
   62MOL    H8441686   2.765   6.605   1.756 -0.7727  0.6036 -0.0088
   62MOL    H8541687   2.725   6.767   1.784  2.4929  0.7669  1.2182
   62MOL    H8641688   2.899   6.707   1.546 -0.1515  0.0272  0.6465
   62MOL    H8741689   2.859   6.857   1.590  0.3755  0.1450  3.6414
   62MOL    H8841690   2.657   6.628   1.511  0.0539 -0.2789 -1.3742
   62MOL    H8941691   2.610   6.796   1.554  0.7600  0.0883 -0.1666
   62MOL    H9041692   2.795   6.700   1.331 -0.1928 -0.6743  0.2200
   62MOL    H9141693   2.748   6.870   1.346  1.4291 -0.5837 -0.0696
   62MOL    H9241694   2.515   6.824   1.330 -1.7843 -1.2973  0.2931
   62MOL    H9341695   2.528   6.661   1.328 -0.7735  0.5863  1.0780
   62MOL    H9441696   2.494   6.714   1.097 -0.6440 -0.4318  2.3778
   62MOL    H9541697   2.628   6.810   1.081  0.4223  0.0805 -0.6142
   62MOL    H9641698   2.644   6.509   1.125 -0.3879 -1.1638 -1.3369
   62MOL    H9741699   2.773   6.605   1.101  0.1144 -1.2656 -1.1247
   62MOL    H9841700   2.533   6.577   0.921 -0.2618  3.0606  0.2714
   62MOL    H9941701   2.645   6.704   0.887  0.9086  1.8475  2.7287
   62MOL   H10041702   2.770   6.420   0.888  3.0721  0.8174  1.1425
   62MOL   H10141703   2.838   6.567   0.843 -0.0936  1.0393 -0.3172
   62MOL   H10241704   2.709   6.595   0.642 -0.9038 -0.2810 -1.2065
   62MOL   H10341705   2.601   6.462   0.696 -0.5522  0.4739  1.3645
   62MOL   N10441706   2.903   6.432   0.566 -0.5123 -0.3398 -0.4429
   62MOL   C10541707   2.989   6.350   0.484  0.7476  0.1838 -0.6270
   62MOL   C10641708   3.127   6.412   0.447  0.5757 -0.0228  0.1496
   62MOL   C10741709   3.171   6.343   0.314 -0.2725 -0.5841  0.3748
   62MOL   C10841710   3.302   6.398   0.252  0.2941  0.6227 -0.3247
   62MOL   C10941711   3.371   6.295   0.161  0.7988 -0.0194  0.3964
   62MOL   C11041712   3.298   6.267   0.026 -0.3073  0.4320  0.0022
   62MOL   C11141713   3.363   6.149   7.662  0.2918  0.2045 -0.5838
   62MOL   C11241714   3.330   6.005   7.700 -0.2602  0.3100  0.1555
   62MOL   C11341715   3.426   5.907   7.644 -0.0878  1.0387 -0.2178
   62MOL   C11441716   3.414   5.759   7.663  0.8089  0.8280 -0.1593
   62MOL   C11541717   3.449   5.724   0.094 -0.8037 -0.2513  0.1250
   62MOL   O11641718   3.512   5.803   0.169  0.7126  0.1831  0.6128
   62MOL   H11741719   2.929   6.528   0.582 -1.2669  0.1443 -1.9658
   62MOL   H11841720   3.001   6.265   0.551 -1.2111  0.4601  0.0816
   62MOL   H11941721   2.927   6.318   0.400  0.5127 -2.0519  0.3702
   62MOL   H12041722   3.192   6.393   0.533 -0.4496  1.1134  1.2070
   62MOL   H12141723   3.124   6.520   0.441 -1.3606  0.0105  1.2418
   62MOL   H12241724   3.177   6.235   0.331 -2.4539 -0.6801  0.6817
   62MOL   H12341725   3.094   6.352   0.238  0.9373 -0.3633 -0.8560
   62MOL   H12441726   3.373   6.417   0.332  1.0786 -0.6016 -0.7166
   62MOL   H12541727   3.301   6.492   0.196  3.9866 -0.4125 -2.3002
   62MOL   H12641728   3.395   6.198   0.206  0.7357  0.5880  1.7558
   62MOL   H12741729   3.468   6.338   0.135  1.1565 -1.6478 -1.1057
   62MOL   H12841730   3.196   6.235   0.047 -1.2221  2.3756 -1.3386
   62MOL   H12941731   3.286   6.356   7.679  0.9736  1.0673  0.6316
   62MOL   H13041732   3.471   6.162   7.671  0.3353  1.0478 -2.1677
   62MOL   H13141733   3.329   6.150   7.559 -0.1303 -0.3762 -0.4488
   62MOL   H13241734   3.337   6.004   0.093 -0.6481  1.1715  0.1908
   62MOL   H13341735   3.228   5.974   7.678 -0.9786  2.2920  0.5964
   62MOL   H13441736   3.526   5.935   7.678 -0.5886  1.9891  0.5027
   62MOL   H13541737   3.431   5.925   7.536 -0.5957  2.1681 -0.0609
   62MOL   H13641738   3.496   5.720   7.604  1.6648  0.2569  1.3713
   62MOL   H13741739   3.317   5.723   7.629  1.4244 -1.9132  0.8609
   62MOL   N13841740   3.401   5.610   0.137  1.5115  0.2193 -0.1089
   62MOL   C13941741   3.416   5.558   0.272  0.5902 -0.1524 -0.4483
   62MOL   C14041742   3.278   5.486   0.319  0.3816 -0.3633 -0.1796
   62MOL   C14141743   3.281   5.442   0.468 -0.4718  0.1771 -0.2398
   62MOL   C14241744   3.177   5.337   0.510 -0.0985 -0.1653 -0.2239
   62MOL   C14341745   3.207   5.261   0.645 -0.2272 -0.1292 -0.3664
   62MOL   C14441746   3.094   5.167   0.691 -0.5306 -0.3593  0.1907
   62MOL   C14541747   3.126   5.113   0.822  0.6650 -0.6250  0.2218
   62MOL   C14641748   3.010   5.041   0.890 -0.3801  0.0443  0.4741
   62MOL   C14741749   3.044   4.913   0.968  0.8642  0.3449 -0.0521
   62MOL   C14841750   3.100   4.942   1.104 -0.0590  0.4308 -0.6995
   62MOL   C14941751   3.250   4.976   1.104 -0.4485  0.7867 -0.0388
   62MOL   O15041752   3.335   4.881   1.079  0.4530 -0.9225 -0.0836
   62MOL   H15141753   3.349   5.556   0.070  2.0678  1.4926 -1.6035
   62MOL   H15241754   3.487   5.478   0.254  1.1343  0.4713 -1.0853
   62MOL   H15341755   3.447   5.636   0.341  0.7714  0.7182 -1.4975
   62MOL   H15441756   3.262   5.401   0.254  0.4085 -1.7853  1.6218
   62MOL   H15541757   3.200   5.561   0.316  0.2462 -0.4812  0.3725
   62MOL   H15641758   3.386   5.413   0.474 -0.8498 -1.6093 -1.9387
   62MOL   H15741759   3.272   5.535   0.526  0.8065  1.3008 -1.7943
   62MOL   H15841760   3.157   5.277   0.422 -0.3739  1.0604 -1.0136
   62MOL   H15941761   3.081   5.386   0.524  0.5354  0.4113  2.4334
   62MOL   H16041762   3.236   5.336   0.719  2.1761 -0.7549 -0.6218
   62MOL   H16141763   3.295   5.197   0.631 -1.5310 -1.7474 -1.2464
   62MOL   H16241764   3.002   5.226   0.693  1.0901  2.2790  2.1772
   62MOL   H16341765   3.081   5.094   0.612  0.7469 -1.6446  1.1427
   62MOL   H16441766   3.166   5.195   0.883  1.4326 -1.3050  0.6501
   62MOL   H16541767   3.207   5.043   0.801  2.3050  2.0022 -2.5280
   62MOL   H16641768   2.961   5.114   0.955  0.0354  0.2757  0.5313
   62MOL   H16741769   2.938   5.019   0.811 -1.0686  4.0900 -0.1508
   62MOL   H16841770   3.114   4.853   0.910  0.9284 -0.9447  1.3115
   62MOL   H16941771   2.948   4.862   0.982  0.3030  1.0402 -1.2499
   62MOL   H17041772   3.102   4.852   1.166  0.8904  0.2841 -0.9368
   62MOL   H17141773   3.045   5.017   1.161 -0.0195 -1.1616  1.4945
   62MOL   N17241774   3.282   5.102   1.131 -0.1036 -0.6223  0.4177
   62MOL   C17341775   3.410   5.172   1.108  0.5074  0.7854 -0.4432
   62MOL   C17441776   3.493   5.121   0.987  0.4294 -0.1225 -0.6120
   62MOL   C17541777   3.608   5.218   0.953  0.0466 -0.6077  0.4396
   62MOL   C17641778   3.552   5.333   0.870 -0.0295 -0.7380 -0.3241
   62MOL   C17741779   3.664   5.426   0.825 -0.2114 -0.4250 -0.4508
   62MOL   C17841780   3.604   5.549   0.752  0.8715 -0.0786 -0.1798
   62MOL   C17941781   3.708   5.640   0.682 -1.1994  0.1093  0.8165
   62MOL   C18041782   3.648   5.746   0.592 -0.2792 -0.5184 -0.0776
   62MOL   C18141783   3.745   5.833   0.513 -0.7107  0.6199 -0.5262
   62MOL   C18241784   3.792   5.761   0.383  0.2041 -0.4449  0.8744
   62MOL   C18341785   3.865   5.854   0.282 -0.0962  0.9313  0.8122
   62MOL   O18441786   3.975   5.897   0.313 -0.7118  0.8551  0.2227
   62MOL   H18541787   3.204   5.151   1.174  0.7552  0.3172  0.9363
   62MOL   H18641788   3.381   5.276   1.097 -1.3741  0.5938  2.1025
   62MOL   H18741789   3.473   5.165   1.196 -2.4283 -0.4900  1.6518
   62MOL   H18841790   3.424   5.114   0.903  1.2628 -1.9023 -1.1675
   62MOL   H18941791   3.518   5.015   0.991 -2.0383 -0.7002  0.4041
   62MOL   H19041792   3.649   5.275   1.037  0.4662 -0.5602  0.2077
   62MOL   H19141793   3.690   5.173   0.897 -1.2261 -0.7980 -1.3221
   62MOL   H19241794   3.466   5.388   0.908  1.4574  0.9148  0.6455
   62MOL   H19341795   3.525   5.281   0.777 -0.4491  0.9774 -1.1735
   62MOL   H19441796   3.747   5.383   0.767  0.9390 -0.6150  1.2819
   62MOL   H19541797   3.715   5.465   0.913 -0.5051 -0.6185 -0.1939
   62MOL   H19641798   3.537   5.519   0.672  0.0802  0.3933  0.2904
   62MOL   H19741799   3.546   5.605   0.826  1.0456  0.3751 -0.3847
   62MOL   H19841800   3.760   5.576   0.610  1.4055  0.9065  1.9400
   62MOL   H19941801   3.786   5.672   0.751 -2.5287 -1.4438  3.1019
   62MOL   H20041802   3.564   5.715   0.530 -1.7671  2.2323  0.5061
   62MOL   H20141803   3.603   5.815   0.663  1.3142 -0.6092  1.0380
   62MOL   H20241804   3.832   5.860   0.573  0.2165  2.4125 -2.6006
   62MOL   H20341805   3.703   5.931   0.486 -2.1687 -0.4633 -2.3187
   62MOL   H20441806   3.708   5.722   0.326  0.7901  0.3297 -0.5720
   62MOL   H20541807   3.859   5.683   0.417  0.9643 -0.5529 -0.8213
   62MOL   N20641808   3.799   5.889   0.166 -0.3794  0.2641 -0.5321
   62MOL   C20741809   3.854   5.968   0.058  0.3407 -0.5429 -0.6411
   62MOL   C20841810   3.918   5.881   7.659  0.7069  0.2903 -0.1416
   62MOL   C20941811   3.813   5.794   7.590 -0.0152 -0.4016 -0.3382
   62MOL   C21041812   3.859   5.664   7.514 -0.6314 -0.5197  0.4803
   62MOL   C21141813   3.756   5.549   7.535  0.2923 -0.1387 -0.2319
   62MOL   C21241814   3.745   5.500   7.681 -0.2656 -0.3195 -0.2630
   62MOL   C21341815   3.694   5.346   7.704  1.2481  0.6172 -0.1878
   62MOL   C21441816   3.543   5.318   7.678  0.0119  0.5960 -0.5547
   62MOL   C21541817   3.488   5.197   0.033  0.4191  0.0632  1.2781
   62MOL   C21641818   3.348   5.144   7.692 -0.4368  0.3122 -0.1601
   62MOL   C21741819   3.229   5.229   7.713  0.5350  0.3649  0.8849
   62MOL   O21841820   3.246   5.351   7.713 -0.2370 -0.2884 -0.3867
   62MOL   H21941821   3.707   5.851   0.148 -0.6067  0.5030  0.1064
   62MOL   H22041822   3.933   6.039   0.085  1.7047 -1.9370 -0.8595
   62MOL   H22141823   3.777   6.035   0.020  2.3949  1.7707 -0.8720
   62MOL   H22241824   3.992   5.814   7.703 -0.2537 -1.2695 -0.8510
   62MOL   H22341825   3.974   5.942   7.589  0.7890  1.3139  0.7980
   62MOL   H22441826   3.735   5.773   7.663 -0.7554 -3.1972 -1.8615
   62MOL   H22541827   3.769   5.864   7.519 -0.7437  0.0777  0.5775
   62MOL   H22641828   3.958   5.632   7.546 -0.1552  1.2545  0.8772
   62MOL   H22741829   3.857   5.680   7.406  0.8155  2.3182  0.8160
   62MOL   H22841830   3.790   5.464   7.476  0.1799  0.3928 -1.0792
   62MOL   H22941831   3.665   5.575   7.480  0.0775 -0.8073 -0.1878
   62MOL   H23041832   3.846   5.503   0.004  0.0799 -0.2798 -1.1559
   62MOL   H23141833   3.678   5.562   0.024  0.0757 -0.8128  0.6507
   62MOL   H23241834   3.711   5.333   0.095  0.2499  0.7221 -0.0174
   62MOL   H23341835   3.756   5.269   7.659 -0.5387 -0.3986 -0.9676
   62MOL   H23441836   3.487   5.410   7.693 -0.1300  0.3356  0.5112
   62MOL   H23541837   3.539   5.309   7.570  1.8242 -2.7039 -0.3965
   62MOL   H23641838   3.487   5.217   0.140  0.9593  0.9565  1.1171
   62MOL   H23741839   3.557   5.113   0.024  0.0492 -0.1240  0.0942
   62MOL   H23841840   3.330   5.044   0.014 -0.6033 -0.0968 -1.3024
   62MOL   H23941841   3.367   5.123   7.586  0.1962 -1.2698  0.2532
   62MOL   N24041842   3.109   5.176   0.029  0.1568 -0.8602  0.2184
   62MOL   C24141843   2.982   5.239   0.035  0.3476 -0.3960  0.5942
   62MOL   C24241844   2.964   5.288   0.182  0.6032 -0.1633  0.3856
   62MOL   C24341845   2.823   5.336   0.209  0.0011 -0.0762 -0.3365
   62MOL   C24441846   2.752   5.436   0.112 -0.0884 -0.1015 -0.1984
   62MOL   C24541847   2.832   5.564   0.111 -0.4102 -0.0044 -0.2949
   62MOL   C24641848   2.750   5.684   0.063 -0.4056 -0.4381 -0.1684
   62MOL   C24741849   2.822   5.823   0.056 -0.0461 -0.2939 -0.4968
   62MOL   C24841850   2.910   5.837   7.643 -0.3241 -0.3499 -1.1858
   62MOL   C24941851   2.922   5.981   7.601 -0.2697  0.4982  0.2113
   62MOL   C25041852   3.024   5.995   7.478 -0.2497 -0.0570  0.7703
   62MOL   C25141853   2.958   5.997   7.338  0.2602  0.0812  0.0796
   62MOL   O25241854   2.834   5.993   7.319 -0.7221 -0.4946  0.0482
   62MOL   H25341855   3.114   5.078   0.053 -1.9263 -0.8896  0.6169
   62MOL   H25441856   2.907   5.165   0.008 -1.1426  1.2437  0.1039
   62MOL   H25541857   2.965   5.329   7.691  1.5912  0.1056  0.9883
   62MOL   H25641858   3.034   5.371   0.191  0.6212  0.1527 -2.3215
   62MOL   H25741859   2.995   5.220   0.262  0.9732  1.7595  1.9368
   62MOL   H25841860   2.757   5.249   0.216 -2.4798  1.7900 -0.0250
   62MOL   H25941861   2.818   5.377   0.309  0.6224 -0.3078 -0.2101
   62MOL   H26041862   2.652   5.464   0.144  0.0470  1.9308 -1.4436
   62MOL   H26141863   2.735   5.390   0.015  1.6711 -2.1654  0.4421
   62MOL   H26241864   2.928   5.558   0.059 -0.5937 -0.5320 -0.5799
   62MOL   H26341865   2.864   5.590   0.212 -0.8248  1.3833 -0.5103
   62MOL   H26441866   2.714   5.654   7.679  0.8319 -1.2789 -0.3704
   62MOL   H26541867   2.661   5.692   0.125 -0.8982 -1.4803 -0.7169
   62MOL   H26641868   2.876   5.841   0.149 -1.3930  2.6262 -0.2449
   62MOL   H26741869   2.752   5.906   0.060 -1.7986 -1.7000 -1.3984
   62MOL   H26841870   3.008   5.792   7.655 -0.3701  0.0756  0.9845
   62MOL   H26941871   2.861   5.774   7.568 -1.3037 -3.3100  1.8007
   62MOL   H27041872   2.942   6.043   7.688 -1.3220 -2.0825  2.3739
   62MOL   H27141873   2.825   6.025   7.579  0.2869  1.1611 -0.9875
   62MOL   H27241874   3.110   5.928   7.469  0.8268  1.1355  1.9738
   62MOL   H27341875   3.056   6.097   7.498  0.3878 -0.0026 -0.4420
   62MOL   N27441876   3.040   6.026   7.237 -0.4449  0.7804  0.3785
   62MOL   C27541877   3.006   6.088   7.107  0.2849  0.3236  0.0536
   62MOL   C27641878   3.055   6.238   7.121 -0.4140 -0.0568  0.7498
   62MOL   C27741879   3.202   6.256   7.150  0.2208 -0.1560  0.1201
   62MOL   C27841880   3.237   6.408   7.153  0.0485 -0.1313  0.5538
   62MOL   C27941881   3.376   6.441   7.201 -0.3072 -0.5233  0.7864
   62MOL   C28041882   3.489   6.425   7.100  0.8931  0.3701 -0.3150
   62MOL   C28141883   3.626   6.484   7.148  0.5112  0.6288  0.9687
   62MOL   C28241884   3.737   6.459   7.049 -0.8513  0.2847 -0.5463
   62MOL   C28341885   3.732   6.554   6.928  0.0121  0.7665 -0.5973
   62MOL   C28441886   3.775   6.700   6.958 -0.4789  0.1943 -0.0007
   62MOL   C28541887   3.791   6.790   6.841 -0.2386  0.0314 -0.5096
   62MOL   O28641888   3.720   6.771   6.741  0.1589 -0.2317 -0.9934
   62MOL   H28741889   3.139   6.018   7.250 -0.4507 -0.1761 -0.0842
   62MOL   H28841890   2.900   6.094   7.085  0.1633  0.2424  0.6105
   62MOL   H28941891   3.060   6.031   7.032  1.0332 -1.6531  2.0506
   62MOL   H29041892   2.998   6.274   7.206  0.1829  0.2066  1.0457
   62MOL   H29141893   3.035   6.297   7.031  2.1730  1.6647  1.2573
   62MOL   H29241894   3.219   6.224   7.253 -0.7309  2.1720  1.0395
   62MOL   H29341895   3.261   6.195   7.082  1.9800 -1.1394  2.4616
   62MOL   H29441896   3.158   6.454   7.212 -0.3989 -0.5339  0.2712
   62MOL   H29541897   3.223   6.464   7.061  0.2864  0.1077  0.6633
   62MOL   H29641898   3.410   6.373   7.280  1.7936  0.6527  0.9171
   62MOL   H29741899   3.369   6.543   7.238 -0.8151  0.0080 -0.7478
   62MOL   H29841900   3.512   6.319   7.087 -2.0556 -0.2594 -0.7719
   62MOL   H29941901   3.454   6.464   7.004 -2.0688 -0.4272  0.4181
   62MOL   H30041902   3.651   6.443   7.246  0.5202 -1.1823  0.2149
   62MOL   H30141903   3.627   6.592   7.163 -0.8546  0.6611  0.9195
   62MOL   H30241904   3.834   6.463   7.100 -0.3043  3.5910 -1.7404
   62MOL   H30341905   3.733   6.357   7.011  1.0028  0.7940 -2.1547
   62MOL   H30441906   3.630   6.549   6.888  1.0332  0.4797 -3.2411
   62MOL   H30541907   3.797   6.514   6.851 -0.3937 -1.6170  0.2444
   62MOL   H30641908   3.867   6.680   7.015 -0.7682  0.4624  0.5659
   62MOL   H30741909   3.698   6.744   7.022 -0.5877  1.6991 -1.1661
   62MOL   N30841910   3.876   6.890   6.856 -0.2897 -0.3047  0.0507
   62MOL   C30941911   3.883   7.008   6.764 -0.7834 -0.3766  0.6739
   62MOL   C31041912   3.917   7.140   6.826 -0.7470  0.1189  0.4662
   62MOL   C31141913   4.070   7.158   6.872  0.2687 -0.5319 -0.1691
   62MOL   C31241914   4.087   7.290   6.956 -0.5978  0.3447  0.4535
   62MOL   C31341915   4.233   7.320   7.000  0.3407  0.9974 -0.4591
   62MOL   C31441916   4.256   7.418   7.118  0.7753 -0.0835 -0.1514
   62MOL   C31541917   4.407   7.426   7.158 -0.3619  0.2680  0.3048
   62MOL   C31641918   4.426   7.535   7.264  0.1305 -0.4893 -0.0933
   62MOL   C31741919   4.568   7.538   7.329 -0.4446 -0.2659  0.1765
   62MOL   C31841920   4.603   7.658   7.408 -0.3561 -0.3042  0.2172
   62MOL   C31941921   4.753   7.687   7.434 -0.4386  0.2193  0.5619
   62MOL   O32041922   4.843   7.607   7.405  0.1046  0.0160  0.0759
   62MOL   H32141923   3.929   6.892   6.942  1.6957 -1.9061 -1.0931
   62MOL   H32241924   3.792   7.019   6.705  1.6007 -1.0896 -3.2528
   62MOL   H32341925   3.946   6.981   6.680 -0.7472  2.4421 -0.2475
   62MOL   H32441926   3.857   7.154   6.916 -0.6462 -2.7237  1.0169
   62MOL   H32541927   3.898   7.213   6.747 -0.6502  2.5696  2.6524
   62MOL   H32641928   4.105   7.076   6.935 -3.3517 -2.5130 -0.5418
   62MOL   H32741929   4.134   7.161   6.784 -0.3369 -0.6619 -0.6250
   62MOL   H32841930   4.019   7.294   7.042 -0.7929  1.7050  0.2335
   62MOL   H32941931   4.064   7.369   6.886 -0.9921 -0.2004 -0.0388
   62MOL   H33041932   4.281   7.354   6.908  1.8053 -0.4657 -0.2548
   62MOL   H33141933   4.286   7.232   7.034  0.4249  0.8247 -1.0295
   62MOL   H33241934   4.223   7.512   7.074  0.8055  0.0281  0.0653
   62MOL   H33341935   4.183   7.395   7.196  3.0527 -0.1905  2.0321
   62MOL   H33441936   4.471   7.439   7.071 -1.7840  0.3481 -0.7502
   62MOL   H33541937   4.441   7.337   7.211 -0.4700  0.4563  0.6965
   62MOL   H33641938   4.396   7.628   7.215  1.2800  0.0279  0.1599
   62MOL   H33741939   4.354   7.507   7.341 -0.1423  0.3210 -0.0514
   62MOL   H33841940   4.638   7.526   7.246  0.8955 -0.3021  1.2914
   62MOL   H33941941   4.573   7.446   7.388 -1.1780  0.2868  1.1261
   62MOL   H34041942   4.552   7.656   7.504 -1.7538 -1.8542 -0.5276
   62MOL   H34141943   4.561   0.024   7.351 -0.4038  1.4859  2.7248
   62MOL   N34241944   4.778   0.093   7.482 -0.2228 -0.2262  0.5387
   62MOL   C34341945   4.918   0.145   7.490 -0.1736  0.1043  0.7011
   62MOL   C34441946   4.911   0.284   7.548  0.2718 -0.4963  0.1927
   62MOL   C34541947   4.928   0.290   7.695  0.4284  0.0398 -0.0297
   62MOL   C34641948   4.892   0.430   0.041  0.8613 -0.5642  0.5483
   62MOL   C34741949   4.936   0.432   0.189  0.2053  0.0848  0.1368
   62MOL   C34841950   4.909   0.574   0.251 -0.1404 -0.0648  0.1226
   62MOL   C34941951   4.977   0.592   0.386  0.6100 -0.5140  0.3193
   62MOL   C35041952   4.946   0.721   0.456  0.1237 -0.3021 -0.3038
   62MOL   C35141953   5.032   0.746   0.587 -0.4834 -0.2223  0.0097
   62MOL   C35241954   5.180   0.715   0.585 -0.4837  0.8745  0.3793
   62MOL   C35341955   5.225   0.568   0.609  0.1997 -0.0861 -0.0110
   62MOL   O35441956   5.152   0.489   0.670 -0.1392  0.1793 -0.3422
   62MOL   H35541957   4.709   0.157   7.520  0.3036  0.4623  0.3337
   62MOL   H35641958   4.988   0.081   7.544  1.3260  1.5352  0.4835
   62MOL   H35741959   4.945   0.147   7.384 -1.6879  3.1933  0.3114
   62MOL   H35841960   4.825   0.337   7.507  1.1561  0.3213 -0.6251
   62MOL   H35941961   4.996   0.337   7.504 -0.2784 -0.6462 -1.0925
   62MOL   H36041962   4.852   0.217   0.009 -0.3165  0.1550 -1.5845
   62MOL   H36141963   5.032   0.266   0.001 -0.0134 -0.6742  1.3786
   62MOL   H36241964   4.785   0.441   0.024  1.0696  0.8485  0.1456
   62MOL   H36341965   4.942   0.506   7.697 -3.0891  0.3124 -1.8926
   62MOL   H36441966   5.044   0.417   0.187  0.2479  0.5415 -0.9928
   62MOL   H36541967   4.886   0.354   0.247  1.0898 -1.9900 -1.7818
   62MOL   H36641968   4.946   0.659   0.193 -1.2575  0.1188 -0.3338
   62MOL   H36741969   4.803   0.600   0.253 -0.5095 -1.5694  0.6910
   62MOL   H36841970   5.082   0.601   0.359  1.1470  0.0735  2.5936
   62MOL   H36941971   4.961   0.502   0.445 -1.6148  0.0142  0.5596
   62MOL   H37041972   4.942   0.802   0.383  1.5015  0.2761  0.2490
   62MOL   H37141973   4.846   0.697   0.493 -0.0711 -1.1382 -1.3149
   62MOL   H37241974   4.993   0.683   0.667  1.3771 -1.0924  0.2528
   62MOL   H37341975   5.008   0.847   0.623 -0.5945  0.1387 -1.0397
   62MOL   H37441976   5.234   0.766   0.664  1.7816 -0.8474 -0.0205
   62MOL   H37541977   5.211   0.753   0.487  0.4427  0.0258  0.3396
   62MOL   N37641978   5.339   0.535   0.549  0.3947 -0.0299 -0.0273
   62MOL   C37741979   5.398   0.406   0.537  0.2098  0.0440 -0.1898
   62MOL   C37841980   5.420   0.361   0.390  0.1456 -0.2748  0.0027
   62MOL   C37941981   5.452   0.212   0.365 -0.9222 -0.0078 -0.5128
   62MOL   C38041982   5.459   0.163   0.213  0.2239  0.3807 -0.4878
   62MOL   C38141983   5.451   0.007   0.195  0.1424  0.0488  0.6742
   62MOL   C38241984   5.474   7.662   0.055  0.2281  0.3424 -0.2434
   62MOL   C38341985   5.422   0.017   7.652 -0.2389 -0.5522 -0.2667
   62MOL   C38441986   5.460   7.669   7.511  0.5060 -0.2352 -0.1104
   62MOL   C38541987   5.396   0.013   7.390 -0.7406  0.1316 -0.4230
   62MOL   C38641988   5.257   7.680   7.361  0.0721  0.2431 -0.5198
   62MOL   C38741989   5.197   0.028   7.237 -0.0956 -0.0907  0.1528
   62MOL   O38841990   5.263   0.114   7.181  0.3406  0.0355  0.2005
   62MOL   H38941991   5.391   0.612   0.509  0.0671  0.3990  0.3583
   62MOL   H39041992   5.495   0.416   0.585 -0.5767  0.7604  1.2921
   62MOL   H39141993   5.325   0.340   0.585 -0.4674 -1.4723 -3.2077
   62MOL   H39241994   5.508   0.415   0.357 -0.5752  1.7975  1.3910
   62MOL   H39341995   5.337   0.395   0.329 -1.7749 -1.5170  1.8690
   62MOL   H39441996   5.546   0.191   0.416 -1.5429 -0.5488  0.4202
   62MOL   H39541997   5.371   0.149   0.403 -0.9843  1.8714  2.6725
   62MOL   H39641998   5.549   0.194   0.160  1.5219 -1.4797  0.5893
   62MOL   H39741999   5.380   0.211   0.155  0.6479  1.0009 -0.5520
   62MOL   H39842000   5.358   7.690   0.242  0.6830  0.6046  2.1589
   62MOL   H39942001   5.535   7.686   0.254  1.2348  1.2988 -0.0798
   62MOL   H40042002   5.581   7.645   0.043  0.1100 -1.5817  1.1242
   62MOL   H40142003   5.442   7.557   0.059 -1.5376  0.8426 -0.7908
   62MOL   H40242004   5.455   0.121   7.648  0.3539 -0.7107  0.5004
   62MOL   H40342005   5.316   0.038   7.670 -0.2302  0.9283 -1.7372
   62MOL   H40442006   5.567   7.680   7.495  0.6223 -1.2241 -0.0355
   62MOL   H40542007   5.451   7.561   7.525  1.2403  0.2020  4.4522
   62MOL   H40642008   5.459   7.699   7.307  0.0826  0.6786  0.0023
   62MOL   H40742009   5.399   0.121   7.402 -0.8735  0.2715 -1.5740
   62MOL   H40842010   5.179   7.685   7.438  0.6705 -1.7891  0.2593
   62MOL   H40942011   5.257   7.573   7.340  1.7583  0.4203 -1.4941
   62MOL   N41042012   5.076   7.706   7.203  0.9374 -0.7096 -0.0779
   62MOL   C41142013   4.998   0.048   7.093  0.0133  0.2728 -0.4720
   62MOL   C41242014   4.881   7.668   7.053  0.0152  0.1108  0.1398
   62MOL   C41342015   4.922   7.530   7.001  0.4368 -0.6960 -0.1837
   62MOL   C41442016   4.812   7.455   6.924  0.5973  0.1733  0.6245
   62MOL   C41542017   4.872   7.333   6.855 -0.1537  0.5771 -0.9908
   62MOL   C41642018   4.765   7.265   6.775  0.0720  0.0221  0.0481
   62MOL   C41742019   4.676   7.173   6.859 -0.1752 -0.4179 -0.5454
   62MOL   C41842020   4.574   7.099   6.764 -0.3695  0.5763 -0.5015
   62MOL   C41942021   4.487   6.998   6.834  0.1853  0.0018  0.4121
   62MOL   C42042022   4.397   6.915   6.740 -0.2155 -0.4191  0.1461
   62MOL   C42142023   4.366   6.775   6.797 -0.6547 -0.3332 -0.1161
   62MOL   O42242024   4.450   6.690   6.825 -0.4448  0.0489 -0.2698
   62MOL   H42342025   5.025   7.635   7.255  1.5461 -1.4791 -0.5193
   62MOL   H42442026   4.955   0.142   7.127  2.3106  0.8824  0.8597
   62MOL   H42542027   5.055   0.070   7.003 -0.0436  1.3128 -0.2622
   62MOL   H42642028   4.827   7.702   6.965 -2.0304 -0.5896  1.0991
   62MOL   H42742029   4.808   7.653   7.133 -0.7910  0.0800 -0.6001
   62MOL   H42842030   5.009   7.549   6.938  1.2834  0.4670  1.3173
   62MOL   H42942031   4.969   7.470   7.079 -1.3078 -0.6526  0.9273
   62MOL   H43042032   4.763   7.526   6.857  1.5342  1.1643  0.9568
   62MOL   H43142033   4.732   7.425   6.991  0.5946  0.2859  0.6717
   62MOL   H43242034   4.918   7.269   6.930  3.2183  2.3767 -1.4122
   62MOL   H43342035   4.949   7.365   6.784  0.3280  0.8410 -0.3585
   62MOL   H43442036   4.711   7.336   6.712  0.3500  0.9165  0.8062
   62MOL   H43542037   4.814   7.203   6.700 -0.2201  0.1391 -0.2425
   62MOL   H43642038   4.624   7.219   6.943  1.2042  3.5355 -1.7414
   62MOL   H43742039   4.741   7.094   6.898  2.9242  2.2592 -0.1278
   62MOL   H43842040   4.505   7.174   6.727 -1.3790  0.2057  0.6030
   62MOL   H43942041   4.636   7.051   6.688 -0.1715 -0.7190  0.4552
   62MOL   H44042042   4.425   7.051   6.905  1.4649 -1.4375  2.6749
   62MOL   H44142043   4.549   6.943   6.905  3.1289  1.3838 -0.9959
   62MOL   H44242044   4.443   6.896   6.643 -2.1009 -1.7859 -0.5242
   62MOL   H44342045   4.307   6.970   6.713  0.7146  0.3089 -1.5232
   62MOL   N44442046   4.233   6.755   6.810  0.4409 -0.1393  0.3127
   62MOL   C44542047   4.168   6.635   6.867 -0.1248  0.5440 -0.1610
   62MOL   C44642048   4.169   6.520   6.771 -0.3716  0.9003 -0.1976
   62MOL   C44742049   4.107   6.397   6.840 -0.3319  0.5008  0.4581
   62MOL   C44842050   4.091   6.270   6.753 -0.0650  0.0456  0.4387
   62MOL   C44942051   3.987   6.172   6.818 -0.4732 -0.4334  1.1089
   62MOL   C45042052   3.951   6.058   6.720  0.1347 -0.4405  0.3678
   62MOL   C45142053   3.834   5.970   6.785  0.4106  0.8381  0.0574
   62MOL   C45242054   3.789   5.842   6.710 -1.2845  0.0948 -0.2950
   62MOL   C45342055   3.696   5.751   6.793  0.1939  0.4047 -0.2156
   62MOL   C45442056   3.740   5.696   6.929  0.2279 -0.0230 -0.2468
   62MOL   C45542057   3.629   5.615   6.998  0.4398 -0.1541  0.5548
   62MOL   O45642058   3.514   5.632   6.955 -0.5029 -0.0741 -0.2272
   62MOL   H45742059   4.177   6.834   6.779  0.5721 -0.6934 -1.3518
   62MOL   H45842060   4.205   6.609   6.966 -0.7925  0.3269  0.0300
   62MOL   H45942061   4.062   6.660   6.871 -0.4114 -0.9106  1.3368
   62MOL   H46042062   4.268   6.484   6.742 -1.1147 -2.7824  1.5494
   62MOL   H46142063   4.114   6.549   6.681  0.3704  0.0222 -0.9572
   62MOL   H46242064   4.167   6.371   6.928  0.9913  3.2010  0.4045
   62MOL   H46342065   4.012   6.430   6.881  0.1260 -1.2971  3.0875
   62MOL   H46442066   4.184   6.215   6.738 -0.2749 -0.3462  0.5723
   62MOL   H46542067   4.052   6.302   6.656  0.6170 -1.4412 -0.3527
   62MOL   H46642068   3.891   6.216   6.846 -0.4311 -0.1741  0.8482
   62MOL   H46742069   4.028   6.140   6.913  0.8525  1.6018  1.2665
   62MOL   H46842070   3.922   6.088   6.619 -0.6508  0.5088  0.8726
   62MOL   H46942071   4.034   5.990   6.701  0.6600  0.2371  0.2090
   62MOL   H47042072   3.742   6.024   6.809 -0.0355 -0.5820  1.6253
   62MOL   H47142073   3.882   5.939   6.878 -1.5764 -0.0089  0.8369
   62MOL   H47242074   3.746   5.852   6.610 -1.1316  2.3142 -0.1596
   62MOL   H47342075   3.876   5.781   6.686 -2.2126 -1.1962 -0.4386
   62MOL   H47442076   3.663   5.665   6.736 -0.1049  1.2849 -1.3694
   62MOL   H47542077   3.598   5.797   6.802  0.2021  0.3476  0.2139
   62MOL   H47642078   3.758   5.779   6.997 -1.9046 -0.9376  1.5279
   62MOL   H47742079   3.824   5.628   6.916 -0.9297 -1.4441 -0.4692
   62MOL   N47842080   3.659   5.530   7.092 -0.0662  0.5391 -0.1252
   62MOL   C47942081   3.558   5.451   7.163 -0.1330 -0.8341 -0.8848
   62MOL   C48042082   3.510   5.322   7.089 -0.3356 -0.5513 -0.0985
   62MOL   C48142083   3.624   5.222   7.045 -0.4383 -0.1500 -0.2139
   62MOL   C48242084   3.587   5.079   7.015 -0.2047  0.7673  0.5048
   62MOL   C48342085   3.705   4.980   6.994 -0.2936  0.8937  0.1512
   62MOL   C48442086   3.666   4.856   6.906 -0.3388 -0.4884 -0.4188
   62MOL   C48542087   3.624   4.885   6.757 -0.1809  0.1161  0.3429
   62MOL   C48642088   3.729   4.948   6.682 -0.2464  0.5909 -0.2375
   62MOL   C48742089   3.708   4.942   6.525  0.2987 -0.3144 -0.0355
   62MOL   C48842090   3.813   5.018   6.441  0.2122  0.1053 -0.3761
   62MOL   C48942091   3.955   4.971   6.452  0.0472  0.1279  0.0113
   62MOL   O49042092   3.982   4.855   6.484 -0.4404 -0.2465 -0.4602
   62MOL   H49142093   3.756   5.506   7.104 -0.4591 -0.4918  1.0222
   62MOL   H49242094   3.598   5.430   7.261 -1.6611  2.9499  0.6624
   62MOL   H49342095   3.476   5.521   7.181  1.0352 -0.0206  1.4550
   62MOL   H49442096   3.455   5.359   7.004  1.3491  1.7515 -0.2231
   62MOL   H49542097   3.440   5.270   7.155 -1.4065 -0.6075 -1.2811
   62MOL   H49642098   3.689   5.268   6.970 -0.1242 -0.4288 -0.1135
   62MOL   H49742099   3.697   5.216   7.125  0.7344 -0.7384 -1.2912
   62MOL   H49842100   3.525   5.079   6.925  0.3109 -1.4706  0.1295
   62MOL   H49942101   3.512   5.046   7.087 -0.2674  1.1687  0.6262
   62MOL   H50042102   3.751   4.939   7.083  1.1248  3.1379  0.5036
   62MOL   H50142103   3.786   5.034   6.944 -0.3999  1.0103  0.1031
   62MOL   H50242104   3.748   4.785   6.899  0.9794  0.6106  2.9693
   62MOL   H50342105   3.588   4.794   6.949 -0.2968  0.3767  0.9474
   62MOL   H50442106   3.533   4.946   6.755  0.0153  0.3724 -1.6777
   62MOL   H50542107   3.604   4.791   6.705  0.8298 -0.6399  1.2922
   62MOL   H50642108   3.750   5.052   6.708  0.2260  0.5810 -0.5693
   62MOL   H50742109   3.820   4.892   6.703  0.1164  1.7861  1.4535
   62MOL   H50842110   3.612   4.985   6.496 -0.6990 -1.5767  1.3564
   62MOL   H50942111   3.696   4.841   6.488  0.6866 -0.0867 -0.7894
   62MOL   H51042112   3.805   5.123   6.472  0.6039  0.1841 -0.5435
   62MOL   H51142113   3.788   5.014   6.335 -1.5852 -0.6285  0.0569
   62MOL   N51242114   4.051   5.063   6.430  0.0125  0.7448 -0.6839
   62MOL   C51342115   4.191   5.031   6.409 -0.1812 -0.2927 -0.2175
   62MOL   C51442116   4.287   5.158   6.421 -0.2320 -0.4385  0.0267
   62MOL   C51542117   4.425   5.126   6.371 -0.2481 -0.1225 -0.5710
   62MOL   C51642118   4.518   5.246   6.334  0.0251  0.1412  0.1633
   62MOL   C51742119   4.662   5.209   6.298 -0.0458  0.8572 -0.3706
   62MOL   C51842120   4.773   5.324   6.316  0.3414  0.7578  0.4193
   62MOL   C51942121   4.914   5.271   6.276 -0.5611 -0.0105  0.5186
   62MOL   C52042122   5.031   5.371   6.269  0.2647 -1.0374  0.4640
   62MOL   C52142123   5.085   5.406   6.404  0.3648 -0.1411  0.7657
   62MOL   C52242124   5.183   5.516   6.401 -0.1665 -0.0455 -0.3387
   62MOL   C52342125   5.321   5.466   6.370  0.4803 -0.1186 -0.7513
   62MOL   O52442126   5.363   5.366   6.427  0.2783  0.2109 -0.1763
   62MOL   H52542127   4.016   5.154   6.405 -1.3526  0.2956 -0.4790
   62MOL   H52642128   4.237   4.957   6.475  1.1684 -0.3720 -1.2366
   62MOL   H52742129   4.194   4.983   6.312  3.8290 -0.8184  0.0874
   62MOL   H52842130   4.300   5.202   6.520  0.5036 -0.5812 -0.0051
   62MOL   H52942131   4.242   5.237   6.361  1.2781 -0.0677 -0.6329
   62MOL   H53042132   4.474   5.059   6.441 -0.3799  0.0742 -0.2902
   62MOL   H53142133   4.420   5.064   6.282 -0.6266 -1.1396  0.1577
   62MOL   H53242134   4.530   5.319   6.414  0.3987  0.7069 -0.4013
   62MOL   H53342135   4.479   5.301   6.249 -0.4744 -2.1056 -1.0995
   62MOL   H53442136   4.662   5.189   6.191  4.7241  1.1472 -0.4948
   62MOL   H53542137   4.696   5.120   6.351  0.5329  1.0842 -0.3659
   62MOL   H53642138   4.757   5.399   6.239 -0.9427 -0.8686 -0.9203
   62MOL   H53742139   4.781   5.370   6.414 -0.3781  0.5250  0.5883
   62MOL   H53842140   4.904   5.229   6.176 -2.5498  3.4037 -0.7915
   62MOL   H53942141   4.944   5.178   6.326 -0.1819  0.9404  2.0945
   62MOL   H54042142   5.112   5.338   6.204 -1.4793 -2.8757 -0.8659
   62MOL   H54142143   4.988   5.458   6.219 -1.4705 -1.6332  0.8548
   62MOL   H54242144   5.124   5.320   6.457  0.9954 -1.1300 -1.2766
   62MOL   H54342145   4.999   5.442   6.461  1.4520  1.2238  1.5880
   62MOL   H54442146   5.189   5.539   6.508  1.9553 -0.6061 -0.3133
   62MOL   H54542147   5.150   5.594   6.333 -1.2892 -1.5400 -1.5298
   62MOL   N54642148   5.403   5.533   6.293  0.7706  0.6214 -0.1054
   62MOL   C54742149   5.546   5.512   6.277  0.1484  0.4775 -0.5630
   62MOL   C54842150   5.625   5.571   6.388 -0.5402  0.8656  0.2028
   62MOL   C54942151   5.778   5.570   6.364  0.1406  0.2557  1.1276
   62MOL   C55042152   5.859   5.620   6.489  0.2218 -0.4267  0.5251
   62MOL   C55142153   5.859   5.768   6.513 -0.2667 -0.0627 -0.4177
   62MOL   C55242154   5.928   5.855   6.403 -0.8766 -0.3409  0.7602
   62MOL   C55342155   5.880   6.003   6.405 -0.5170  0.3788  0.1741
   62MOL   C55442156   5.954   6.101   6.311  0.4675 -0.2265  0.2806
   62MOL   C55542157   5.920   6.241   6.338  0.4939 -0.4304  0.1057
   62MOL   C55642158   5.996   6.334   6.240  0.5792  0.4402  0.2045
   62MOL   C55742159   5.935   6.321   6.099  0.0952 -0.2050 -0.0936
   62MOL   O55842160   5.823   6.363   6.079  0.0984  0.2517  0.4698
   62MOL   H55942161   5.366   5.603   6.230  0.3496 -1.7323 -2.5660
   62MOL   H56042162   5.560   5.404   6.270  0.2686  0.3598  1.3288
   62MOL   H56142163   5.573   5.560   6.183 -0.0961 -0.1867 -0.9777
   62MOL   H56242164   5.604   5.515   6.480 -0.3370  2.0597  0.9876
   62MOL   H56342165   5.592   5.672   6.410 -0.6507  0.7233  0.7150
   62MOL   H56442166   5.806   5.470   6.331 -0.3136  0.2654  0.7085
   62MOL   H56542167   5.794   5.633   6.276 -0.6028 -0.1442  0.7063
   62MOL   H56642168   5.957   5.573   6.488 -0.1373 -1.1545 -1.0017
   62MOL   H56742169   5.814   5.571   6.576  0.3024  0.8687  1.3091
   62MOL   H56842170   5.896   5.802   6.609 -1.8324 -0.2836  0.2833
   62MOL   H56942171   5.754   5.792   6.532  0.1600  1.4697  0.1011
   62MOL   H57042172   6.032   5.832   6.422 -0.5000  0.1383 -0.7330
   62MOL   H57142173   5.905   5.815   6.305  1.2085 -1.5269  0.7425
   62MOL   H57242174   5.896   6.045   6.505  1.5372  1.0593 -0.4097
   62MOL   H57342175   5.774   6.006   6.379 -0.7025 -0.0210  0.8843
   62MOL   H57442176   6.061   6.079   6.313  0.7820  1.2332 -0.3497
   62MOL   H57542177   5.921   6.074   6.211 -0.8137  1.5785  0.1990
   62MOL   H57642178   5.946   6.268   6.440  1.6895 -3.4025  0.6519
   62MOL   H57742179   5.812   6.255   6.335  0.2094 -2.4547  0.0562
   62MOL   H57842180   6.102   6.310   6.229  0.1795 -0.9507 -0.8936
   62MOL   H57942181   5.996   6.439   6.268 -1.2742  0.5849 -0.2611
   62MOL   N58042182   6.006   6.253   6.005  0.3897 -0.6012 -0.9386
   62MOL   C58142183   5.970   6.233   5.870 -0.3915  0.1444 -0.7241
   62MOL   C58242184   6.095   6.213   5.783 -0.2452 -0.5500 -0.3340
   62MOL   C58342185   6.198   6.325   5.805 -0.6989 -0.0665  0.2092
   62MOL   C58442186   6.318   6.308   5.707  0.8673  0.5360 -0.0593
   62MOL   C58542187   6.430   6.414   5.732  0.1778 -0.7476 -0.1871
   62MOL   C58642188   6.399   6.556   5.696 -0.3980  0.0546 -0.8713
   62MOL   C58742189   6.452   6.670   5.785  0.4665  0.5963 -0.2834
   62MOL   C58842190   6.589   6.732   5.758  1.0084  1.2178  0.8831
   62MOL   C58942191   6.637   6.811   5.882  0.3620 -0.1388 -0.6652
   62MOL   C59042192   6.759   6.896   5.859  0.9617  0.1968 -0.2484
   62MOL   C59142193   6.732   7.028   5.790  0.1367 -0.1616  0.1419
   62MOL   O59242194   6.621   7.079   5.780 -0.0417 -0.5822 -0.3269
   62MOL   H59342195   6.104   6.241   6.025  0.4375 -0.5304 -1.1383
   62MOL   H59442196   5.900   6.150   5.865  0.0134 -0.2201 -0.3534
   62MOL   H59542197   5.912   6.317   5.831 -0.4677  0.5765  0.3152
   62MOL   H59642198   6.076   6.215   5.675  4.1156  2.0299 -1.1904
   62MOL   H59742199   6.140   6.116   5.799  0.9987  0.0231 -0.2749
   62MOL   H59842200   6.143   6.418   5.802  1.8741  1.5546  1.4662
   62MOL   H59942201   6.221   6.322   5.912 -0.8192 -1.0712  0.2133
   62MOL   H60042202   6.280   6.330   5.608  0.7131  0.9877  0.0967
   62MOL   H60142203   6.356   6.206   5.709 -0.1740  0.1501  1.1330
   62MOL   H60242204   6.522   6.390   5.680 -0.4511 -1.5570 -0.9442
   62MOL   H60342205   6.476   6.409   5.831  0.2356 -2.6123 -0.2878
   62MOL   H60442206   6.426   6.570   5.591 -0.8491  1.4903 -0.8142
   62MOL   H60542207   6.291   6.573   5.697 -0.3293  0.5992 -1.6017
   62MOL   H60642208   6.454   6.624   5.883 -3.8222  0.2531 -0.2453
   62MOL   H60742209   6.383   6.753   5.777 -1.4261 -0.8175  0.9707
   62MOL   H60842210   6.667   6.658   5.742 -0.1327 -0.1542  1.5689
   62MOL   H60942211   6.571   6.798   5.673  1.5604 -0.0282 -0.2180
   62MOL   H61042212   6.654   6.734   5.958 -1.0670  2.6504  2.6041
   62MOL   H61142213   6.560   6.875   5.924  1.2347  1.2737 -1.2081
   62MOL   H61242214   6.828   6.834   5.801  2.0402  1.6509 -0.5404
   62MOL   H61342215   6.801   6.918   5.957  0.5138 -0.2140  0.0394
   62MOL   N61442216   6.835   7.085   5.727 -0.2373  0.0751  0.8240
   62MOL   C61542217   6.820   7.203   5.638 -0.0416 -0.5482 -0.7661
   62MOL   C61642218   6.934   7.211   5.537  0.4074 -0.4754 -0.5663
   62MOL   C61742219   7.063   7.265   5.601  0.8284 -0.2544 -0.0903
   62MOL   C61842220   7.181   7.311   5.514 -0.0249  0.4558  0.5299
   62MOL   C61942221   7.272   7.197   5.454 -0.3425 -0.5306 -0.2932
   62MOL   C62042222   7.344   7.101   5.557  0.5013 -0.2316  0.3977
   62MOL   C62142223   7.458   7.030   5.483  0.1343  0.2692  0.8975
   62MOL   C62242224   7.541   6.963   5.589 -0.7562 -0.4365 -0.1319
   62MOL   C62342225   7.469   6.854   5.669  0.2219  0.0232 -0.0773
   62MOL   C62442226   7.561   6.782   5.778 -0.2407  0.1285  0.5553
   62MOL   C62542227   7.603   6.864   5.901  0.4985  0.4795  0.7282
   62MOL   O62642228   7.523   6.885   5.999 -0.7485  0.1404  0.6008
   62MOL   H62742229   6.924   7.039   5.742 -0.5031 -0.2440  1.4617
   62MOL   H62842230   6.801   7.296   5.692  0.3751 -0.2135 -1.1897
   62MOL   H62942231   6.730   7.187   5.579 -0.9465 -2.1795  1.0126
   62MOL   H63042232   6.895   7.279   5.461  4.0032  0.8309 -1.3410
   62MOL   H63142233   6.952   7.117   5.485  0.0093 -0.5366 -0.5984
   62MOL   H63242234   7.035   7.349   5.664 -0.7037 -0.0806 -0.9697
   62MOL   H63342235   7.104   7.188   5.666  0.4273 -1.2920 -1.0371
   62MOL   H63442236   7.257   7.369   5.567  2.7233 -0.0271 -2.6924
   62MOL   H63542237   7.141   7.378   5.438 -0.9103  0.6159  1.1348
   62MOL   H63642238   7.346   7.246   5.390 -0.3287 -0.5734 -0.3099
   62MOL   H63742239   7.204   7.142   5.389  1.1414 -2.4905 -0.2633
   62MOL   H63842240   7.378   7.160   5.642 -1.5334  0.6405  0.6499
   62MOL   H63942241   7.271   7.030   5.596  1.7902 -0.4504  2.4804
   62MOL   H64042242   7.520   7.105   5.434  1.1536 -0.7447  0.6465
   62MOL   H64142243   7.423   6.963   5.406  0.7492  1.0196 -0.0417
   62MOL   H64242244   7.635   6.933   5.543  0.0920  0.4277  1.0286
   62MOL   H64342245   7.574   7.037   5.661  2.2531 -1.6427 -0.2020
   62MOL   H64442246   7.441   6.776   5.597 -2.3597  0.7043  0.1461
   62MOL   H64542247   7.371   6.877   5.712 -0.6087 -0.0830 -1.8616
   62MOL   H64642248   7.651   6.750   5.726 -0.6716 -0.8566  0.3913
   62MOL   H64742249   7.515   6.696   5.826  1.6773 -1.2158  0.0370
   62MOL   N64842250   0.008   6.915   5.892  0.0315  0.5118  0.0023
   62MOL   C64942251   0.078   6.971   6.004  0.3020 -0.6385 -0.8032
   62MOL   C65042252   0.153   7.095   5.967 -0.4258  0.2030  0.3388
   62MOL   C65142253   0.258   7.137   6.078 -0.3737 -0.0128  0.2068
   62MOL   C65242254   0.193   7.240   6.167 -0.7541 -0.6341  0.2495
   62MOL   C65342255   0.288   7.293   6.275  0.4630 -0.4286  0.0787
   62MOL   C65442256   0.228   7.392   6.371 -0.5659  0.6302  0.6341
   62MOL   C65542257   0.177   7.525   6.303  0.0437 -0.2726  0.8056
   62MOL   C65642258   0.083   7.595   6.401  0.4087 -0.0000 -0.3155
   62MOL   C65742259   0.022   0.014   6.367 -0.2387 -0.1939 -0.5712
   62MOL   C65842260   7.641   0.061   6.481 -0.4848  0.6824 -0.7160
   62MOL   C65942261   7.589   0.197   6.472  0.1131 -0.1956 -0.4627
   62MOL   O66042262   7.602   0.256   6.363 -0.0526  0.0649 -0.0731
   62MOL   H66142263   0.056   6.899   5.805 -0.0600 -0.9330  0.1959
   62MOL   H66242264   0.146   6.906   6.059  0.7401  0.5797  0.1299
   62MOL   H66342265   0.017   7.000   6.090 -0.3718 -0.7324 -1.2476
   62MOL   H66442266   0.084   7.178   5.951  2.2510  2.5744  0.5042
   62MOL   H66542267   0.203   7.076   5.872 -0.9910 -0.7977  0.2434
   62MOL   H66642268   0.297   7.050   6.132 -1.0369  0.3545  1.2835
   62MOL   H66742269   0.345   7.181   6.028  0.0823  1.2057  2.0134
   62MOL   H66842270   0.097   7.206   6.206 -1.9606  1.1925 -1.0519
   62MOL   H66942271   0.174   7.327   6.104 -1.9402  0.2192  1.7578
   62MOL   H67042272   0.379   7.337   6.233  0.4246 -1.0569 -0.6764
   62MOL   H67142273   0.313   7.204   6.333  0.0603 -1.4587 -1.2994
   62MOL   H67242274   0.151   7.343   6.431 -0.9996  1.3001  0.6412
   62MOL   H67342275   0.290   7.409   6.459 -0.6927 -0.0080  0.8477
   62MOL   H67442276   0.125   7.513   6.208  0.2998  1.0576  0.4844
   62MOL   H67542277   0.259   7.591   6.276  0.7376 -1.0541  0.9957
   62MOL   H67642278   0.005   7.528   6.439 -1.1696  1.7239 -0.4607
   62MOL   H67742279   0.131   7.612   6.497  0.0361  1.5206 -0.3906
   62MOL   H67842280   7.679   0.011   6.275 -2.7097  1.1526  0.9301
   62MOL   H67942281   0.097   0.091   6.350 -2.2456  1.7333 -0.9874
   62MOL   H68042282   7.694   0.049   6.576 -2.5441  0.0601  0.3670
   62MOL   H68142283   7.553   7.712   6.479  0.5888 -0.7969 -1.2824
   62MOL   H68242284   7.552   0.232   6.569 -0.3352 -0.5718 -0.4948
   63MOL     N142285   2.638   0.040   3.295  0.0440 -0.3851 -0.5578
   63MOL     C242286   2.697   7.649   3.383  0.1509 -1.0748 -0.1004
   63MOL     C342287   2.846   7.621   3.352 -0.3939 -0.0419 -0.1868
   63MOL     C442288   2.860   7.506   3.251 -0.2678 -0.1201 -0.9727
   63MOL     C542289   3.005   7.448   3.233 -0.4833 -0.4968 -0.2946
   63MOL     C642290   3.005   7.349   3.113  0.1235 -0.0222 -0.4678
   63MOL     C742291   2.909   7.229   3.129 -0.7958 -0.3169  0.0319
   63MOL     C842292   2.921   7.126   3.022 -0.2456  0.3472 -0.2437
   63MOL     C942293   2.834   7.006   3.056  0.3862 -0.0828  0.2789
   63MOL    C1042294   2.853   6.897   2.948 -0.0251 -0.2772 -0.2019
   63MOL    C1142295   2.751   6.779   2.964 -0.1614  0.1901 -0.0411
   63MOL    C1242296   2.776   6.684   3.081  0.4095  0.0657 -0.3877
   63MOL    O1342297   2.856   6.709   3.166 -0.6448 -0.2450  0.0306
   63MOL    H1442298   2.701   0.118   3.284 -0.8625  0.7354  1.7975
   63MOL    H1542299   2.636   7.564   3.355 -1.9719  0.6534 -0.8639
   63MOL    H1642300   2.677   7.664   3.489  1.0413 -0.4742 -0.0066
   63MOL    H1742301   2.887   7.599   3.450  1.2894  2.7995 -0.2020
   63MOL    H1842302   2.898   7.705   3.307 -1.6077  1.8566  1.8259
   63MOL    H1942303   2.800   7.425   3.293  0.5465  1.4252  3.5204
   63MOL    H2042304   2.817   7.523   3.152  1.3537 -1.0902 -1.8552
   63MOL    H2142305   3.045   7.409   3.326 -0.1282  0.2738 -0.1241
   63MOL    H2242306   3.074   7.528   3.206 -1.8939  0.8842  0.1315
   63MOL    H2342307   3.111   7.324   3.121  0.0350 -0.2497  0.0302
   63MOL    H2442308   2.981   7.389   3.014 -2.5961 -1.8110 -0.6008
   63MOL    H2542309   2.922   7.175   3.223 -0.8457  0.2381  0.3632
   63MOL    H2642310   2.805   7.261   3.133 -0.8706 -0.5978  0.3961
   63MOL    H2742311   3.026   7.098   3.028  0.0039  1.1989 -0.5167
   63MOL    H2842312   2.900   7.171   2.925 -0.3286 -1.2423 -0.9756
   63MOL    H2942313   2.867   6.970   3.153 -1.1842 -1.7533  0.2088
   63MOL    H3042314   2.728   7.027   3.073  0.2472 -1.7923  1.6513
   63MOL    H3142315   2.951   6.849   2.944 -0.5409 -1.2978 -0.6589
   63MOL    H3242316   2.856   6.941   2.849  2.6385 -2.5139 -1.1805
   63MOL    H3342317   2.754   6.725   2.869  0.4704  0.8305 -0.3928
   63MOL    H3442318   2.655   6.830   2.972  0.5021  1.5700 -0.7407
   63MOL    H3542319   2.632   7.714   3.204 -1.5095  0.8409 -1.0275
   63MOL    N3642320   2.716   6.561   3.066  0.9121  0.2756  0.1844
   63MOL    C3742321   2.739   6.443   3.151  0.4343  0.1639  0.0337
   63MOL    C3842322   2.612   6.405   3.224 -0.6767 -0.4271 -0.1048
   63MOL    C3942323   2.626   6.265   3.280 -0.1501 -0.3828  0.4731
   63MOL    C4042324   2.497   6.202   3.341 -0.9174 -0.0956  0.0337
   63MOL    C4142325   2.504   6.052   3.384  0.6804 -0.1152 -0.0646
   63MOL    C4242326   2.374   5.995   3.447 -0.5731  1.1627  0.3084
   63MOL    C4342327   2.338   5.852   3.408  0.3164  0.0588 -0.0406
   63MOL    C4442328   2.206   5.791   3.464 -0.0768 -0.0543 -0.5968
   63MOL    C4542329   2.196   5.635   3.452 -0.2624 -0.4458 -0.1262
   63MOL    C4642330   2.190   5.576   3.311 -0.2778  0.0653 -0.7772
   63MOL    C4742331   2.194   5.427   3.309 -0.0610  0.4858 -0.5712
   63MOL    O4842332   2.286   5.362   3.249  0.0934  0.1959 -0.1044
   63MOL    H4942333   2.643   6.559   2.996  0.1657 -1.1871  0.9901
   63MOL    H5042334   2.778   6.365   3.085 -0.2511  0.7279 -1.0528
   63MOL    H5142335   2.827   6.456   3.213 -0.5266  0.3542  1.3828
   63MOL    H5242336   2.525   6.410   3.158 -0.9799 -0.3144  0.3065
   63MOL    H5342337   2.595   6.473   3.307  1.3840  1.6579 -1.3176
   63MOL    H5442338   2.655   6.199   3.198 -2.3924 -0.4928 -0.2716
   63MOL    H5542339   2.705   6.250   3.353  0.4524 -1.3330 -0.3479
   63MOL    H5642340   2.419   6.205   3.266 -0.1693 -0.7193 -0.7875
   63MOL    H5742341   2.455   6.262   3.422 -1.4874  0.9501 -1.0248
   63MOL    H5842342   2.586   6.034   3.453 -0.6537 -0.0149  1.5819
   63MOL    H5942343   2.517   5.999   3.289 -0.0978 -0.6559  0.1262
   63MOL    H6042344   2.387   6.000   3.555 -1.4585 -0.0696  0.4775
   63MOL    H6142345   2.292   6.064   3.425 -0.6483  0.8507 -0.3896
   63MOL    H6242346   2.433   5.800   3.422  0.8058  0.7279 -0.8753
   63MOL    H6342347   2.323   5.855   3.301 -1.5188 -0.0273  0.2034
   63MOL    H6442348   2.201   5.816   3.570 -0.3177  0.1035 -0.6453
   63MOL    H6542349   2.123   5.847   3.421 -1.1331  0.2400  1.7410
   63MOL    H6642350   2.104   5.609   3.505  0.5117 -1.9961  0.4831
   63MOL    H6742351   2.277   5.597   3.514 -0.1542 -1.4689 -0.8930
   63MOL    H6842352   2.286   5.604   3.268  0.3752  0.5970  1.0097
   63MOL    H6942353   2.107   5.605   3.246 -2.5981 -1.0815  1.5951
   63MOL    N7042354   2.088   5.361   3.362  0.3110 -0.1250  0.4748
   63MOL    C7142355   2.051   5.222   3.324  0.0671  0.2484 -0.2543
   63MOL    C7242356   2.007   5.204   3.173  0.5833  0.1742  0.6230
   63MOL    C7342357   1.953   5.069   3.133 -0.5891 -0.1443 -0.1193
   63MOL    C7442358   1.812   5.039   3.188  0.0951  0.0018 -0.4645
   63MOL    C7542359   1.694   5.125   3.134 -0.2058  0.5655  0.1444
   63MOL    C7642360   1.559   5.091   3.201  0.3826  0.2333 -0.3000
   63MOL    C7742361   1.432   5.157   3.139  0.1132  0.1932  0.5368
   63MOL    C7842362   1.427   5.308   3.149 -0.2519  0.3406 -0.0471
   63MOL    C7942363   1.302   5.360   3.081  0.3024  0.7373  0.4361
   63MOL    C8042364   1.278   5.510   3.107 -0.4487  0.0497 -0.2931
   63MOL    C8142365   1.382   5.598   3.037 -0.7329 -0.2022  0.4158
   63MOL    O8242366   1.467   5.649   3.108  0.5995 -0.1635 -0.2336
   63MOL    H8342367   2.014   5.423   3.388 -0.6972  0.2213 -2.9232
   63MOL    H8442368   2.135   5.156   3.346 -1.2579 -1.7787 -1.0133
   63MOL    H8542369   1.969   5.203   3.393  1.3181 -0.4337  1.0542
   63MOL    H8642370   2.103   5.212   3.122  0.5284 -0.2717  0.4502
   63MOL    H8742371   1.937   5.282   3.146  0.3384 -0.1063  0.4477
   63MOL    H8842372   1.941   5.075   3.024 -0.8453  2.8778  0.0340
   63MOL    H8942373   2.033   4.997   3.152  1.0411  1.3711 -1.0083
   63MOL    H9042374   1.811   5.037   3.297  0.3225  2.4601 -0.3881
   63MOL    H9142375   1.793   4.936   3.158 -1.2408  0.0867  0.0550
   63MOL    H9242376   1.679   5.098   3.030  1.2275  1.1822 -0.2351
   63MOL    H9342377   1.724   5.230   3.136 -0.8038  0.7876 -1.7967
   63MOL    H9442378   1.533   4.985   3.205  3.6869 -0.6320  0.1876
   63MOL    H9542379   1.570   5.112   3.307 -1.2995  2.8119 -0.6030
   63MOL    H9642380   1.345   5.118   3.192  0.1399  0.2264  0.6049
   63MOL    H9742381   1.420   5.136   3.033 -0.5321  1.8120  0.2707
   63MOL    H9842382   1.431   5.335   3.254 -0.6260  0.2272 -0.0041
   63MOL    H9942383   1.515   5.346   3.097  0.0632 -2.0634 -1.3300
   63MOL   H10042384   1.216   5.304   3.119  1.4514 -1.7054 -0.4902
   63MOL   H10142385   1.303   5.335   2.975 -0.2614  0.0622  0.5826
   63MOL   H10242386   1.267   5.530   3.213  0.1459 -1.4081  0.0611
   63MOL   H10342387   1.178   5.542   3.079 -0.4332 -0.0339 -0.4454
   63MOL   N10442388   1.373   5.619   2.903 -0.4198  0.0171  0.0741
   63MOL   C10542389   1.475   5.697   2.838  0.2179  0.1617 -0.4738
   63MOL   C10642390   1.465   5.682   2.687 -0.3452  0.1471 -0.0369
   63MOL   C10742391   1.572   5.773   2.618 -0.3578 -0.3819 -0.0975
   63MOL   C10842392   1.530   5.922   2.605  0.3767  0.1708 -0.8655
   63MOL   C10942393   1.654   6.013   2.628  0.5796 -0.2110 -0.4698
   63MOL   C11042394   1.618   6.166   2.619  0.1550  0.1028  0.3483
   63MOL   C11142395   1.727   6.257   2.681 -0.0520  0.0740  0.6200
   63MOL   C11242396   1.875   6.243   2.630 -0.3278  0.2128  0.1440
   63MOL   C11342397   1.897   6.258   2.481 -0.0246 -0.1436 -0.5434
   63MOL   C11442398   2.046   6.257   2.431  0.2029 -0.1995  0.7309
   63MOL   C11542399   2.121   6.390   2.467 -0.4461  0.3906 -0.6139
   63MOL   O11642400   2.076   6.466   2.556  0.0479  0.1555 -0.3421
   63MOL   H11742401   1.288   5.583   2.862  0.4929 -1.5658 -0.4947
   63MOL   H11842402   1.473   5.806   2.848  0.8843  0.3588 -2.2160
   63MOL   H11942403   1.573   5.665   2.873  0.8146  2.6502  0.2029
   63MOL   H12042404   1.366   5.709   2.650  0.2992  0.8803 -1.2522
   63MOL   H12142405   1.485   5.577   2.666  0.7612  0.6307 -1.4677
   63MOL   H12242406   1.668   5.759   2.668 -0.9794  0.5369  1.3626
   63MOL   H12342407   1.586   5.738   2.516 -2.6524 -1.4873 -0.0610
   63MOL   H12442408   1.446   5.946   2.670 -0.4313 -2.5774 -0.8304
   63MOL   H12542409   1.493   5.943   2.505 -0.1197  1.5969 -0.4023
   63MOL   H12642410   1.740   5.988   2.567 -0.3448 -2.6457 -0.8045
   63MOL   H12742411   1.692   5.989   2.727 -0.3202 -1.7887 -0.4877
   63MOL   H12842412   1.611   6.198   2.514 -0.7059  1.8340  0.9142
   63MOL   H12942413   1.516   6.178   2.656 -0.6229 -2.0162 -0.9969
   63MOL   H13042414   1.739   6.235   2.787 -1.1687  1.6070  1.0834
   63MOL   H13142415   1.706   6.363   2.671  0.9394  0.1768 -0.5000
   63MOL   H13242416   1.939   6.312   2.684  0.0564 -1.4731  1.9035
   63MOL   H13342417   1.899   6.140   2.657 -0.8456 -0.2950 -1.2794
   63MOL   H13442418   1.846   6.346   2.441  0.7600 -0.5077 -2.4145
   63MOL   H13542419   1.836   6.180   2.436 -0.1425 -1.0111  1.0804
   63MOL   H13642420   2.054   6.245   2.323  0.2817  1.9649  0.4666
   63MOL   H13742421   2.097   6.166   2.463  2.7243  0.5260 -1.0950
   63MOL   N13842422   2.232   6.409   2.399 -0.1877 -0.1342  0.0266
   63MOL   C13942423   2.352   6.485   2.444 -0.7020  0.3221 -0.4545
   63MOL   C14042424   2.475   6.398   2.452 -0.0493 -0.0982  0.3197
   63MOL   C14142425   2.600   6.480   2.487  0.3541 -0.1308  0.3206
   63MOL   C14242426   2.728   6.399   2.471  0.1648 -1.2800 -0.4275
   63MOL   C14342427   2.852   6.455   2.538  0.3526 -0.2948  0.1979
   63MOL   C14442428   2.970   6.353   2.551 -0.2877  0.2061 -0.0442
   63MOL   C14542429   3.020   6.262   2.427 -0.3201 -0.1970  0.0628
   63MOL   C14642430   3.121   6.164   2.484  0.1738  0.3353 -0.6023
   63MOL   C14742431   3.173   6.061   2.386 -0.5053 -0.0253 -0.3370
   63MOL   C14842432   3.082   5.954   2.336 -0.6386 -0.4006  0.0237
   63MOL   C14942433   3.002   5.980   2.205 -0.0248  1.1919 -0.0494
   63MOL   O15042434   3.064   6.008   2.100 -0.0908  0.1065  0.3763
   63MOL   H15142435   2.266   6.349   2.325  2.8934  1.2631  0.2356
   63MOL   H15242436   2.370   6.571   2.379 -1.9294  1.2416  0.3890
   63MOL   H15342437   2.337   6.522   2.546  1.8022  1.3347 -0.4219
   63MOL   H15442438   2.484   6.358   2.350  1.8381 -2.3330  1.3100
   63MOL   H15542439   2.468   6.307   2.512  2.9461 -0.9233 -0.5151
   63MOL   H15642440   2.608   6.569   2.425 -0.4073  1.2313  2.1660
   63MOL   H15742441   2.586   6.518   2.588 -0.5461 -0.8519  0.4849
   63MOL   H15842442   2.751   6.389   2.365  1.5415  0.7079 -0.3390
   63MOL   H15942443   2.715   6.299   2.512  0.2730 -0.9983  0.3171
   63MOL   H16042444   2.837   6.488   2.641  0.3421 -1.3105  0.5193
   63MOL   H16142445   2.885   6.539   2.476  0.9420  1.2560  2.5405
   63MOL   H16242446   3.056   6.407   2.589 -1.2080 -0.1805  2.7137
   63MOL   H16342447   2.950   6.283   2.633  2.0681  1.4666  1.6764
   63MOL   H16442448   3.074   6.324   2.355 -2.1721  0.1101 -1.1086
   63MOL   H16542449   2.931   6.212   2.388 -0.0966 -1.0900  0.6650
   63MOL   H16642450   3.203   6.206   2.542 -0.3940 -1.7230  1.8231
   63MOL   H16742451   3.075   6.096   2.557 -0.1102  1.7956  0.5974
   63MOL   H16842452   3.269   6.020   2.417 -0.6195 -1.0646 -1.3158
   63MOL   H16942453   3.207   6.129   2.307  0.6404 -0.2682 -0.0638
   63MOL   H17042454   3.009   5.937   2.416 -1.4358  0.1744 -0.5806
   63MOL   H17142455   3.137   5.864   2.306  2.7376  0.9145  2.0345
   63MOL   N17242456   2.870   5.971   2.211  0.4628 -0.5901  0.1907
   63MOL   C17342457   2.770   5.992   2.108  0.8272 -0.2876 -0.5746
   63MOL   C17442458   2.644   5.913   2.149  0.1015  0.3709 -0.1161
   63MOL   C17542459   2.672   5.762   2.132  1.3395  0.3123  0.6022
   63MOL   C17642460   2.534   5.688   2.147 -0.1137  0.7855  0.5101
   63MOL   C17742461   2.539   5.537   2.118 -0.4143 -0.4875  0.2272
   63MOL   C17842462   2.391   5.498   2.130  0.1167  0.7576  0.5826
   63MOL   C17942463   2.362   5.359   2.082 -0.8652 -0.7615  0.6451
   63MOL   C18042464   2.214   5.337   2.057  0.2578 -0.4492  0.0078
   63MOL   C18142465   2.203   5.201   1.987 -0.6960  0.1962 -0.7070
   63MOL   C18242466   2.062   5.140   1.997  0.0166  0.4758 -0.4225
   63MOL   C18342467   2.063   4.993   1.958 -0.0243 -0.1507  0.3747
   63MOL   O18442468   2.117   4.954   1.864  0.2222  0.0474  0.6591
   63MOL   H18542469   2.829   5.937   2.298 -0.8505 -1.3225 -0.6949
   63MOL   H18642470   2.745   6.098   2.119  2.6368  0.0864  0.0055
   63MOL   H18742471   2.809   5.977   2.008 -1.3083  0.3361 -1.5406
   63MOL   H18842472   2.561   5.947   2.087  0.3939  1.6461  0.1716
   63MOL   H18942473   2.595   5.939   2.244 -1.3630 -1.0659 -0.4606
   63MOL   H19042474   2.709   5.743   2.031 -1.7713 -4.1332  0.1598
   63MOL   H19142475   2.752   5.724   2.195  1.2355 -0.3608  0.3301
   63MOL   H19242476   2.459   5.736   2.085 -0.2538  1.6859  1.3546
   63MOL   H19342477   2.498   5.712   2.248  1.0865  0.5492  1.0092
   63MOL   H19442478   2.603   5.480   2.186 -1.7808 -0.5506  1.4965
   63MOL   H19542479   2.579   5.524   2.018 -0.4031  1.8176 -0.0994
   63MOL   H19642480   2.352   5.524   2.228 -1.7169 -0.4206  0.1920
   63MOL   H19742481   2.332   5.569   2.072  0.3600  2.0439  1.8989
   63MOL   H19842482   2.411   5.284   2.144 -2.5768 -0.4447  2.3956
   63MOL   H19942483   2.411   5.347   1.985  0.8862 -1.0303  1.5420
   63MOL   H20042484   2.153   5.354   2.146 -0.5301  0.4982 -0.6925
   63MOL   H20142485   2.187   5.414   1.984 -1.3211 -1.5192 -0.5501
   63MOL   H20242486   2.284   5.135   2.020 -0.7732  0.6851  0.4882
   63MOL   H20342487   2.230   5.219   1.883 -1.0382  3.9745 -0.2122
   63MOL   H20442488   2.000   5.195   1.926  1.1959  0.5548 -1.4101
   63MOL   H20542489   2.026   5.147   2.099  0.5761 -0.4512 -0.1493
   63MOL   N20642490   2.016   4.901   2.042  0.4836  0.6162 -0.2431
   63MOL   C20742491   1.983   4.766   1.996 -0.1518  0.0077 -0.0096
   63MOL   C20842492   2.002   4.668   2.107  0.5281  0.1642 -0.0648
   63MOL   C20942493   1.916   4.540   2.089  0.3580  0.6458 -0.0310
   63MOL   C21042494   1.968   4.455   1.972  0.2104  0.7684 -0.4685
   63MOL   C21142495   1.874   4.334   1.942 -0.0860 -0.0858  0.2772
   63MOL   C21242496   1.926   4.261   1.821  0.4489  0.5412  0.4689
   63MOL   C21342497   1.831   4.162   1.754  0.2209 -0.3018 -0.4002
   63MOL   C21442498   1.885   4.098   1.629  0.2021 -0.0436 -0.2972
   63MOL   C21542499   1.787   3.991   1.580  0.0464  0.4690 -0.0090
   63MOL   C21642500   1.784   3.953   1.430  0.0847  0.5714 -0.0379
   63MOL   C21742501   1.905   3.876   1.378 -0.0768  0.3075 -0.2251
   63MOL   O21842502   2.013   3.934   1.360  0.0502 -0.3854  0.3286
   63MOL   H21942503   1.978   4.928   2.132  1.8625 -1.5699  1.0506
   63MOL   H22042504   2.032   4.731   1.905  0.8536  0.3978  0.3807
   63MOL   H22142505   1.876   4.764   1.971 -0.0064  1.0615 -0.7429
   63MOL   H22242506   1.963   4.707   2.200 -0.7235  1.2086 -1.0055
   63MOL   H22342507   2.105   4.635   2.119  0.6092  1.2242  2.4896
   63MOL   H22442508   1.929   4.474   2.175  2.3638  0.7454 -0.2189
   63MOL   H22542509   1.812   4.564   2.069  0.5292  0.5698 -1.0384
   63MOL   H22642510   2.072   4.424   1.979  1.5552  4.5701 -2.3438
   63MOL   H22742511   1.965   4.518   1.883 -2.2937  1.1035 -0.1735
   63MOL   H22842512   1.772   4.370   1.927 -1.0051 -2.1382  1.4006
   63MOL   H22942513   1.845   4.274   2.028  0.1182 -0.9949 -0.2797
   63MOL   H23042514   1.949   4.331   1.741 -0.3806  2.1493  1.6142
   63MOL   H23142515   2.024   4.217   1.839  0.6150  0.8181  0.2588
   63MOL   H23242516   1.749   4.226   1.722 -0.1765 -1.0895 -0.9823
   63MOL   H23342517   1.794   4.090   1.827  1.7847 -1.7596 -0.9850
   63MOL   H23442518   1.917   4.174   1.556 -0.4624  0.3623 -0.1711
   63MOL   H23542519   1.975   4.046   1.659  0.0122 -0.0787  0.2123
   63MOL   H23642520   1.687   4.022   1.606 -0.2500 -0.4125 -0.0724
   63MOL   H23742521   1.800   3.907   1.649  0.8479  0.2773 -0.3853
   63MOL   H23842522   1.772   4.047   1.378 -0.9872  0.7033  0.4275
   63MOL   H23942523   1.697   3.892   1.403 -0.2805  1.0717 -0.0079
   63MOL   N24042524   1.874   3.755   1.334  0.5659  0.0467  0.0527
   63MOL   C24142525   1.974   3.689   1.250 -0.6832  0.1885  1.1077
   63MOL   C24242526   1.908   3.589   1.152  0.2753 -0.3360 -0.6261
   63MOL   C24342527   2.007   3.481   1.096 -0.5795 -0.7338 -0.3515
   63MOL   C24442528   1.923   3.369   1.029 -0.2697  0.4627 -0.2158
   63MOL   C24542529   2.011   3.247   1.005  0.8301  0.5300 -0.4595
   63MOL   C24642530   2.066   3.164   1.115 -0.3458  1.2651 -0.3669
   63MOL   C24742531   1.993   3.038   1.146  1.1864 -0.4694  0.0295
   63MOL   C24842532   2.047   2.947   1.257 -0.4457 -0.7367  0.1687
   63MOL   C24942533   1.945   2.848   1.314  0.3460 -0.1912 -0.0810
   63MOL   C25042534   2.014   2.750   1.412 -0.4366  0.9153 -0.0672
   63MOL   C25142535   2.033   2.807   1.550  0.9093  0.3338 -0.2081
   63MOL   O25242536   1.935   2.818   1.623  0.1710  0.3907 -0.3121
   63MOL   H25342537   1.783   3.716   1.349  0.7219 -0.3197  0.0542
   63MOL   H25442538   2.049   3.642   1.314  0.6547 -0.5518 -0.9886
   63MOL   H25542539   2.033   3.759   1.192 -0.7871 -0.1254  0.6247
   63MOL   H25642540   1.870   3.637   1.061 -0.4241 -0.0265 -0.1771
   63MOL   H25742541   1.832   3.533   1.205 -0.5609  2.0929  0.8296
   63MOL   H25842542   2.075   3.528   1.024  1.5440 -0.9047  1.4897
   63MOL   H25942543   2.069   3.438   1.175 -1.3197  0.3133  0.8074
   63MOL   H26042544   1.872   3.404   0.939  0.0998  0.4852 -0.4177
   63MOL   H26142545   1.839   3.338   1.091 -0.4291 -0.0380 -0.6834
   63MOL   H26242546   2.100   3.270   0.946  1.9823 -0.6499  0.7611
   63MOL   H26342547   1.945   3.187   0.942 -0.0649  0.6827  0.3289
   63MOL   H26442548   2.165   3.132   1.082 -0.8005 -0.7703  0.1614
   63MOL   H26542549   2.095   3.223   1.203  1.4377  0.9293 -0.7089
   63MOL   H26642550   1.974   2.978   1.057 -3.3189  0.5169  0.2368
   63MOL   H26742551   1.895   3.073   1.177  0.3706 -2.5794 -0.1227
   63MOL   H26842552   2.139   2.896   1.228  1.2468  2.9380 -1.2555
   63MOL   H26942553   2.064   3.015   1.340  1.4624 -0.8333 -0.1361
   63MOL   H27042554   1.893   2.788   1.240 -0.6554  0.8569 -0.2426
   63MOL   H27142555   1.864   2.888   1.376  1.4439  1.6860  0.1832
   63MOL   H27242556   2.108   2.713   1.370 -1.5317 -0.0290 -1.7309
   63MOL   H27342557   1.948   2.664   1.427  0.5475  0.2084  0.2653
   63MOL   N27442558   2.154   2.848   1.584 -0.0711  0.1564  0.4778
   63MOL   C27542559   2.192   2.897   1.713 -1.0092  0.5426  0.2608
   63MOL   C27642560   2.244   3.040   1.706  0.0570  0.2539 -0.5854
   63MOL   C27742561   2.261   3.121   1.834 -0.7056 -0.0970  0.0910
   63MOL   C27842562   2.341   3.246   1.825  0.0021 -0.3000  0.0857
   63MOL   C27942563   2.312   3.332   1.952 -0.5568  0.2419  0.0864
   63MOL   C28042564   2.385   3.462   1.933  0.3039 -0.1814 -0.4138
   63MOL   C28142565   2.376   3.545   2.058  0.2339 -0.3827 -0.7449
   63MOL   C28242566   2.410   3.694   2.033 -0.8239 -0.2759  0.5023
   63MOL   C28342567   2.378   3.788   2.150 -0.1561  0.6116  0.0638
   63MOL   C28442568   2.489   3.782   2.250  0.3643  0.2745  0.1542
   63MOL   C28542569   2.466   3.873   2.364 -0.3905  0.9666 -0.3697
   63MOL   O28642570   2.560   3.940   2.402  0.7814 -0.1998  0.1684
   63MOL   H28742571   2.216   2.859   1.505  0.2559  0.1075  0.7268
   63MOL   H28842572   2.265   2.834   1.763  0.1758  0.6413 -1.3065
   63MOL   H28942573   2.108   2.895   1.782 -0.2381  0.4513  1.1922
   63MOL   H29042574   2.182   3.089   1.631 -3.2044 -1.1715  1.1041
   63MOL   H29142575   2.346   3.024   1.671  0.8019 -1.6435  2.2775
   63MOL   H29242576   2.161   3.133   1.874 -0.4826 -1.0807  0.9676
   63MOL   H29342577   2.297   3.059   1.916 -2.0937  2.1885  2.4519
   63MOL   H29442578   2.310   3.305   1.739  2.5530  1.3858  0.2680
   63MOL   H29542579   2.447   3.222   1.820  0.6014  1.7598  2.0182
   63MOL   H29642580   2.368   3.281   2.031  0.1718  0.1029 -0.5208
   63MOL   H29742581   2.205   3.337   1.975 -1.0250  0.9775 -2.1237
   63MOL   H29842582   2.487   3.448   1.896  0.4548 -0.8609  0.2447
   63MOL   H29942583   2.341   3.514   1.849 -1.5556 -1.5257 -0.2917
   63MOL   H30042584   2.453   3.504   2.123 -0.9819 -0.7184  0.5070
   63MOL   H30142585   2.283   3.534   2.113 -0.2756 -2.0516 -1.9185
   63MOL   H30242586   2.513   3.701   1.996 -0.8375  0.4783  0.6031
   63MOL   H30342587   2.348   3.727   1.950 -0.8070 -0.0138  0.5954
   63MOL   H30442588   2.284   3.758   2.196  0.1368  0.2177  0.4090
   63MOL   H30542589   2.356   3.889   2.116 -0.3796  1.2259  1.9982
   63MOL   H30642590   2.572   3.832   2.200 -0.6531 -0.1023 -1.9685
   63MOL   H30742591   2.516   3.680   2.278 -0.8855 -0.0403  0.2339
   63MOL   N30842592   2.348   3.880   2.422 -0.0487 -0.6143  0.1369
   63MOL   C30942593   2.323   3.951   2.547 -0.8267  0.6281 -0.0838
   63MOL   C31042594   2.171   3.959   2.576  0.3305  0.0746 -0.0148
   63MOL   C31142595   2.140   4.027   2.707 -0.6236  0.0712  0.2229
   63MOL   C31242596   1.986   4.003   2.737 -0.4191 -0.0664  0.8286
   63MOL   C31342597   1.950   4.067   2.877 -0.9934 -0.3290  0.1401
   63MOL   C31442598   1.815   4.025   2.927  0.3432  0.3788  0.5871
   63MOL   C31542599   1.696   4.073   2.846  0.7645 -0.4815  0.3399
   63MOL   C31642600   1.568   4.008   2.894 -0.2389  0.3313 -0.0618
   63MOL   C31742601   1.447   4.050   2.804  0.0207  0.9027  0.0680
   63MOL   C31842602   1.317   3.962   2.823  1.0372 -0.5652  0.6405
   63MOL   C31942603   1.262   3.975   2.967  0.4425 -0.8758 -0.3028
   63MOL   O32042604   1.221   4.085   3.010 -0.1094 -0.2851  0.1537
   63MOL   H32142605   2.272   3.834   2.374 -1.9772  1.8255  0.7741
   63MOL   H32242606   2.359   4.051   2.524 -1.0070  0.1925 -2.4014
   63MOL   H32342607   2.371   3.896   2.628 -1.2912  0.1679 -0.1151
   63MOL   H32442608   2.133   3.858   2.589  0.4339  0.1970  1.2792
   63MOL   H32542609   2.118   4.001   2.490 -1.0122  1.3653  1.4031
   63MOL   H32642610   2.207   3.987   2.782 -0.4768  1.0026  0.5968
   63MOL   H32742611   2.160   4.133   2.694 -0.6476 -0.0557 -0.9036
   63MOL   H32842612   1.958   3.898   2.734  0.4643 -0.2851 -0.0316
   63MOL   H32942613   1.928   4.052   2.659 -0.1844  1.7801  1.7569
   63MOL   H33042614   1.958   4.176   2.880  2.0010 -0.5159  0.1582
   63MOL   H33142615   2.025   4.033   2.949 -0.1359  0.2127 -0.4925
   63MOL   H33242616   1.809   3.920   2.901 -0.6330  0.8634 -1.2404
   63MOL   H33342617   1.790   4.030   3.033 -0.1968 -1.5523  0.5645
   63MOL   H33442618   1.703   4.051   2.740  0.6387 -0.4758  0.3298
   63MOL   H33542619   1.684   4.181   2.837  2.1722 -0.4978 -2.1133
   63MOL   H33642620   1.581   3.900   2.882  3.2571  1.0065 -3.2291
   63MOL   H33742621   1.542   4.032   2.997  0.2665  2.5776 -0.4297
   63MOL   H33842622   1.480   4.052   2.700  1.1597  2.3137  0.4390
   63MOL   H33942623   1.422   4.152   2.832 -2.2299  0.2418  0.6367
   63MOL   H34042624   1.333   3.859   2.792 -0.2952  0.3882 -3.5488
   63MOL   H34142625   1.237   3.992   2.757  1.4557  0.9030  0.7881
   63MOL   N34242626   1.245   3.869   3.035 -0.2269  0.0135  0.1007
   63MOL   C34342627   1.196   3.855   3.171 -0.2803 -1.1101 -0.4588
   63MOL   C34442628   1.308   3.791   3.254 -0.3020  0.3574  0.4243
   63MOL   C34542629   1.279   3.801   3.402 -0.5861  0.6936 -0.2471
   63MOL   C34642630   1.398   3.728   3.483 -0.2835 -0.0362  0.7750
   63MOL   C34742631   1.396   3.758   3.635  0.9524  0.0152 -0.5458
   63MOL   C34842632   1.462   3.647   3.720 -0.3074 -0.4605 -0.1260
   63MOL   C34942633   1.616   3.656   3.733 -0.0126  0.5393  0.0774
   63MOL   C35042634   1.676   3.537   3.805 -0.4033 -0.2230 -0.3033
   63MOL   C35142635   1.823   3.534   3.803  0.7213  0.2661  1.1488
   63MOL   C35242636   1.901   3.652   3.869  1.0242  0.4979  0.3410
   63MOL   C35342637   1.911   3.773   3.769  0.4296  0.4154 -0.0262
   63MOL   O35442638   1.977   3.755   3.665  0.7785 -0.5753 -0.2151
   63MOL   H35542639   1.294   3.787   3.003  0.3608  0.6729 -0.7320
   63MOL   H35642640   1.190   3.957   3.209  2.4702 -1.3068  0.5745
   63MOL   H35742641   1.102   3.799   3.170  0.2958 -2.1626  2.1341
   63MOL   H35842642   1.399   3.842   3.222  1.3273 -2.4762  0.3758
   63MOL   H35942643   1.330   3.689   3.224  1.8004  0.9506 -0.1099
   63MOL   H36042644   1.271   3.907   3.426  2.7839  0.7656  0.7821
   63MOL   H36142645   1.189   3.747   3.430  0.4955 -1.0636 -0.0900
   63MOL   H36242646   1.495   3.745   3.436  0.2505 -1.9696  1.1434
   63MOL   H36342647   1.379   3.624   3.459  2.1903 -0.0119 -1.6159
   63MOL   H36442648   1.289   3.754   3.655  1.2573 -0.5787  1.0539
   63MOL   H36542649   1.432   3.860   3.651  0.5742  0.1590 -0.5925
   63MOL   H36642650   1.427   3.657   3.823  3.0866 -1.6290  1.1946
   63MOL   H36742651   1.432   3.550   3.680  2.4420 -1.2605 -0.3333
   63MOL   H36842652   1.634   3.742   3.798 -1.3200  0.4568  0.5795
   63MOL   H36942653   1.672   3.671   3.641  0.9222  0.4628  0.6317
   63MOL   H37042654   1.653   3.534   3.912  0.6128 -0.5510 -0.0843
   63MOL   H37142655   1.647   3.438   3.770 -3.6146  0.7455 -0.5248
   63MOL   H37242656   1.864   3.514   3.704 -1.6629 -2.1981  0.6139
   63MOL   H37342657   1.852   3.439   3.849  0.5257 -0.2387  0.2399
   63MOL   H37442658   2.003   3.621   3.891  0.6530 -1.5275 -0.6497
   63MOL   H37542659   1.847   3.689   3.956 -0.0516  1.9017 -0.8887
   63MOL   N37642660   1.861   3.894   3.812  0.5956 -0.5270  0.2602
   63MOL   C37742661   1.886   4.021   3.745  0.0864 -0.3579  0.2074
   63MOL   C37842662   1.790   4.032   3.628  0.0614 -0.3405 -0.0787
   63MOL   C37942663   1.824   4.146   3.523  0.4873  0.4649 -0.1039
   63MOL   C38042664   1.726   4.160   3.393 -0.3221  0.9092  0.4750
   63MOL   C38142665   1.753   4.294   3.317  0.4666 -0.5099 -0.0908
   63MOL   C38242666   1.680   4.311   3.187  0.0200 -0.1051 -0.5254
   63MOL   C38342667   1.704   4.451   3.125  0.8611 -0.6734 -0.8304
   63MOL   C38442668   1.836   4.463   3.048  0.7130 -0.1576  0.7114
   63MOL   C38542669   1.862   4.605   2.991  0.2683 -0.1658 -0.4540
   63MOL   C38642670   1.995   4.616   2.911 -0.0633 -0.5665 -0.4188
   63MOL   C38742671   2.011   4.758   2.852 -0.1495  0.6122 -0.2935
   63MOL   O38842672   1.917   4.810   2.792  0.7439  0.3395 -0.4096
   63MOL   H38942673   1.814   3.899   3.901 -1.1250 -1.4788 -0.5690
   63MOL   H39042674   1.887   4.098   3.822  0.9025 -0.5552  0.3987
   63MOL   H39142675   1.983   4.018   3.695  0.3250 -0.7210  0.6933
   63MOL   H39242676   1.685   4.047   3.653  0.2432 -0.3725  0.7211
   63MOL   H39342677   1.791   3.933   3.583  1.9956 -0.6923  0.6756
   63MOL   H39442678   1.807   4.244   3.569  1.3558  1.2748 -1.4857
   63MOL   H39542679   1.925   4.128   3.486 -0.1522 -2.6623 -0.4294
   63MOL   H39642680   1.619   4.138   3.405 -0.6453  0.9747 -2.0645
   63MOL   H39742681   1.760   4.079   3.330 -2.4099 -0.1312  0.6333
   63MOL   H39842682   1.860   4.303   3.299  0.4779  2.7568  1.1747
   63MOL   H39942683   1.730   4.370   3.393  0.1778  0.3176 -0.9978
   63MOL   H40042684   1.720   4.238   3.116 -0.6271  1.6251 -2.7282
   63MOL   H40142685   1.576   4.282   3.203  0.0002 -1.5059 -2.8946
   63MOL   H40242686   1.670   4.534   3.188 -1.7444 -0.2293 -2.7513
   63MOL   H40342687   1.629   4.462   3.046 -0.3141  0.6260  0.4285
   63MOL   H40442688   1.915   4.446   3.121  3.9904 -0.4292 -2.7065
   63MOL   H40542689   1.849   4.388   2.969  1.8954 -2.2746  2.8497
   63MOL   H40642690   1.863   4.683   3.067  1.1839  0.6933 -1.3241
   63MOL   H40742691   1.781   4.631   2.923 -1.3032 -0.0013  1.4420
   63MOL   H40842692   2.010   4.545   2.830 -1.2404 -0.3569 -0.8208
   63MOL   H40942693   2.083   4.599   2.974 -0.1251 -2.5845 -0.8328
   63MOL   N41042694   2.127   4.824   2.886 -0.7890  0.3338 -0.0876
   63MOL   C41142695   2.166   4.957   2.841 -0.1624  0.5500 -0.2021
   63MOL   C41242696   2.318   4.952   2.844 -0.6894 -0.2481  0.4098
   63MOL   C41342697   2.376   5.083   2.806 -0.5770  0.3074 -0.0949
   63MOL   C41442698   2.355   5.206   2.901  0.6651 -0.7254 -0.3202
   63MOL   C41542699   2.428   5.336   2.859 -0.7036 -0.9739 -0.6388
   63MOL   C41642700   2.415   5.437   2.971 -0.3528 -0.4226  0.1968
   63MOL   C41742701   2.484   5.566   2.937 -0.4143 -0.5482 -0.7089
   63MOL   C41842702   2.447   5.686   3.032 -0.0357  0.1774 -0.3173
   63MOL   C41942703   2.514   5.820   3.016  0.0590 -0.0067 -0.0414
   63MOL   C42042704   2.640   5.835   3.097 -0.1047 -0.0873  0.1374
   63MOL   C42142705   2.730   5.954   3.071  0.1024 -0.4348  0.5643
   63MOL   O42242706   2.696   6.034   2.985  0.4516 -0.6614  0.0933
   63MOL   H42342707   2.189   4.772   2.946  1.6643  2.8333 -0.3564
   63MOL   H42442708   2.122   4.978   2.744 -3.3776  0.5270  1.2007
   63MOL   H42542709   2.139   5.030   2.918 -0.5102 -1.7208  1.8881
   63MOL   H42642710   2.360   4.875   2.779 -2.0106  0.1533 -0.9322
   63MOL   H42742711   2.352   4.927   2.944  0.5780  1.8070  0.5156
   63MOL   H42842712   2.484   5.082   2.788 -0.4779  0.3986  0.4883
   63MOL   H42942713   2.334   5.107   2.708  0.4195  1.4347 -0.2561
   63MOL   H43042714   2.383   5.181   3.003  0.1424 -1.3445 -0.3226
   63MOL   H43142715   2.249   5.224   2.916  0.4972 -1.8198 -0.1530
   63MOL   H43242716   2.379   5.366   2.767  0.1069 -0.3025 -0.8557
   63MOL   H43342717   2.535   5.316   2.853 -0.3346  0.5479  0.4473
   63MOL   H43442718   2.311   5.472   2.970 -0.2935 -0.2319  0.4711
   63MOL   H43542719   2.437   5.404   3.072  0.8525  1.5566  0.6150
   63MOL   H43642720   2.479   5.597   2.833 -0.5264 -0.8336 -0.7861
   63MOL   H43742721   2.590   5.544   2.926 -0.2795  0.0421 -0.6308
   63MOL   H43842722   2.342   5.696   3.005 -0.0502 -0.1461 -0.3790
   63MOL   H43942723   2.449   5.665   3.139 -3.0270 -0.1116 -0.2963
   63MOL   H44042724   2.443   5.900   3.035  0.4502  0.5225 -0.7603
   63MOL   H44142725   2.529   5.842   2.910 -0.5260  0.4822 -0.0235
   63MOL   H44242726   2.692   5.741   3.079  0.0834 -0.1496  0.9623
   63MOL   H44342727   2.611   5.834   3.202  2.6278  0.0428  0.9276
   63MOL   N44442728   2.851   5.963   3.141  0.2310 -0.3096  0.5773
   63MOL   C44542729   2.940   6.075   3.122  0.3895  0.2538 -0.1264
   63MOL   C44642730   3.065   6.056   3.214  0.5978  0.0082 -0.5283
   63MOL   C44742731   3.173   5.966   3.159  0.4449  0.2128  0.3693
   63MOL   C44842732   3.284   5.950   3.260  0.3778  0.5603 -0.3664
   63MOL   C44942733   3.403   5.878   3.201 -0.2317 -0.5335 -0.2970
   63MOL   C45042734   3.526   5.894   3.297  0.1103  0.7666 -0.2023
   63MOL   C45142735   3.639   5.802   3.250  0.3555 -0.2938  0.3876
   63MOL   C45242736   3.763   5.804   3.332 -0.4607 -0.0285 -0.0900
   63MOL   C45342737   3.856   5.688   3.290 -0.1954  0.4354 -0.7990
   63MOL   C45442738   3.917   5.705   3.150 -0.6468 -0.3879  0.2514
   63MOL   C45542739   4.009   5.600   3.096  0.2644 -0.7411 -0.3359
   63MOL   O45642740   4.027   5.493   3.154  0.1365 -0.1880 -0.2962
   63MOL   H45742741   2.888   5.885   3.195  0.7853  2.2850  4.1399
   63MOL   H45842742   2.965   6.075   3.016 -2.0915 -2.1343 -0.7791
   63MOL   H45942743   2.882   6.162   3.152 -0.7894 -0.6484  0.2884
   63MOL   H46042744   3.028   6.020   3.310  0.2074 -0.3904 -0.8242
   63MOL   H46142745   3.110   6.153   3.236 -0.3515 -0.0931  2.0230
   63MOL   H46242746   3.131   5.870   3.131 -0.8364  0.0884  2.5823
   63MOL   H46342747   3.215   6.017   3.073 -0.3665 -0.5918 -0.5138
   63MOL   H46442748   3.250   5.898   3.349 -0.4070  0.2256 -0.8562
   63MOL   H46542749   3.316   6.048   3.295 -2.1813  1.4462 -0.4117
   63MOL   H46642750   3.424   5.905   3.097  1.4636  1.4231  0.5072
   63MOL   H46742751   3.382   5.771   3.203  0.8077 -0.7329  0.4624
   63MOL   H46842752   3.566   5.995   3.283 -1.6216  1.7079  1.4501
   63MOL   H46942753   3.497   5.879   3.401 -1.7397 -2.8491 -1.1326
   63MOL   H47042754   3.658   5.823   3.145 -0.0666 -0.9051  0.1838
   63MOL   H47142755   3.587   5.706   3.252  0.3348 -0.2649  2.8999
   63MOL   H47242756   3.807   5.903   3.336 -1.1800  0.2176  2.4115
   63MOL   H47342757   3.730   5.782   3.434  0.9674 -0.1137  0.3692
   63MOL   H47442758   3.811   5.589   3.287 -1.3874  0.9187  0.4678
   63MOL   H47542759   3.934   5.676   3.365 -1.1586 -2.2692 -0.1997
   63MOL   H47642760   3.970   5.801   3.147 -3.7913  1.4121 -0.5695
   63MOL   H47742761   3.830   5.702   3.084 -1.3223  1.7456  0.9852
   63MOL   N47842762   4.075   5.622   2.978 -0.0271  0.2083 -0.3429
   63MOL   C47942763   4.152   5.524   2.901 -0.2731  0.5929 -0.2076
   63MOL   C48042764   4.305   5.527   2.946 -0.5575  0.6248  0.0361
   63MOL   C48142765   4.381   5.401   2.891 -0.8035  0.1730 -0.3740
   63MOL   C48242766   4.520   5.368   2.962 -0.5617 -0.1444 -0.3927
   63MOL   C48342767   4.639   5.464   2.932 -0.0438 -0.0118 -0.7842
   63MOL   C48442768   4.765   5.426   3.009 -0.4972  0.4291 -0.2941
   63MOL   C48542769   4.765   5.439   3.166 -0.6175  0.1670 -0.3709
   63MOL   C48642770   4.897   5.437   3.240  0.0642 -0.1654  0.6135
   63MOL   C48742771   5.002   5.340   3.190  0.0658 -0.1663 -0.5803
   63MOL   C48842772   4.957   5.193   3.190 -1.0910  0.3687  0.6941
   63MOL   C48942773   4.927   5.131   3.328  0.2266  0.1234 -0.0796
   63MOL   O49042774   4.974   5.175   3.435 -0.3041  0.4283 -0.4272
   63MOL   H49142775   4.077   5.719   2.952 -0.8178  0.9204  2.0669
   63MOL   H49242776   4.107   5.430   2.933 -2.0943  1.2650 -0.7461
   63MOL   H49342777   4.135   5.533   2.793  0.7020 -1.7839 -0.5996
   63MOL   H49442778   4.301   5.508   3.053  3.2808 -0.0241  0.1267
   63MOL   H49542779   4.354   5.623   2.929 -0.0574 -0.3047 -4.2013
   63MOL   H49642780   4.317   5.314   2.906 -0.3338  0.1336  1.4446
   63MOL   H49742781   4.400   5.406   2.783  1.5935  2.1519  0.0971
   63MOL   H49842782   4.552   5.269   2.929 -1.5192  0.2030 -2.4767
   63MOL   H49942783   4.500   5.374   3.069 -3.2946 -0.7378 -0.8383
   63MOL   H50042784   4.607   5.563   2.965  0.6335  0.0723 -0.3886
   63MOL   H50142785   4.654   5.472   2.824 -0.7823  3.4247 -0.6949
   63MOL   H50242786   4.806   5.329   2.982  0.6817  0.7670  0.2291
   63MOL   H50342787   4.842   5.492   2.968  0.9854 -1.3660 -0.4474
   63MOL   H50442788   4.700   5.368   3.216 -2.9819  3.7003  1.7786
   63MOL   H50542789   4.723   5.534   3.198  0.5247  0.0917  1.4090
   63MOL   H50642790   4.933   5.540   3.238 -0.5565  0.0609  1.0649
   63MOL   H50742791   4.885   5.422   3.347  1.2521 -3.1879  0.3887
   63MOL   H50842792   5.084   5.343   3.262  0.3470  1.1139 -0.9340
   63MOL   H50942793   5.043   5.367   3.093 -1.6653 -1.9092 -1.8117
   63MOL   H51042794   5.034   5.134   3.140  1.0815  1.8661  2.1643
   63MOL   H51142795   4.874   5.163   3.126  0.3148 -2.2785  0.0190
   63MOL   N51242796   4.846   5.024   3.330  0.6615 -0.2265 -0.8609
   63MOL   C51342797   4.810   4.944   3.448  0.4846  0.8135 -0.7232
   63MOL   C51442798   4.911   4.829   3.478 -0.3383 -0.4480  0.2345
   63MOL   C51542799   4.936   4.735   3.355  0.2285  0.4141 -0.3511
   63MOL   C51642800   5.039   4.613   3.361  0.0180 -0.1087  0.3959
   63MOL   C51742801   5.088   4.555   3.225 -0.1753  0.4324  1.1021
   63MOL   C51842802   5.224   4.485   3.222  0.0704 -0.6155  0.2031
   63MOL   C51942803   5.207   4.348   3.294 -0.2107  0.3080  0.6057
   63MOL   C52042804   5.334   4.264   3.272  0.4667  0.4969 -0.1679
   63MOL   C52142805   5.331   4.132   3.350  0.0597 -0.5305 -0.0441
   63MOL   C52242806   5.439   4.027   3.319 -0.0116 -0.6235  0.7024
   63MOL   C52342807   5.438   3.966   3.178 -0.1768  0.1628  0.1606
   63MOL   O52442808   5.345   3.991   3.102  0.5315  0.4888  0.1350
   63MOL   H52542809   4.808   4.985   3.245  0.2571 -1.6676 -0.0372
   63MOL   H52642810   4.798   5.008   3.535  0.1703 -1.2351  0.7808
   63MOL   H52742811   4.710   4.900   3.438  1.6270 -1.8831 -0.6058
   63MOL   H52842812   4.895   4.786   3.576  0.7791  1.3342  1.2386
   63MOL   H52942813   5.010   4.876   3.484 -1.1758  1.2358  1.3763
   63MOL   H53042814   4.838   4.689   3.345  0.9531 -1.6118  1.5694
   63MOL   H53142815   4.955   4.800   3.269  0.2221  0.8474 -0.0273
   63MOL   H53242816   4.995   4.539   3.428 -1.3593  1.1042  0.8655
   63MOL   H53342817   5.127   4.655   3.411  3.3582 -2.7478 -3.0168
   63MOL   H53442818   5.085   4.635   3.150 -0.8026  1.0787  1.8127
   63MOL   H53542819   5.009   4.487   3.194 -1.2409  1.8480  0.6543
   63MOL   H53642820   5.233   4.476   3.113 -0.1480 -0.3144  0.1596
   63MOL   H53742821   5.302   4.547   3.267 -2.3868  2.4084  0.4803
   63MOL   H53842822   5.117   4.292   3.271  0.8456 -0.8298 -0.8582
   63MOL   H53942823   5.207   4.358   3.403  1.8363  0.2251  0.6228
   63MOL   H54042824   5.330   4.244   3.165  0.0604 -0.3491  0.0063
   63MOL   H54142825   5.419   4.326   3.300 -0.9785  2.1128  0.7076
   63MOL   H54242826   5.239   4.083   3.317  1.7240 -1.5965 -3.3521
   63MOL   H54342827   5.319   4.152   3.456 -1.3092  0.9480 -0.4651
   63MOL   H54442828   5.446   3.941   3.386  0.4174 -0.3081  1.0662
   63MOL   H54542829   5.534   4.078   3.334  0.3541 -0.4632 -1.9339
   63MOL   N54642830   5.549   3.900   3.136  0.0202  0.2657 -0.3452
   63MOL   C54742831   5.591   3.866   3.001  0.9196 -0.3194 -0.3588
   63MOL   C54842832   5.649   3.984   2.923  0.2298 -0.2772  0.3406
   63MOL   C54942833   5.614   4.131   2.970 -0.2784  0.3465 -0.5770
   63MOL   C55042834   5.644   4.245   2.868 -0.0673  0.0214 -0.5790
   63MOL   C55142835   5.560   4.234   2.741  0.1312 -0.5540  0.2379
   63MOL   C55242836   5.552   4.369   2.672 -0.5426  0.4843  0.1673
   63MOL   C55342837   5.466   4.371   2.547 -0.3293 -0.3973 -0.3967
   63MOL   C55442838   5.445   4.522   2.500  0.5448 -0.0178  0.2423
   63MOL   C55542839   5.341   4.537   2.382  0.1253 -0.4149 -0.2064
   63MOL   C55642840   5.343   4.674   2.309  0.0660 -0.0248  0.2186
   63MOL   C55742841   5.473   4.713   2.222 -0.3679  0.6140 -0.1225
   63MOL   O55842842   5.574   4.644   2.218 -0.0442  0.2533  0.2514
   63MOL   H55942843   5.610   3.887   3.216  0.1826 -1.6327 -0.7742
   63MOL   H56042844   5.663   3.786   3.015 -0.0097 -1.7121 -3.3362
   63MOL   H56142845   5.499   3.839   2.949  0.5660 -0.4685  0.3304
   63MOL   H56242846   5.624   3.975   2.818 -0.3950 -0.0196  0.4631
   63MOL   H56342847   5.758   3.975   2.920  0.3677  1.6089 -2.7514
   63MOL   H56442848   5.512   4.139   3.007 -0.1758 -0.2778 -0.1401
   63MOL   H56542849   5.669   4.150   3.062 -0.4956 -1.5643 -0.0200
   63MOL   H56642850   5.750   4.239   2.844  0.3650  0.4546  1.1439
   63MOL   H56742851   5.616   4.334   2.925 -1.1391  0.4118 -1.6797
   63MOL   H56842852   5.458   4.205   2.763 -0.5637 -0.2128 -2.3149
   63MOL   H56942853   5.604   4.161   2.673  0.4724  1.0862 -1.3699
   63MOL   H57042854   5.508   4.437   2.745  0.5395  1.2633  0.1175
   63MOL   H57142855   5.643   4.427   2.658  0.3178 -0.2108  2.5787
   63MOL   H57242856   5.370   4.329   2.579 -0.1748 -0.6021 -0.1932
   63MOL   H57342857   5.509   4.299   2.477 -0.5837 -0.4069 -0.5425
   63MOL   H57442858   5.417   4.584   2.586  0.3411  0.4858 -0.1875
   63MOL   H57542859   5.540   4.556   2.460  0.9084 -0.8261  0.4110
   63MOL   H57642860   5.242   4.501   2.410 -0.1124  0.5737  0.2430
   63MOL   H57742861   5.368   4.467   2.302  0.3028 -0.6800  0.0877
   63MOL   H57842862   5.315   4.754   2.378  0.3538  0.4544 -0.2155
   63MOL   H57942863   5.258   4.661   2.242 -1.3263  1.0023  1.7448
   63MOL   N58042864   5.464   4.828   2.158 -0.6203 -0.3722 -0.3132
   63MOL   C58142865   5.587   4.895   2.105 -0.4754 -0.1335 -0.4315
   63MOL   C58242866   5.602   4.873   1.948  0.6882  0.4671  0.2322
   63MOL   C58342867   5.702   4.973   1.877 -0.1824 -0.2746  0.4783
   63MOL   C58442868   5.692   4.969   1.722  0.3207  0.4505 -0.4049
   63MOL   C58542869   5.795   5.054   1.653 -0.6963 -0.3116  0.6953
   63MOL   C58642870   5.799   5.060   1.494 -0.3249 -0.0339 -0.9618
   63MOL   C58742871   5.892   5.161   1.440 -0.3600 -0.2441  0.4295
   63MOL   C58842872   5.900   5.181   1.289 -0.1887  0.7993 -0.3719
   63MOL   C58942873   5.986   5.300   1.238 -0.5575 -0.5024  0.9120
   63MOL   C59042874   6.042   5.267   1.099  0.5125 -0.2598 -0.4281
   63MOL   C59142875   6.117   5.388   1.046 -0.0343 -0.2978  0.0479
   63MOL   O59242876   6.203   5.438   1.114  0.1143  0.1869 -0.2770
   63MOL   H59342877   5.380   4.881   2.174 -1.2724 -2.1381  2.3025
   63MOL   H59442878   5.559   4.998   2.128  2.3695  0.8352 -1.1759
   63MOL   H59542879   5.681   4.871   2.155 -0.5039  2.8001  1.1508
   63MOL   H59642880   5.508   4.882   1.893  0.2178  0.6497  1.0730
   63MOL   H59742881   5.630   4.769   1.929  1.0218  0.7470 -0.8747
   63MOL   H59842882   5.693   5.070   1.927 -0.4671 -0.1867  0.2616
   63MOL   H59942883   5.800   4.935   1.904  0.1405 -0.3508 -0.7701
   63MOL   H60042884   5.595   5.003   1.686 -0.2588  0.9766  1.5557
   63MOL   H60142885   5.698   4.863   1.699 -0.2930  0.1320  0.8113
   63MOL   H60242886   5.893   5.032   1.694  0.4028  0.6641 -1.3745
   63MOL   H60342887   5.775   5.153   1.696  0.6618  1.2768 -2.1690
   63MOL   H60442888   5.816   4.960   1.454  1.1144 -1.0693  2.0772
   63MOL   H60542889   5.703   5.097   1.459 -0.8385  1.1844  1.6145
   63MOL   H60642890   5.997   5.142   1.464  0.0333  1.3713  0.1070
   63MOL   H60742891   5.873   5.260   1.484  0.1048 -0.3752  0.9320
   63MOL   H60842892   5.944   5.093   1.241 -2.3028 -0.4052 -0.1576
   63MOL   H60942893   5.798   5.189   1.254 -0.2565 -0.2024 -0.4191
   63MOL   H61042894   6.067   5.302   1.311  0.9273  2.4876 -0.7271
   63MOL   H61142895   5.941   5.399   1.232  1.3854  0.2742 -1.7963
   63MOL   H61242896   5.965   5.230   1.031 -0.0187 -1.7774  0.9945
   63MOL   H61342897   6.116   5.190   1.121  0.5957  0.7889  3.2996
   63MOL   N61442898   6.078   5.426   0.920  0.3423 -0.1826  0.0750
   63MOL   C61542899   6.150   5.537   0.857 -0.2847 -0.5927  0.2440
   63MOL   C61642900   6.058   5.610   0.756 -0.3007  0.5861 -0.4726
   63MOL   C61742901   5.991   5.737   0.802 -0.6564  0.1712  0.0510
   63MOL   C61842902   5.915   5.822   0.706 -0.3787  0.0508  0.1657
   63MOL   C61942903   5.793   5.746   0.649  0.0964  0.3334 -0.4484
   63MOL   C62042904   5.717   5.799   0.527 -0.1368  0.0774  0.3616
   63MOL   C62142905   5.588   5.722   0.498  0.1815 -0.2145 -0.7605
   63MOL   C62242906   5.505   5.791   0.380  0.1307  0.3532 -0.4016
   63MOL   C62342907   5.374   5.726   0.333  0.6547  0.0800 -0.1871
   63MOL   C62442908   5.312   5.774   0.196  0.9953 -0.1697 -0.5950
   63MOL   C62542909   5.167   5.723   0.181 -0.2320  0.5703  0.5765
   63MOL   O62642910   5.153   5.612   0.136  0.4839 -0.7625 -0.0697
   63MOL   H62742911   6.000   5.384   0.871  0.5394 -2.9690  2.0222
   63MOL   H62842912   6.247   5.506   0.818 -1.0368 -1.3212 -1.0434
   63MOL   H62942913   6.179   5.609   0.935 -4.4402  0.2865  1.0929
   63MOL   H63042914   5.986   5.534   0.725 -0.8153  0.1676  1.6219
   63MOL   H63142915   6.133   5.635   0.681 -0.2871  1.6622 -0.1003
   63MOL   H63242916   5.938   5.725   0.897 -0.9039 -1.8140 -0.3140
   63MOL   H63342917   6.075   5.801   0.827 -1.4176  1.3569 -0.3699
   63MOL   H63442918   5.979   5.851   0.623  0.6192 -1.0086  0.5452
   63MOL   H63542919   5.872   5.907   0.758 -0.1394  1.2253 -1.5195
   63MOL   H63642920   5.725   5.737   0.733  1.6013  0.2634  0.7839
   63MOL   H63742921   5.828   5.645   0.625  1.6027  0.0596  2.6288
   63MOL   H63842922   5.686   5.902   0.547 -0.6364 -0.1479  0.7601
   63MOL   H63942923   5.777   5.774   0.439 -1.3081  0.7853 -0.6677
   63MOL   H64042924   5.531   5.730   0.591 -2.1588 -1.9164 -1.9956
   63MOL   H64142925   5.615   5.618   0.481  3.5797  0.7611 -1.6890
   63MOL   H64242926   5.489   5.893   0.414  2.1419  0.5056  0.1375
   63MOL   H64342927   5.570   5.797   0.293  1.0234  1.0461  0.3049
   63MOL   H64442928   5.307   5.733   0.419 -1.5502 -3.8244 -1.4403
   63MOL   H64542929   5.384   5.618   0.326 -0.0132  0.1510 -2.5051
   63MOL   H64642930   5.373   5.738   0.114 -0.9409 -0.9285 -1.7395
   63MOL   H64742931   5.314   5.883   0.194 -1.5699 -0.0501  0.8045
   63MOL   N64842932   5.066   5.801   0.205 -0.1464  0.0792  0.3394
   63MOL   C64942933   4.924   5.772   0.197 -0.1706 -0.1592  0.0021
   63MOL   C65042934   4.859   5.755   0.334  0.9854 -0.4111 -0.3653
   63MOL   C65142935   4.718   5.683   0.316 -0.4436  0.0967 -0.4984
   63MOL   C65242936   4.664   5.652   0.459 -0.6344 -0.7231  0.5063
   63MOL   C65342937   4.735   5.540   0.541  0.6049  0.7996 -0.1920
   63MOL   C65442938   4.841   5.586   0.640 -0.4961  0.3175  1.1837
   63MOL   C65542939   4.866   5.485   0.758 -0.4435 -0.2922 -0.2503
   63MOL   C65642940   4.979   5.524   0.849 -0.0715  0.0280 -0.0057
   63MOL   C65742941   5.114   5.497   0.785 -0.0299 -0.6362  0.5637
   63MOL   C65842942   5.226   5.469   0.887 -0.0659  1.4295 -0.1826
   63MOL   C65942943   5.294   5.597   0.933 -0.0831  0.0919 -0.4660
   63MOL   O66042944   5.348   5.665   0.853  0.1650 -0.8546 -0.5020
   63MOL   H66142945   5.088   5.899   0.214  0.6631 -0.2283  2.1369
   63MOL   H66242946   4.917   5.669   0.161  0.2250 -0.5373  1.0011
   63MOL   H66342947   4.864   5.833   0.129  0.3489  1.0384  0.6099
   63MOL   H66442948   4.841   5.848   0.389  1.3886 -0.0726 -0.8027
   63MOL   H66542949   4.924   5.687   0.390  0.1566 -0.1973  0.8921
   63MOL   H66642950   4.650   5.745   0.258  3.0501  2.9112 -1.8179
   63MOL   H66742951   4.720   5.587   0.264 -0.1808 -1.0236  1.5422
   63MOL   H66842952   4.562   5.619   0.441 -1.6253  3.2919 -2.0383
   63MOL   H66942953   4.666   5.748   0.510  0.2030 -1.0178  1.0372
   63MOL   H67042954   4.786   5.472   0.473  2.2363  0.6697  1.1470
   63MOL   H67142955   4.652   5.491   0.592  0.1857  1.5525 -0.1462
   63MOL   H67242956   4.929   5.603   0.578 -1.3280 -0.4796 -0.2561
   63MOL   H67342957   4.824   5.684   0.684  0.5726  0.7034  0.7423
   63MOL   H67442958   4.891   5.390   0.711  0.5437 -1.1920  2.0379
   63MOL   H67542959   4.771   5.470   0.808 -1.3428 -1.4852 -2.2640
   63MOL   H67642960   4.964   5.627   0.879 -0.5085  0.2826 -1.0977
   63MOL   H67742961   4.970   5.476   0.947  0.6061  0.5137  0.2978
   63MOL   H67842962   5.137   5.574   0.712  1.1029 -1.9849 -0.5290
   63MOL   H67942963   5.111   5.410   0.720 -2.2589 -1.4623  1.7203
   63MOL   H68042964   5.302   5.411   0.834 -0.0443  1.7322 -0.4917
   63MOL   H68142965   5.193   5.405   0.969 -2.1211  0.0937 -1.9833
   63MOL   H68242966   5.280   5.624   1.038  0.1619  0.8317 -0.6189
   64MOL     N142967   0.413   0.378   7.502  0.0134  0.2261  0.3656
   64MOL     C242968   0.488   0.272   7.574  0.0790 -0.3417 -0.6622
   64MOL     C342969   0.407   0.215   7.681 -0.6379  0.7501 -1.2103
   64MOL     C442970   0.490   0.146   0.062  0.5030 -1.2034  0.9738
   64MOL     C542971   0.532   7.713   0.016 -0.6847 -0.2537  0.2846
   64MOL     C642972   0.569   7.634   0.148  0.0810  0.5925 -0.0973
   64MOL     C742973   0.590   7.484   0.108  0.2158 -0.0584  0.1596
   64MOL     C842974   0.678   7.458   7.703 -0.0893  0.4521 -0.1697
   64MOL     C942975   0.694   7.306   7.684 -0.9375  0.2510  0.3630
   64MOL    C1042976   0.815   7.280   7.593 -0.0812 -0.7881  0.6143
   64MOL    C1142977   0.841   7.136   7.564 -0.0123 -0.6680 -0.2068
   64MOL    C1242978   0.873   7.046   7.680 -0.4114 -0.7316 -0.7038
   64MOL    O1342979   0.896   7.086   0.080 -0.5219  0.1697 -0.2893
   64MOL    H1442980   0.387   0.451   7.566  1.2057  0.7529  0.2567
   64MOL    H1542981   0.581   0.302   7.621 -0.0302 -2.5277  1.0352
   64MOL    H1642982   0.525   0.199   7.502  1.6956  0.9735 -1.1876
   64MOL    H1742983   0.323   0.158   7.641 -0.4134  0.8671 -1.8478
   64MOL    H1842984   0.359   0.297   0.021  0.6031  0.0753  0.9070
   64MOL    H1942985   0.571   0.211   0.096 -0.1883  1.0481 -1.5154
   64MOL    H2042986   0.435   0.134   0.155 -0.2297  0.2834  0.7333
   64MOL    H2142987   0.615   0.009   7.662  2.1788 -0.4641  3.5072
   64MOL    H2242988   0.450   7.657   7.687 -1.6897 -0.5328  2.4095
   64MOL    H2342989   0.494   7.648   0.226  0.7009 -0.9553  0.7915
   64MOL    H2442990   0.653   7.678   0.203  0.3263 -0.4739  0.3906
   64MOL    H2542991   0.630   7.437   0.197 -2.8529 -0.2814  1.4957
   64MOL    H2642992   0.496   7.430   0.094 -0.5123  1.1004  0.4985
   64MOL    H2742993   0.765   7.522   0.002  0.5212 -0.8678  2.0964
   64MOL    H2842994   0.632   7.506   7.617 -1.2408 -1.0732 -0.4310
   64MOL    H2942995   0.706   7.256   0.064  5.0105  0.3846 -0.1584
   64MOL    H3042996   0.604   7.266   7.637 -0.9087  0.4247  0.1619
   64MOL    H3142997   0.903   7.317   7.644 -0.0867 -0.6792  0.5461
   64MOL    H3242998   0.809   7.335   7.499  0.7958  1.1168  1.6579
   64MOL    H3342999   0.918   7.125   7.488  0.3330  0.9079 -0.1023
   64MOL    H3443000   0.748   7.106   7.516 -0.2803 -1.5277  0.8370
   64MOL    H3543001   0.330   0.336   7.463  0.5436 -1.1192  0.6676
   64MOL    N3643002   0.895   6.922   7.649 -0.1364  0.3347 -0.4762
   64MOL    C3743003   0.902   6.811   0.018  0.4720 -0.6906 -0.2002
   64MOL    C3843004   0.825   6.695   7.686  0.3094 -0.1936  0.6171
   64MOL    C3943005   0.823   6.576   0.069 -0.7411 -0.0384  0.9799
   64MOL    C4043006   0.777   6.444   0.008  0.7676 -0.5689  0.2909
   64MOL    C4143007   0.778   6.333   0.114  1.1121  0.3683 -0.3357
   64MOL    C4243008   0.725   6.201   0.056  0.0807  0.1631 -0.1910
   64MOL    C4343009   0.726   6.089   0.160 -0.0788  0.0956  0.3054
   64MOL    C4443010   0.657   6.115   0.301  0.9068 -0.1608 -0.2144
   64MOL    C4543011   0.626   5.980   0.378 -0.3117  0.1686 -0.2884
   64MOL    C4643012   0.750   5.900   0.421  0.1557  0.0308  0.1806
   64MOL    C4743013   0.844   5.971   0.524 -0.4712  0.0172  0.8277
   64MOL    O4843014   0.789   6.043   0.607  0.0456  0.6137 -0.5478
   64MOL    H4943015   0.905   6.893   7.552 -1.1135  0.8937 -0.7436
   64MOL    H5043016   1.008   6.783   0.019  0.8750  0.8178  0.1377
   64MOL    H5143017   0.871   6.845   0.116  2.5463 -1.4248  0.7406
   64MOL    H5243018   0.874   6.668   7.592  1.4267  1.2484  0.7755
   64MOL    H5343019   0.720   6.713   7.665  0.5130 -1.4576 -1.7452
   64MOL    H5443020   0.929   6.565   0.092 -0.0447  1.5200 -1.3726
   64MOL    H5543021   0.778   6.608   0.163 -3.6766 -1.0165 -0.0433
   64MOL    H5643022   0.835   6.408   7.639 -0.0231  0.6703 -0.8112
   64MOL    H5743023   0.672   6.461   7.697  0.6024 -1.5110  0.3348
   64MOL    H5843024   0.729   6.365   0.205 -0.6086 -0.6452 -0.8772
   64MOL    H5943025   0.878   6.317   0.153  0.7700  1.3083  0.9478
   64MOL    H6043026   0.619   6.221   0.040 -0.0016 -0.8644 -0.9822
   64MOL    H6143027   0.781   6.178   7.681  0.6049  0.6010  0.0174
   64MOL    H6243028   0.832   6.066   0.169  0.0194  0.2116 -0.5800
   64MOL    H6343029   0.697   5.992   0.122 -4.1358  1.2855  0.1511
   64MOL    H6443030   0.728   6.170   0.363  1.6350 -0.0065 -1.1759
   64MOL    H6543031   0.575   6.187   0.303 -0.1634 -1.3599 -0.0783
   64MOL    H6643032   0.558   5.918   0.320 -0.7584 -2.2148  2.6858
   64MOL    H6743033   0.575   6.007   0.471 -0.7327  0.6104 -0.6397
   64MOL    H6843034   0.808   5.868   0.334 -0.6968  1.6774 -1.0355
   64MOL    H6943035   0.716   5.812   0.474 -3.2863  1.4750  0.4587
   64MOL    N7043036   0.971   5.947   0.518 -0.0405  0.0744 -0.2904
   64MOL    C7143037   1.074   5.996   0.603  0.5764  0.1192  0.1728
   64MOL    C7243038   1.166   6.093   0.517  0.6659  0.2789  0.2705
   64MOL    C7343039   1.103   6.219   0.464  0.3517 -0.2289  0.1932
   64MOL    C7443040   1.203   6.312   0.395  0.1108  0.0354  0.8260
   64MOL    C7543041   1.143   6.436   0.331 -0.3839  0.2837  1.2204
   64MOL    C7643042   1.242   6.550   0.332  0.0066 -0.4261  0.1988
   64MOL    C7743043   1.172   6.673   0.273  0.5762 -0.0494  0.3137
   64MOL    C7843044   1.233   6.811   0.305 -0.0745 -0.2891 -0.3258
   64MOL    C7943045   1.144   6.932   0.259 -0.3069 -0.5653 -0.6578
   64MOL    C8043046   1.194   7.070   0.312 -0.3504 -0.2665  1.2919
   64MOL    C8143047   1.258   7.175   0.215 -0.1441  0.2464  0.2291
   64MOL    O8243048   1.378   7.201   0.227 -0.5452  0.5211  0.3409
   64MOL    H8343049   1.001   5.877   0.452 -0.1102  0.8715 -1.1694
   64MOL    H8443050   1.029   6.040   0.692  2.2197 -1.2366  1.7035
   64MOL    H8543051   1.133   5.909   0.632 -3.1560 -2.2780  0.8347
   64MOL    H8643052   1.226   6.030   0.452 -0.9646 -0.5433 -0.4752
   64MOL    H8743053   1.232   6.133   0.594  1.1766 -0.1731  0.0674
   64MOL    H8843054   1.019   6.198   0.398  0.1996 -2.0322  0.9275
   64MOL    H8943055   1.050   6.270   0.545  1.7745  1.1496  0.2797
   64MOL    H9043056   1.270   6.251   0.334 -0.4067  0.0824  0.2028
   64MOL    H9143057   1.271   6.347   0.472  1.6464 -1.4091  0.1483
   64MOL    H9243058   1.059   6.469   0.392 -0.8416  0.4035  0.5407
   64MOL    H9343059   1.096   6.425   0.233  0.6015  2.1382  0.5102
   64MOL    H9443060   1.290   6.574   0.427 -1.6446  2.2057  0.4235
   64MOL    H9543061   1.321   6.523   0.262 -2.0831 -0.0658 -2.3861
   64MOL    H9643062   1.068   6.676   0.306  1.1004 -0.0115  1.9952
   64MOL    H9743063   1.160   6.666   0.165  1.5570 -0.5007  0.2317
   64MOL    H9843064   1.236   6.812   0.414  0.0684  2.0543 -0.3233
   64MOL    H9943065   1.335   6.820   0.267 -0.4318  1.3699 -0.9601
   64MOL   H10043066   1.039   6.916   0.283 -0.2782 -1.9138 -1.4405
   64MOL   H10143067   1.147   6.943   0.151  0.1493 -0.3756 -0.6276
   64MOL   H10243068   1.258   7.064   0.400  1.1924  0.3674  0.2436
   64MOL   H10343069   1.108   7.123   0.353 -0.8504  0.1549 -0.2763
   64MOL   N10443070   1.181   7.227   0.118  0.3008  0.2752 -0.0087
   64MOL   C10543071   1.237   7.315   0.017  1.1039  0.5307 -0.3321
   64MOL   C10643072   1.230   7.249   7.599 -0.2268 -0.5091  0.6487
   64MOL   C10743073   1.277   7.344   7.487  0.5459  0.4491  0.2352
   64MOL   C10843074   1.251   7.298   7.341  0.4479  0.0395 -0.1480
   64MOL   C10943075   1.105   7.316   7.303  0.1728 -0.2364 -0.2008
   64MOL   C11043076   1.078   7.288   7.156  0.6933  0.7193 -0.0404
   64MOL   C11143077   0.926   7.292   7.110 -0.2369  0.0875  0.7130
   64MOL   C11243078   0.822   7.200   7.183 -0.3512  0.0531 -0.2602
   64MOL   C11343079   0.695   7.161   7.106 -0.2229 -0.6431  0.3785
   64MOL   C11443080   0.617   7.034   7.162 -0.2111  0.0008  1.2091
   64MOL   C11543081   0.551   7.075   7.292 -0.3077  0.3849 -0.0261
   64MOL   O11643082   0.525   7.187   7.322 -0.1038 -0.2762  1.1750
   64MOL   H11743083   1.084   7.202   0.112  0.9219 -2.1333 -0.4317
   64MOL   H11843084   1.173   7.403   0.022 -0.1397 -0.4481  1.4118
   64MOL   H11943085   1.334   7.354   0.049  0.6755  2.6090 -1.4475
   64MOL   H12043086   1.127   7.216   7.582 -0.5465  0.6932  0.2090
   64MOL   H12143087   1.295   7.162   7.609 -1.2257 -1.1667  1.6366
   64MOL   H12243088   1.240   7.445   7.508  1.5672  0.8354  0.1816
   64MOL   H12343089   1.385   7.347   7.501  0.5704  1.2546 -0.1366
   64MOL   H12443090   1.285   7.195   7.327  1.8655  0.7773 -2.2966
   64MOL   H12543091   1.315   7.353   7.273 -0.8982  0.0289 -1.4553
   64MOL   H12643092   1.070   7.412   7.341  2.3934  1.1178 -1.5061
   64MOL   H12743093   1.052   7.233   7.351 -1.0709  0.4372 -0.3725
   64MOL   H12843094   1.133   7.359   7.095 -0.1849  0.3925 -1.2062
   64MOL   H12943095   1.128   7.193   7.138  1.1330  0.7396  0.9873
   64MOL   H13043096   0.936   7.279   7.002  1.2173  0.2974  0.8121
   64MOL   H13143097   0.890   7.394   7.123 -2.0607 -0.3184 -1.0141
   64MOL   H13243098   0.875   7.110   7.214  0.0716  0.0761 -0.9071
   64MOL   H13343099   0.799   7.255   7.275 -1.8665 -0.2017 -0.4909
   64MOL   H13443100   0.722   7.133   7.005  0.2791 -2.5263  1.0229
   64MOL   H13543101   0.633   7.250   7.097 -0.0627 -0.7745 -2.2637
   64MOL   H13643102   0.681   6.945   7.167 -1.6510 -1.2287 -1.2157
   64MOL   H13743103   0.537   7.010   7.092  1.7134  1.3760 -1.5760
   64MOL   N13843104   0.522   6.972   7.378  0.0854  0.3778  0.1264
   64MOL   C13943105   0.451   6.983   7.510  0.1800  0.5176  0.0241
   64MOL   C14043106   0.505   6.872   7.602 -0.3919  0.1941  0.8336
   64MOL   C14143107   0.425   6.853   0.013 -0.5536  0.7207 -0.9418
   64MOL   C14243108   0.469   6.733   0.092 -0.1671 -0.6321  0.3002
   64MOL   C14343109   0.374   6.679   0.186  0.1536  0.0186  0.3056
   64MOL   C14443110   0.435   6.558   0.270 -0.4023 -0.0882 -0.2236
   64MOL   C14543111   0.320   6.481   0.336  0.4801  0.5578 -0.8270
   64MOL   C14643112   0.262   6.542   0.463  0.5225  0.2585 -0.2359
   64MOL   C14743113   0.363   6.540   0.580  0.4876 -0.4443 -0.2507
   64MOL   C14843114   0.332   6.613   0.709  0.7200 -0.3791 -0.1136
   64MOL   C14943115   0.239   6.539   0.809  0.2658  0.0033 -0.7693
   64MOL   O15043116   0.187   6.435   0.768 -0.2852  0.2705  0.3665
   64MOL   H15143117   0.551   6.883   7.341  0.1925  1.7375 -3.2261
   64MOL   H15243118   0.475   7.074   7.565 -0.4813  1.1857 -0.7787
   64MOL   H15343119   0.342   6.975   7.502 -0.0173  2.2532  0.6856
   64MOL   H15443120   0.605   6.906   7.629  0.1696 -1.6130  1.1400
   64MOL   H15543121   0.505   6.779   7.545  0.9689  1.7396 -1.7945
   64MOL   H15643122   0.440   6.944   0.071  3.8934  1.6158 -3.2836
   64MOL   H15743123   0.326   6.837   7.685 -0.2745  0.8886 -1.6377
   64MOL   H15843124   0.566   6.751   0.138 -1.1591 -1.5324  2.8479
   64MOL   H15943125   0.487   6.660   0.013 -1.2996 -0.0980 -0.4619
   64MOL   H16043126   0.280   6.649   0.140 -0.0017 -0.4278  0.9080
   64MOL   H16143127   0.346   6.758   0.256  0.3901 -0.1919  0.6390
   64MOL   H16243128   0.486   6.494   0.198 -0.0542 -0.9061  0.7372
   64MOL   H16343129   0.508   6.594   0.342  0.0426 -1.7911  0.1922
   64MOL   H16443130   0.349   6.378   0.358  0.7537  1.1794  1.8497
   64MOL   H16543131   0.235   6.467   0.269 -1.9029 -0.8918  2.3635
   64MOL   H16643132   0.229   6.643   0.441  1.0876  0.4568 -0.1626
   64MOL   H16743133   0.174   6.487   0.498  0.3434  0.4094 -0.4511
   64MOL   H16843134   0.460   6.578   0.549  0.4989  0.1056  0.4729
   64MOL   H16943135   0.385   6.435   0.602 -0.4248 -0.9002 -1.4135
   64MOL   H17043136   0.297   6.716   0.700 -0.1539 -0.6858 -0.3142
   64MOL   H17143137   0.432   6.633   0.746 -0.0003  0.0496  1.6727
   64MOL   N17243138   0.194   6.606   0.916  0.0684  0.0178 -0.2476
   64MOL   C17343139   0.076   6.565   0.996 -0.5204 -0.3714  0.0152
   64MOL   C17443140   0.109   6.432   1.077 -0.2464  0.9885  0.2993
   64MOL   C17543141   7.708   6.375   1.167  0.0288  0.0091  0.1987
   64MOL   C17643142   0.034   6.242   1.225  0.6849  0.2946 -0.9074
   64MOL   C17743143   0.132   6.250   1.343 -0.4655  0.1437  0.0031
   64MOL   C17843144   0.068   6.291   1.480  0.0660 -0.0718 -0.0516
   64MOL   C17943145   7.711   6.166   1.533  0.2132 -0.2933  0.4635
   64MOL   C18043146   7.659   6.182   1.670 -0.0158 -0.2325  0.2285
   64MOL   C18143147   7.593   6.058   1.739  0.1184  0.2318  0.1943
   64MOL   C18243148   7.540   6.072   1.881 -0.6557  0.0023  0.5658
   64MOL   C18343149   7.406   6.141   1.895 -0.1748  0.4240 -0.5556
   64MOL   O18443150   7.397   6.265   1.884  0.4929 -0.0488 -0.4175
   64MOL   H18543151   0.234   6.695   0.942 -2.3588  1.1998 -0.4241
   64MOL   H18643152   0.046   6.637   1.073 -4.4110 -1.8122 -0.0152
   64MOL   H18743153   7.706   6.555   0.930  1.0823  0.0133 -2.1801
   64MOL   H18843154   0.195   6.455   1.141  0.6618  0.7393 -0.8203
   64MOL   H18943155   0.134   6.349   1.010 -0.8832  0.1962  1.0203
   64MOL   H19043156   7.666   6.449   1.234 -3.2020 -0.5287 -1.1578
   64MOL   H19143157   7.618   6.349   1.111  0.4050 -1.2808  0.1679
   64MOL   H19243158   0.079   6.177   1.150  2.0293 -0.4802  0.5418
   64MOL   H19343159   7.662   6.188   1.260 -0.3591  2.0490 -0.7544
   64MOL   H19443160   0.204   6.327   1.314 -0.6148  0.4596  0.4781
   64MOL   H19543161   0.189   6.158   1.361  0.1001  0.4867 -0.0282
   64MOL   H19643162   0.144   6.326   1.551  2.6779 -1.4846 -2.0848
   64MOL   H19743163   7.714   6.373   1.461  0.1798 -0.1965 -1.0005
   64MOL   H19843164   0.051   6.072   1.527  0.1080 -0.4046  1.1291
   64MOL   H19943165   7.619   6.162   1.476  0.8976 -0.8788 -0.6202
   64MOL   H20043166   0.030   6.217   1.726 -0.7399  2.1488 -0.0930
   64MOL   H20143167   7.588   6.265   1.678 -0.6358 -0.6612 -0.7216
   64MOL   H20243168   7.672   5.984   1.748  0.1196  0.1217 -0.6654
   64MOL   H20343169   7.512   6.021   1.676 -0.0532  0.0040  0.5500
   64MOL   H20443170   7.618   6.124   1.937  1.6681  0.3532 -2.8664
   64MOL   H20543171   7.541   5.973   1.925  1.4545 -0.2892 -0.1065
   64MOL   N20643172   7.301   6.064   1.923  0.4318  0.0139 -0.6970
   64MOL   C20743173   7.169   6.114   1.961 -0.1833  0.1269  1.0645
   64MOL   C20843174   7.067   6.100   1.843  0.6763 -0.0722  0.0607
   64MOL   C20943175   6.933   6.153   1.894 -0.2662  0.5930  0.4209
   64MOL   C21043176   6.824   6.116   1.798  0.4539 -0.6106 -0.4034
   64MOL   C21143177   6.786   5.968   1.766  0.3885  0.6678  0.0347
   64MOL   C21243178   6.726   5.960   1.629  0.0191  1.1323  0.5601
   64MOL   C21343179   6.675   5.815   1.599  0.5132  0.8534  0.4123
   64MOL   C21443180   6.629   5.806   1.449 -0.2570 -0.3504 -0.4648
   64MOL   C21543181   6.558   5.676   1.420  0.4527  0.2206  0.1153
   64MOL   C21643182   6.503   5.659   1.270 -0.2563 -0.3287 -0.9889
   64MOL   C21743183   6.605   5.620   1.165  0.5977 -1.3320 -0.1522
   64MOL   O21843184   6.703   5.551   1.177  0.3550 -0.1939 -0.8450
   64MOL   H21943185   7.314   5.965   1.939 -0.7247 -0.2344 -1.2788
   64MOL   H22043186   7.175   6.221   1.980  1.8223 -0.3245  3.1630
   64MOL   H22143187   7.127   6.070   2.051  2.1846 -0.1331  2.0808
   64MOL   H22243188   7.056   5.994   1.820  2.4879 -0.1750 -0.3472
   64MOL   H22343189   7.095   6.157   1.755  0.8197 -0.0775  0.1039
   64MOL   H22443190   6.916   6.113   1.993  0.9831  1.3674  0.9563
   64MOL   H22543191   6.948   6.260   1.909 -1.4136  0.8507 -0.1456
   64MOL   H22643192   6.848   6.172   1.707 -0.7148 -0.4854 -0.6381
   64MOL   H22743193   6.731   6.164   1.829  1.9150  2.6515 -0.8735
   64MOL   H22843194   6.707   5.936   1.835  0.1926  1.2245  0.0729
   64MOL   H22943195   6.866   5.896   1.783 -0.1367  0.7650  3.2906
   64MOL   H23043196   6.642   6.029   1.629 -2.0090 -1.2600 -0.1597
   64MOL   H23143197   6.800   5.980   1.551 -1.2554  1.2931 -0.6320
   64MOL   H23243198   6.592   5.803   1.669 -0.3061  0.3406 -0.6215
   64MOL   H23343199   6.745   5.735   1.622  1.4406  2.2238  2.4271
   64MOL   H23443200   6.575   5.898   1.423  1.4044  0.1151 -2.4396
   64MOL   H23543201   6.720   5.801   1.389 -0.4367  2.2460 -1.0378
   64MOL   H23643202   6.484   5.667   1.499 -0.4682 -0.7612 -0.8432
   64MOL   H23743203   6.623   5.590   1.437 -2.4823 -2.2220 -0.6274
   64MOL   H23843204   6.454   5.754   1.250  0.4424  0.2923  0.1991
   64MOL   H23943205   6.422   5.586   1.269 -1.2013  0.6919  0.4440
   64MOL   N24043206   6.584   5.686   1.049 -0.0025 -0.4217 -0.3470
   64MOL   C24143207   6.676   5.681   0.936  0.2210  0.4708  0.1361
   64MOL   C24243208   6.611   5.755   0.810  0.1083 -0.6749  0.1703
   64MOL   C24343209   6.688   5.883   0.763  0.5010 -0.0844  0.1576
   64MOL   C24443210   6.652   6.007   0.836  0.2162  0.1589 -0.3817
   64MOL   C24543211   6.698   6.021   0.978 -0.5178  0.3929  0.5539
   64MOL   C24643212   6.688   6.162   1.032  0.0703  0.3751  0.9344
   64MOL   C24743213   6.760   6.170   1.171 -0.0074 -0.7667  0.6390
   64MOL   C24843214   6.724   6.311   1.222  0.2493 -0.3238 -0.0242
   64MOL   C24943215   6.821   6.373   1.332 -0.1220  0.2274 -0.0497
   64MOL   C25043216   6.776   6.510   1.400 -0.8283  0.4488 -0.1777
   64MOL   C25143217   6.681   6.495   1.514 -0.3938 -0.2665  0.0436
   64MOL   O25243218   6.566   6.465   1.486  1.0229 -0.1135 -0.1448
   64MOL   H25343219   6.503   5.744   1.035 -0.6889 -1.2811 -0.0203
   64MOL   H25443220   6.708   5.580   0.912  0.5980  0.3801  1.0199
   64MOL   H25543221   6.755   5.741   0.982  0.8171 -0.4700  0.3463
   64MOL   H25643222   6.503   5.765   0.823  0.1244  0.5911 -0.5923
   64MOL   H25743223   6.629   5.685   0.728 -0.1395 -1.8354  1.0886
   64MOL   H25843224   6.794   5.857   0.760  0.0723 -1.9108  0.3199
   64MOL   H25943225   6.660   5.896   0.658 -2.7068 -0.3083  0.9352
   64MOL   H26043226   6.544   6.016   0.822 -0.0222  1.6030  2.1582
   64MOL   H26143227   6.700   6.090   0.782 -2.3917  1.7224 -0.3746
   64MOL   H26243228   6.805   6.000   0.978 -0.9935 -2.1580 -0.1928
   64MOL   H26343229   6.653   5.952   1.050  0.6257 -0.2295  0.6882
   64MOL   H26443230   6.747   6.226   0.966 -1.6657  0.3036 -0.7257
   64MOL   H26543231   6.588   6.205   1.018 -0.8118 -2.2969 -1.3975
   64MOL   H26643232   6.866   6.172   1.145 -0.1351  1.7017  0.1476
   64MOL   H26743233   6.748   6.088   1.241 -3.0108 -1.2114 -0.3250
   64MOL   H26843234   6.713   6.386   1.144  1.7931 -1.0059 -0.9144
   64MOL   H26943235   6.625   6.290   1.262 -0.9230 -0.8738 -3.1170
   64MOL   H27043236   6.922   6.388   1.293  0.4113 -3.5784 -0.4071
   64MOL   H27143237   6.843   6.306   1.416  1.8181  1.2380  0.2899
   64MOL   H27243238   6.728   6.575   1.327 -3.6241 -1.1603  0.1868
   64MOL   H27343239   6.862   6.565   1.440 -1.8561  1.1333  1.1353
   64MOL   N27443240   6.721   6.514   1.643  0.3498  0.3594 -0.6021
   64MOL   C27543241   6.623   6.515   1.751 -0.0816 -0.1994 -0.6281
   64MOL   C27643242   6.678   6.524   1.893 -1.0315 -0.8337  0.0454
   64MOL   C27743243   6.579   6.472   2.001  0.6492 -0.4541 -0.1505
   64MOL   C27843244   6.628   6.463   2.147  0.0147  0.4716  0.3859
   64MOL   C27943245   6.765   6.391   2.181  0.4557 -0.0612 -0.5172
   64MOL   C28043246   6.825   6.429   2.319  0.0455  0.9453  0.4439
   64MOL   C28143247   6.963   6.365   2.344  0.4822 -0.3593  0.1977
   64MOL   C28243248   7.028   6.401   2.476  0.1133  0.1743  0.0598
   64MOL   C28343249   6.963   6.331   2.598 -0.8217  0.1647 -0.3041
   64MOL   C28443250   6.992   6.424   2.719 -0.2299 -0.8158 -0.7130
   64MOL   C28543251   6.904   6.548   2.727  0.3982 -0.2958 -0.0542
   64MOL   O28643252   6.793   6.540   2.673 -0.4046  0.2806 -0.8305
   64MOL   H28743253   6.816   6.542   1.660 -0.0682  1.4063  0.0409
   64MOL   H28843254   6.554   6.430   1.751 -2.4156  1.6410  1.1273
   64MOL   H28943255   6.559   6.602   1.740 -0.0199  0.2031  1.8813
   64MOL   H29043256   6.713   6.623   1.921 -0.7169 -0.8726 -0.2093
   64MOL   H29143257   6.767   6.462   1.899  0.9255  2.0699  2.0789
   64MOL   H29243258   6.493   6.539   2.012  0.2024 -0.9372 -0.6621
   64MOL   H29343259   6.533   6.376   1.979  0.6027 -0.5326  0.2921
   64MOL   H29443260   6.551   6.411   2.204  0.6913 -2.5487 -1.3532
   64MOL   H29543261   6.641   6.565   2.184 -0.7161  0.4086  0.8364
   64MOL   H29643262   6.835   6.404   2.098  2.3643 -0.6198  0.9735
   64MOL   H29743263   6.740   6.285   2.185  1.7216 -0.3452  0.4199
   64MOL   H29843264   6.832   6.537   2.336  0.1896  0.8214  1.1604
   64MOL   H29943265   6.750   6.396   2.390  2.0162 -0.2144  2.0279
   64MOL   H30043266   7.023   6.397   2.259 -0.6131  3.1586  0.6746
   64MOL   H30143267   6.966   6.259   2.319  1.5838 -0.5961  1.2452
   64MOL   H30243268   7.135   6.380   2.474 -0.2783 -1.8964  0.0740
   64MOL   H30343269   7.037   6.510   2.474 -1.3446  0.3510  1.8920
   64MOL   H30443270   7.003   6.230   2.611 -0.3425  0.2222 -1.2795
   64MOL   H30543271   6.855   6.324   2.590 -0.6357 -0.0910 -2.8423
   64MOL   H30643272   7.097   6.452   2.717 -0.0484 -1.4952 -0.5999
   64MOL   H30743273   6.980   6.372   2.814  1.2281  0.3352  0.1215
   64MOL   N30843274   6.939   6.658   2.799 -0.7234 -0.1556 -0.4080
   64MOL   C30943275   6.864   6.783   2.811  1.1703 -0.0794 -0.2261
   64MOL   C31043276   6.943   6.896   2.739 -0.2393  0.0339 -0.8925
   64MOL   C31143277   6.955   6.879   2.590  0.6541  0.6625 -0.2173
   64MOL   C31243278   7.019   7.000   2.508  0.2921  0.5648 -0.2311
   64MOL   C31343279   7.003   6.980   2.354  0.5618 -0.0044 -0.0557
   64MOL   C31443280   7.088   6.869   2.292 -0.4549  0.0847 -0.3696
   64MOL   C31543281   7.042   6.819   2.151  0.4137  0.7753  0.5138
   64MOL   C31643282   7.065   6.672   2.123  0.4984 -0.1448 -0.5239
   64MOL   C31743283   7.024   6.641   1.985  0.3378  0.7039  0.5134
   64MOL   C31843284   7.096   6.520   1.931 -0.1065 -0.2653 -0.0090
   64MOL   C31943285   7.067   6.492   1.782 -0.7305 -0.3223  0.0608
   64MOL   O32043286   6.976   6.553   1.722  0.6797 -0.7438  0.0679
   64MOL   H32143287   7.029   6.666   2.844 -0.2454  1.1902 -1.5645
   64MOL   H32243288   6.855   6.807   2.917  0.2510  0.8674 -0.5147
   64MOL   H32343289   6.766   6.776   2.764  1.0119  0.0192  0.0878
   64MOL   H32443290   7.045   6.904   2.776 -0.7958  0.9098  0.4938
   64MOL   H32543291   6.888   6.987   2.761  0.7168  0.2713  0.6138
   64MOL   H32643292   7.014   6.791   2.563  0.3600  1.1441 -2.6121
   64MOL   H32743293   6.855   6.855   2.553  0.3590  0.6585  0.5782
   64MOL   H32843294   7.122   7.021   2.539 -0.2505 -0.5842  2.4146
   64MOL   H32943295   6.977   7.097   2.535  2.7006  1.2656  1.2316
   64MOL   H33043296   7.023   7.072   2.299  1.7756 -0.0948  0.2229
   64MOL   H33143297   6.903   6.945   2.329 -0.0799  1.2043  0.7910
   64MOL   H33243298   7.193   6.898   2.282 -0.3209 -0.5756 -0.9859
   64MOL   H33343299   7.078   6.784   2.359 -0.0959  2.5246  2.8983
   64MOL   H33443300   7.104   6.879   2.084  1.2604 -2.0122 -1.2718
   64MOL   H33543301   6.939   6.855   2.140  0.2096  0.1812  0.4910
   64MOL   H33643302   7.171   6.649   2.135  0.3884 -0.5572 -0.3359
   64MOL   H33743303   7.006   6.623   2.200 -0.5436  1.7089 -0.0970
   64MOL   H33843304   7.058   6.725   1.923  1.6981 -1.2000 -1.3810
   64MOL   H33943305   6.918   6.654   1.964 -0.1326 -0.3439  2.1649
   64MOL   H34043306   7.073   6.431   1.990 -0.4125 -0.5934 -0.6095
   64MOL   H34143307   7.203   6.532   1.942 -0.0801 -1.5108  1.2397
   64MOL   N34243308   7.141   6.406   1.712 -0.0819  0.3230 -0.0791
   64MOL   C34343309   7.131   6.381   1.565  0.0039  0.3431  0.2062
   64MOL   C34443310   7.224   6.273   1.510  0.2537  0.5509 -0.2199
   64MOL   C34543311   7.203   6.258   1.361  0.6688  0.2869  0.7281
   64MOL   C34643312   7.317   6.179   1.301 -0.4095  0.0826  0.7167
   64MOL   C34743313   7.295   6.136   1.162 -0.4426 -0.7518  0.4693
   64MOL   C34843314   7.420   6.091   1.091 -0.0341 -0.0974 -0.1003
   64MOL   C34943315   7.495   5.969   1.142  0.3640  0.3170  0.0368
   64MOL   C35043316   7.613   5.930   1.048  0.0246 -0.0715  0.1211
   64MOL   C35143317   7.689   5.818   1.109 -0.0903  0.0187 -0.4810
   64MOL   C35243318   0.074   5.754   1.016 -0.7211  1.1189 -0.0558
   64MOL   C35343319   0.176   5.662   1.075 -0.2590  0.1258 -0.4835
   64MOL   O35443320   0.165   5.629   1.191 -0.9357  0.2380  0.9079
   64MOL   H35543321   7.222   6.360   1.750  0.8694  0.9572 -1.3018
   64MOL   H35643322   7.028   6.351   1.543  0.6021 -1.2944 -0.3977
   64MOL   H35743323   7.147   6.478   1.518 -2.8173 -0.6243 -2.9072
   64MOL   H35843324   7.218   6.178   1.563  1.6761  0.6172  0.0767
   64MOL   H35943325   7.320   6.306   1.549  0.7588 -1.9362  0.7047
   64MOL   H36043326   7.107   6.217   1.330  1.7828 -0.7550 -1.4973
   64MOL   H36143327   7.213   6.350   1.302  1.5938 -0.0508  0.3428
   64MOL   H36243328   7.328   6.083   1.353  0.8274 -0.3259 -0.2732
   64MOL   H36343329   7.417   6.222   1.309 -0.0012 -0.8734  0.9612
   64MOL   H36443330   7.261   6.221   1.104  2.5718 -0.3953 -0.9128
   64MOL   H36543331   7.222   6.057   1.143 -0.5181  0.1120 -3.0796
   64MOL   H36643332   7.394   6.079   0.986 -0.2798 -2.4935  0.2234
   64MOL   H36743333   7.488   6.177   1.091 -0.2057  0.0427 -0.8225
   64MOL   H36843334   7.420   5.892   1.160  0.1635  0.1552 -1.3913
   64MOL   H36943335   7.532   5.990   1.242 -0.6629  1.3152  0.2315
   64MOL   H37043336   7.573   5.909   0.948 -1.3371 -1.0287  0.8486
   64MOL   H37143337   7.683   6.013   1.040  0.2721 -0.2921 -0.0346
   64MOL   H37243338   7.616   5.745   1.142  2.4647 -1.9303  1.0602
   64MOL   H37343339   0.019   5.849   1.203  0.5134  0.2965 -0.8610
   64MOL   H37443340   0.132   5.834   0.970 -0.9105  0.7812 -0.8796
   64MOL   H37543341   0.019   5.706   0.936  0.8093 -1.5689  0.4191
   64MOL   N37643342   0.269   5.627   0.990 -0.0863  0.1800  0.1436
   64MOL   C37743343   0.355   5.510   1.014  0.1192  0.4921  0.5953
   64MOL   C37843344   0.336   5.392   0.912 -0.5688 -0.1586 -0.1652
   64MOL   C37943345   0.439   5.286   0.929 -0.4039  0.3469  0.4757
   64MOL   C38043346   0.483   5.204   0.801  0.6959 -0.0484 -0.0683
   64MOL   C38143347   0.624   5.136   0.818  0.5323  0.1451 -0.4131
   64MOL   C38243348   0.635   5.027   0.710  0.1480  0.2543  0.7363
   64MOL   C38343349   0.781   4.973   0.723 -0.4363 -0.1600  0.0090
   64MOL   C38443350   0.827   4.882   0.605 -0.0223  0.3148 -0.1608
   64MOL   C38543351   0.953   4.809   0.645  0.7122  1.0651  0.0517
   64MOL   C38643352   1.024   4.725   0.543 -0.3795  0.6268  0.5788
   64MOL   C38743353   1.125   4.628   0.599  0.3526  0.1313 -0.1471
   64MOL   O38843354   1.131   4.604   0.720 -0.0583  0.5371 -0.6474
   64MOL   H38943355   0.266   5.671   0.900 -1.4400  1.4068  0.7883
   64MOL   H39043356   0.458   5.545   1.006  0.5578 -0.8171  0.2314
   64MOL   H39143357   0.335   5.473   1.114 -1.2324 -0.6256 -0.0628
   64MOL   H39243358   0.369   5.445   0.822  1.9333  0.9676  1.3475
   64MOL   H39343359   0.235   5.353   0.921 -1.2955  1.1450 -2.1679
   64MOL   H39443360   0.526   5.347   0.955 -2.3101  2.4236  2.1789
   64MOL   H39543361   0.418   5.224   1.016 -3.2483  0.7319  0.1262
   64MOL   H39643362   0.492   5.268   0.714  1.4073  0.5531  0.4403
   64MOL   H39743363   0.403   5.133   0.778  0.3525  0.9110 -1.9519
   64MOL   H39843364   0.637   5.090   0.917  1.0953 -1.5039 -1.2234
   64MOL   H39943365   0.688   5.224   0.809 -0.2608  0.8446  0.6744
   64MOL   H40043366   0.553   4.955   0.720  1.4653 -1.6479 -1.6026
   64MOL   H40143367   0.621   5.074   0.613 -0.8601 -2.0470 -0.2681
   64MOL   H40243368   0.797   4.924   0.819  0.2352 -1.4487 -0.7480
   64MOL   H40343369   0.859   5.049   0.725 -0.8212  0.3707 -2.5293
   64MOL   H40443370   0.755   4.805   0.577 -0.1058 -0.5644  2.3946
   64MOL   H40543371   0.837   4.944   0.516 -0.0346 -0.0170 -0.3954
   64MOL   H40643372   0.913   4.737   0.716  0.9727  0.6689 -0.1986
   64MOL   H40743373   1.019   4.876   0.700  1.5884  0.7187 -0.5588
   64MOL   H40843374   1.073   4.790   0.472 -0.9659  1.8066  1.2450
   64MOL   H40943375   0.941   4.668   0.502  3.1132 -5.4134  1.2475
   64MOL   N41043376   1.191   4.560   0.509  0.2227 -0.9967  0.3459
   64MOL   C41143377   1.313   4.475   0.535 -0.3267  0.1236  0.1367
   64MOL   C41243378   1.276   4.326   0.540 -0.8412  0.5265  0.0538
   64MOL   C41343379   1.210   4.281   0.663 -0.0647 -0.1133 -0.5366
   64MOL   C41443380   1.202   4.127   0.685 -0.1249  0.3419 -0.6861
   64MOL   C41543381   1.124   4.099   0.814 -0.2000 -0.4484 -0.1050
   64MOL   C41643382   1.106   3.949   0.853 -0.3529 -0.6955  0.2713
   64MOL   C41743383   1.008   3.875   0.762  0.1610 -0.3349 -0.6751
   64MOL   C41843384   1.037   3.723   0.755 -0.4151  0.7202  0.1979
   64MOL   C41943385   0.949   3.652   0.647 -0.0843  0.8510 -0.1022
   64MOL   C42043386   0.964   3.497   0.661 -0.1811 -0.2946 -0.2582
   64MOL   C42143387   1.101   3.447   0.609 -0.1829 -0.6848 -0.3562
   64MOL   O42243388   1.214   3.478   0.653  0.0725 -0.5710 -0.0591
   64MOL   H42343389   1.170   4.570   0.410  0.8938 -0.9214  0.2062
   64MOL   H42443390   1.384   4.496   0.454  0.2230  1.6883  0.9915
   64MOL   H42543391   1.372   4.508   0.620  1.1788 -0.1871 -0.7546
   64MOL   H42643392   1.368   4.269   0.526 -0.2368  0.9674  2.0514
   64MOL   H42743393   1.226   4.299   0.447  2.3159  0.5402 -1.7197
   64MOL   H42843394   1.251   4.316   0.757 -0.3349  1.5927 -1.0273
   64MOL   H42943395   1.114   4.333   0.663 -0.4634 -0.8263 -1.1727
   64MOL   H43043396   1.301   4.082   0.679  1.0563  2.6115  1.1336
   64MOL   H43143397   1.147   4.084   0.601  1.0307  0.6602 -1.6256
   64MOL   H43243398   1.025   4.141   0.803 -0.4590 -1.4213 -1.6060
   64MOL   H43343399   1.162   4.144   0.906 -0.3562 -1.4277  0.4527
   64MOL   H43443400   1.204   3.904   0.834 -0.5436 -2.1461  2.5442
   64MOL   H43543401   1.103   3.930   0.960 -0.8998 -2.9186 -0.1153
   64MOL   H43643402   1.017   3.906   0.658  0.5154  0.1701 -0.4983
   64MOL   H43743403   0.911   3.904   0.803 -0.9779 -1.8748 -2.2387
   64MOL   H43843404   1.143   3.711   0.736 -0.8077 -1.3727 -0.8222
   64MOL   H43943405   1.011   3.669   0.845  1.2397 -0.6186 -0.1108
   64MOL   H44043406   0.965   3.684   0.544 -0.0438 -0.9203 -0.6612
   64MOL   H44143407   0.843   3.673   0.663 -0.6746 -0.7002 -1.8018
   64MOL   H44243408   0.884   3.453   0.600 -0.5176 -0.7220  0.4875
   64MOL   H44343409   0.942   3.461   0.761 -1.0878  0.0301 -0.3363
   64MOL   N44443410   1.088   3.366   0.511 -0.0505 -0.4455 -0.2141
   64MOL   C44543411   1.195   3.289   0.450  0.7912  0.1427 -0.3118
   64MOL   C44643412   1.264   3.378   0.339  0.1886  0.5145 -0.4404
   64MOL   C44743413   1.381   3.296   0.278 -0.6248  0.1438  0.1869
   64MOL   C44843414   1.491   3.379   0.209  0.1682 -0.4415 -0.0659
   64MOL   C44943415   1.432   3.434   0.075 -0.2501 -0.7691 -0.4148
   64MOL   C45043416   1.536   3.510   7.701 -0.1059  0.5632 -0.2498
   64MOL   C45143417   1.477   3.588   7.578  0.5926 -0.0906 -0.6995
   64MOL   C45243418   1.554   3.723   7.546  0.1463 -0.6058  0.3509
   64MOL   C45343419   1.486   3.800   7.426 -1.0277 -0.6482 -0.1947
   64MOL   C45443420   1.505   3.735   7.288 -0.5714  0.2569 -0.7137
   64MOL   C45543421   1.476   3.833   7.182 -0.4198  0.3099  0.0103
   64MOL   O45643422   1.406   3.930   7.208 -0.4872 -0.1273  0.2920
   64MOL   H45743423   0.994   3.360   0.475 -0.4109  2.2495  0.2011
   64MOL   H45843424   1.256   3.247   0.530  0.6143 -0.1268 -0.3166
   64MOL   H45943425   1.134   3.215   0.398  0.6025  1.2437 -1.6677
   64MOL   H46043426   1.315   3.473   0.356  2.9293 -0.5546 -2.4028
   64MOL   H46143427   1.184   3.395   0.267 -0.9693 -1.4824  0.3339
   64MOL   H46243428   1.430   3.247   0.362  1.7206  0.7433 -0.7919
   64MOL   H46343429   1.342   3.205   0.233  0.0883  0.6417 -1.4827
   64MOL   H46443430   1.583   3.324   0.194  2.1659  2.1634  2.0880
   64MOL   H46543431   1.526   3.463   0.269  0.9237 -1.0194  0.2985
   64MOL   H46643432   1.350   3.504   0.093  0.2283 -0.2917 -0.1038
   64MOL   H46743433   1.404   3.359   0.001  1.0307  0.0980 -1.8084
   64MOL   H46843434   1.587   3.576   0.056 -0.3796 -0.6948  1.1324
   64MOL   H46943435   1.606   3.439   7.659 -0.7491  0.5480 -1.3207
   64MOL   H47043436   1.381   3.635   7.596  0.2885 -0.0618 -2.3026
   64MOL   H47143437   1.453   3.519   7.497 -0.9338 -0.5128  0.1106
   64MOL   H47243438   1.547   3.790   7.631  0.8152  0.0439 -0.1048
   64MOL   H47343439   1.654   3.692   7.516 -0.3590 -1.0233 -0.9812
   64MOL   H47443440   1.530   3.899   7.416 -0.0775 -1.1155 -0.6991
   64MOL   H47543441   1.378   3.813   7.438 -0.7256  0.0092  2.0162
   64MOL   H47643442   1.437   3.650   7.280 -0.4497 -0.0516  1.1184
   64MOL   H47743443   1.604   3.692   7.275 -0.8535 -0.1738 -1.4706
   64MOL   N47843444   1.521   3.797   7.062 -0.1375 -0.5591 -0.3792
   64MOL   C47943445   1.506   3.879   6.945  0.4884 -0.0014  0.4509
   64MOL   C48043446   1.446   3.808   6.822  0.2906 -0.4860 -0.0526
   64MOL   C48143447   1.308   3.745   6.852 -0.3069 -0.0983 -0.4511
   64MOL   C48243448   1.227   3.681   6.749 -0.4900  0.4366  0.1218
   64MOL   C48343449   1.094   3.609   6.792  0.5884 -0.1659  0.1834
   64MOL   C48443450   1.036   3.524   6.681  0.8849 -0.8692  0.2273
   64MOL   C48543451   0.899   3.468   6.724  0.1763  0.1577  0.0635
   64MOL   C48643452   0.781   3.570   6.732 -0.2296 -0.1250  0.1405
   64MOL   C48743453   0.740   3.636   6.598  0.0852  0.3885  0.6121
   64MOL   C48843454   0.608   3.706   6.606  0.4235 -0.3970 -0.5299
   64MOL   C48943455   0.491   3.607   6.595  0.2361  0.2479  0.3885
   64MOL   O49043456   0.512   3.485   6.592  0.3573 -0.1522 -0.3036
   64MOL   H49143457   1.554   3.702   7.055 -0.8409 -0.8523  0.2361
   64MOL   H49243458   1.457   3.976   6.951 -1.3569 -0.7999 -1.3811
   64MOL   H49343459   1.602   3.910   6.904  0.8995 -0.7849  0.8011
   64MOL   H49443460   1.515   3.730   6.790 -0.1516 -1.3155  0.9688
   64MOL   H49543461   1.447   3.875   6.736  1.9577 -0.9623 -0.4222
   64MOL   H49643462   1.305   3.675   6.935 -1.6905 -0.1232 -0.5047
   64MOL   H49743463   1.244   3.821   6.897 -0.3098 -0.4087  0.0644
   64MOL   H49843464   1.287   3.611   6.691 -2.1852 -2.5147  1.8063
   64MOL   H49943465   1.208   3.756   6.672 -0.9315 -0.1493 -0.3459
   64MOL   H50043466   1.022   3.684   6.824 -0.3750 -0.0766 -2.1318
   64MOL   H50143467   1.102   3.551   6.885  1.8105  1.9371  1.4208
   64MOL   H50243468   1.041   3.586   6.592 -1.5200 -1.2417 -0.1936
   64MOL   H50343469   1.099   3.437   6.662 -0.9167 -1.8690 -1.2812
   64MOL   H50443470   0.901   3.409   6.816  1.2585  0.4279  0.2148
   64MOL   H50543471   0.872   3.396   6.647  0.7083 -0.0638  0.0816
   64MOL   H50643472   0.694   3.519   6.776  2.0855 -3.6827  0.8480
   64MOL   H50743473   0.799   3.645   6.809 -1.4184  0.8624 -0.5310
   64MOL   H50843474   0.746   3.564   6.516 -2.0647 -1.2738  1.8473
   64MOL   H50943475   0.806   3.715   6.564 -1.2713  0.6947 -1.4035
   64MOL   H51043476   0.612   3.777   6.524  0.4044  1.9867  1.4709
   64MOL   H51143477   0.600   3.763   6.699 -0.7684 -1.2564 -0.0953
   64MOL   N51243478   0.367   3.664   6.585 -0.3629  0.4548 -0.5118
   64MOL   C51343479   0.253   3.586   6.541  0.0318  0.1240  0.1084
   64MOL   C51443480   0.188   3.494   6.640 -0.0287 -0.1989 -0.4650
   64MOL   C51543481   0.061   3.419   6.594  0.2202 -0.2087  0.0523
   64MOL   C51643482   0.023   3.315   6.702 -0.3935 -0.1084 -0.7476
   64MOL   C51743483   7.675   3.361   6.835 -0.6047  0.3071 -0.4590
   64MOL   C51843484   7.536   3.421   6.823 -0.1824 -0.1324  0.0870
   64MOL   C51943485   7.463   3.427   6.963 -0.4340  0.1345  0.4946
   64MOL   C52043486   7.528   3.517   7.067 -0.1376 -0.8240  0.2188
   64MOL   C52143487   7.534   3.671   7.025  0.6336  0.0011  0.0164
   64MOL   C52243488   7.600   3.761   7.134  0.0162  0.0472  0.1640
   64MOL   C52343489   0.029   3.715   7.174  0.4244  0.7064 -0.3047
   64MOL   O52443490   0.050   3.636   7.266  0.0538 -0.4103  0.4288
   64MOL   H52543491   0.360   3.764   6.600 -1.9371  0.2682  0.0397
   64MOL   H52643492   0.172   3.658   6.524 -1.2371 -1.5687 -1.1078
   64MOL   H52743493   0.279   3.536   6.448 -0.3592 -1.1606  0.6794
   64MOL   H52843494   0.157   3.548   6.730  0.7301 -2.4203  1.1790
   64MOL   H52943495   0.263   3.436   6.693  1.5769  0.0529 -2.4236
   64MOL   H53043496   7.700   3.494   6.578 -0.1498 -0.5816  0.0546
   64MOL   H53143497   0.084   3.364   6.503 -1.5682 -0.1197 -0.4672
   64MOL   H53243498   0.108   3.254   6.732  0.3280 -0.0933 -2.6528
   64MOL   H53343499   7.679   3.238   6.652  0.3630 -0.7845 -0.6141
   64MOL   H53443500   0.019   3.442   6.877 -1.2702  0.7544 -0.3707
   64MOL   H53543501   7.676   3.280   6.907  0.3000  1.3397  0.7086
   64MOL   H53643502   7.550   3.523   6.785 -1.1745  0.3176  0.9191
   64MOL   H53743503   7.471   3.362   6.758 -2.4735  0.4520  1.8008
   64MOL   H53843504   7.439   3.326   6.996 -1.8659  0.4664  0.5098
   64MOL   H53943505   7.366   3.472   6.943  0.8131  2.3125 -0.9623
   64MOL   H54043506   7.470   3.510   7.159 -2.5386 -0.5257 -1.2586
   64MOL   H54143507   7.626   3.477   7.094  0.2868  0.7426  1.0731
   64MOL   H54243508   7.429   3.696   7.008 -0.0123 -0.9346  2.4108
   64MOL   H54343509   7.580   3.675   6.926  0.9254 -0.6722  0.1257
   64MOL   H54443510   7.539   3.753   7.223 -0.4227  2.9680  0.1468
   64MOL   H54543511   7.590   3.863   7.098  0.7464 -0.5693 -1.8768
   64MOL   N54643512   0.126   3.771   7.099 -0.2593  0.0959 -0.0282
   64MOL   C54743513   0.272   3.756   7.119 -0.0979  0.3224  0.2023
   64MOL   C54843514   0.342   3.694   6.996  0.3436 -0.3576  0.6755
   64MOL   C54943515   0.496   3.697   7.005 -0.6249 -0.1175  0.4235
   64MOL   C55043516   0.550   3.848   7.026 -0.0074 -0.4187 -0.1573
   64MOL   C55143517   0.705   3.851   7.006 -0.2308 -0.0094  0.5365
   64MOL   C55243518   0.775   3.986   7.034  0.3238  0.7290 -0.4254
   64MOL   C55343519   0.857   4.037   6.911  0.0810 -0.9046  0.6753
   64MOL   C55443520   0.931   4.166   6.940 -0.1023 -0.0727 -0.7078
   64MOL   C55543521   0.999   4.227   6.810  0.2276  0.6297 -0.0656
   64MOL   C55643522   1.060   4.370   6.833  0.0490 -0.3441 -0.4291
   64MOL   C55743523   1.212   4.366   6.881  0.7790  0.3887 -0.3559
   64MOL   O55843524   1.300   4.373   6.795 -0.0439  0.4790 -0.1362
   64MOL   H55943525   0.097   3.822   7.017  0.8665 -0.6128 -0.8987
   64MOL   H56043526   0.311   3.856   7.139  0.8944  0.1455 -0.7757
   64MOL   H56143527   0.287   3.693   7.206  0.3990  1.7023  1.1222
   64MOL   H56243528   0.309   3.757   6.914  0.0766  0.4409  1.3885
   64MOL   H56343529   0.303   3.594   6.976 -1.3263  0.0813  1.5856
   64MOL   H56443530   0.525   3.643   7.095 -1.0091 -0.6342  0.2407
   64MOL   H56543531   0.545   3.649   6.920 -0.0222 -0.7062  1.0912
   64MOL   H56643532   0.522   3.884   7.125  1.3552  0.7641 -0.1951
   64MOL   H56743533   0.506   3.913   6.951  0.2998  0.3536  0.3323
   64MOL   H56843534   0.733   3.821   6.905  1.0642 -0.8702  1.1338
   64MOL   H56943535   0.758   3.780   7.070 -0.3041  0.5882  1.2725
   64MOL   H57043536   0.701   4.063   7.056  1.4070  2.1346 -1.5506
   64MOL   H57143537   0.834   3.964   7.122  1.1774 -1.8221 -1.5908
   64MOL   H57243538   0.791   4.052   6.825  0.4399 -0.3258  0.4950
   64MOL   H57343539   0.916   3.953   6.875 -0.2501 -0.3265 -1.3006
   64MOL   H57443540   0.855   4.238   6.969  1.6209  1.0126  1.2074
   64MOL   H57543541   0.993   4.159   7.029  0.0183  1.6008 -0.6517
   64MOL   H57643542   0.928   4.222   6.728 -0.0524  1.5924  0.1201
   64MOL   H57743543   1.078   4.154   6.788 -0.7962 -0.4848 -0.1061
   64MOL   H57843544   0.997   4.435   6.894 -1.5934 -0.4365 -1.9933
   64MOL   H57943545   1.062   4.420   6.736 -1.4049  1.1309  0.2641
   64MOL   N58043546   1.230   4.351   7.013 -1.1611  0.3818 -0.3615
   64MOL   C58143547   1.361   4.388   7.077  0.1021  0.0424 -0.1293
   64MOL   C58243548   1.433   4.276   7.133 -0.5211  0.7458  0.1024
   64MOL   C58343549   1.550   4.314   7.237  0.2943 -0.4868  0.1109
   64MOL   C58443550   1.608   4.200   7.314  0.4525  0.0034  0.0952
   64MOL   C58543551   1.742   4.223   7.376  0.5784  0.5499  0.0811
   64MOL   C58643552   1.731   4.320   7.494 -0.9401  0.5489  0.1992
   64MOL   C58743553   1.871   4.348   7.557  0.0787 -0.0895 -0.1778
   64MOL   C58843554   1.862   4.464   7.660  0.3128 -0.1371 -0.4491
   64MOL   C58943555   1.991   4.501   0.023 -0.2919  0.4229 -0.2260
   64MOL   C59043556   1.956   4.565   0.158 -0.0015 -0.8484 -0.3372
   64MOL   C59143557   2.084   4.610   0.230  0.1390 -0.8513  0.0072
   64MOL   O59243558   2.176   4.531   0.249 -0.1787 -0.0370 -0.5430
   64MOL   H59343559   1.152   4.323   7.071  0.7571  1.7006  2.9984
   64MOL   H59443560   1.424   4.439   7.005  0.9256 -0.3339  0.3281
   64MOL   H59543561   1.344   4.452   7.164  1.8455  1.2904 -0.6964
   64MOL   H59643562   1.468   4.218   7.048 -2.9386 -0.6629  0.0000
   64MOL   H59743563   1.367   4.210   7.190 -0.5396  0.1453 -0.6102
   64MOL   H59843564   1.638   4.361   7.194 -0.6683 -0.6426 -2.1230
   64MOL   H59943565   1.507   4.379   7.312  0.7127 -0.5695  0.4195
   64MOL   H60043566   1.617   4.116   7.245  0.8087 -0.3554  0.5714
   64MOL   H60143567   1.546   4.156   7.392 -3.4654  1.4826 -2.0407
   64MOL   H60243568   1.808   4.273   7.305  0.7917  1.1522  0.6942
   64MOL   H60343569   1.788   4.127   7.397 -2.0662 -0.6595  0.5632
   64MOL   H60443570   1.691   4.412   7.451 -1.4286 -0.2327 -1.0598
   64MOL   H60543571   1.655   4.281   7.561  2.2577 -2.1878  2.3739
   64MOL   H60643572   1.944   4.376   7.481 -1.7922  3.4124 -0.8102
   64MOL   H60743573   1.912   4.256   7.598  0.5364  0.3061  0.2494
   64MOL   H60843574   1.811   4.546   7.609  0.2407  0.2460  0.2412
   64MOL   H60943575   1.793   4.424   0.019  0.1096  0.4845 -0.3027
   64MOL   H61043576   2.054   4.571   7.683 -1.8992  0.4063 -2.0890
   64MOL   H61143577   2.052   4.412   0.036 -1.8556 -1.1093 -2.9820
   64MOL   H61243578   1.896   4.504   0.225 -0.8608 -0.4440 -0.7271
   64MOL   H61343579   1.905   4.657   0.129  2.8603  0.7081 -0.6081
   64MOL   N61443580   2.085   4.744   0.262 -0.4568  0.2068 -0.4381
   64MOL   C61543581   2.197   4.820   0.301  0.3252 -0.2276  0.0346
   64MOL   C61643582   2.159   4.887   0.435 -0.2251  0.3269 -0.2074
   64MOL   C61743583   2.174   4.801   0.560 -0.7681 -0.1566  0.4836
   64MOL   C61843584   2.149   4.877   0.698  0.1192 -0.0312 -0.1060
   64MOL   C61943585   2.139   4.774   0.818  0.3037 -0.0600 -0.3677
   64MOL   C62043586   2.274   4.707   0.843  0.3333  0.5012 -0.4779
   64MOL   C62143587   2.280   4.634   0.980 -0.8658 -0.0559  0.3568
   64MOL   C62243588   2.409   4.548   0.990  0.5092  0.3928  0.9386
   64MOL   C62343589   2.438   4.490   1.123  0.2870 -0.9390  0.6785
   64MOL   C62443590   2.358   4.367   1.154 -0.1917 -1.0242  0.0211
   64MOL   C62543591   2.386   4.235   1.085 -0.0603 -0.3967  0.1580
   64MOL   O62643592   2.430   4.231   0.969 -0.1541 -0.4597  0.4257
   64MOL   H62743593   2.002   4.801   0.263 -0.7934 -0.2143 -2.1486
   64MOL   H62843594   2.190   4.893   0.221 -2.1992 -1.9587 -1.4139
   64MOL   H62943595   2.295   4.772   0.296  0.2208 -0.7265  2.0914
   64MOL   H63043596   2.060   4.930   0.424 -0.9691 -1.1875  0.3565
   64MOL   H63143597   2.214   4.980   0.444  2.3321 -1.1420 -0.0109
   64MOL   H63243598   2.085   4.737   0.558  1.3685 -3.1772 -2.3956
   64MOL   H63343599   2.263   4.739   0.564 -1.0968 -0.5839  1.5544
   64MOL   H63443600   2.059   4.939   0.694 -0.1715 -0.4238  0.3170
   64MOL   H63543601   2.230   4.948   0.712 -2.2488  2.8902 -0.7419
   64MOL   H63643602   2.063   4.704   0.785  2.0362 -0.3839 -3.8012
   64MOL   H63743603   2.102   4.836   0.900 -0.0810  1.3383 -1.5833
   64MOL   H63843604   2.301   4.639   0.762  0.8892  1.2192 -0.9117
   64MOL   H63943605   2.344   4.791   0.843 -0.2760  1.0193 -1.1019
   64MOL   H64043606   2.199   4.562   0.990 -0.7505 -0.1133  0.8589
   64MOL   H64143607   2.284   4.711   1.057 -0.1569  1.4211 -1.1124
   64MOL   H64243608   2.401   4.466   0.918 -2.1563  1.0534  0.4580
   64MOL   H64343609   2.486   4.613   0.949  0.9430 -0.7934 -0.1716
   64MOL   H64443610   2.416   4.569   1.195  2.0768 -0.7347  1.0329
   64MOL   H64543611   2.544   4.463   1.132  0.7422  0.7731  0.6170
   64MOL   H64643612   2.253   4.392   1.135 -0.1040  1.5813  2.4342
   64MOL   H64743613   2.379   4.344   1.259 -0.4173 -2.4079 -0.2397
   64MOL   N64843614   2.357   4.123   1.156  0.2984 -0.1029  0.6648
   64MOL   C64943615   2.377   3.989   1.110 -0.3112  0.3585 -0.1736
   64MOL   C65043616   2.318   3.897   1.211 -0.5023 -0.0850 -0.0122
   64MOL   C65143617   2.402   3.881   1.341 -0.2416  0.3329 -0.1575
   64MOL   C65243618   2.524   3.794   1.321 -0.6823 -1.0901 -0.5681
   64MOL   C65343619   2.505   3.641   1.309  0.3993  0.0590 -0.2889
   64MOL   C65443620   2.632   3.568   1.268 -0.3774 -0.0843  0.1910
   64MOL   C65543621   2.742   3.556   1.381 -0.2893 -0.2898  0.6021
   64MOL   C65643622   2.863   3.484   1.327  0.0984 -0.7391  0.3324
   64MOL   C65743623   2.974   3.453   1.427 -0.2713 -0.0387 -0.9014
   64MOL   C65843624   3.080   3.343   1.382  0.0063 -0.1004  0.4649
   64MOL   C65943625   3.203   3.341   1.474 -1.0342  0.2095 -0.2392
   64MOL   O66043626   3.210   3.388   1.589  0.0043  0.5108 -0.8642
   64MOL   H66143627   2.323   4.138   1.251  0.6370 -1.9140  1.0882
   64MOL   H66243628   2.481   3.975   1.082 -0.3314  0.5608 -0.3543
   64MOL   H66343629   2.319   3.983   1.018  2.7855 -4.2025 -1.9563
   64MOL   H66443630   2.318   3.796   1.171  0.5825 -0.5432  1.1281
   64MOL   H66543631   2.218   3.927   1.243 -0.2409  1.9552 -1.0055
   64MOL   H66643632   2.435   3.981   1.368 -0.1705 -0.0554  1.2712
   64MOL   H66743633   2.341   3.845   1.424 -1.5244  0.7299 -0.9111
   64MOL   H66843634   2.585   3.806   1.410  1.3713 -1.7958 -1.8417
   64MOL   H66943635   2.589   3.828   1.239  2.1230  1.5409  2.6023
   64MOL   H67043636   2.433   3.619   1.230  0.7418  2.0723 -1.2084
   64MOL   H67143637   2.474   3.601   1.406  0.8750 -0.3621 -0.3120
   64MOL   H67243638   2.610   3.466   1.238  0.9178 -0.7070  1.2910
   64MOL   H67343639   2.680   3.619   1.184 -0.3733 -0.0568  0.2101
   64MOL   H67443640   2.700   3.505   1.468 -2.5146  0.1477 -0.1847
   64MOL   H67543641   2.771   3.648   1.432 -0.1009  0.1829 -0.3348
   64MOL   H67643642   2.833   3.385   1.294 -1.6696  0.1749 -0.8473
   64MOL   H67743643   2.905   3.538   1.241 -1.6682  1.0704  0.5820
   64MOL   H67843644   2.924   3.406   1.512  0.4791 -0.4224 -0.6642
   64MOL   H67943645   3.029   3.545   1.443 -1.3484  0.6664 -1.1799
   64MOL   H68043646   3.128   3.380   1.291 -3.4634  1.4193 -0.8517
   64MOL   H68143647   3.055   3.240   1.357 -1.5622  0.0584  1.3260
   64MOL   H68243648   3.292   3.303   1.425 -1.7288 -2.5031  0.5159
   65MOL     N143649   5.648   1.954   3.812 -0.4166 -0.9153  0.1210
   65MOL     C243650   5.536   2.036   3.860 -0.2165  1.0001 -0.3745
   65MOL     C343651   5.504   2.013   4.013 -0.4946 -0.4822  0.0128
   65MOL     C443652   5.391   2.108   4.053 -0.0877  0.0194  1.0956
   65MOL     C543653   5.372   2.124   4.206 -0.0145  0.3562  1.3427
   65MOL     C643654   5.321   2.265   4.240  0.4789 -0.2301 -0.0242
   65MOL     C743655   5.310   2.287   4.396  0.0017  0.0730 -0.5316
   65MOL     C843656   5.228   2.406   4.435  0.3428  0.1887 -0.0835
   65MOL     C943657   5.263   2.540   4.366  0.4720 -0.4830  0.1797
   65MOL    C1043658   5.174   2.668   4.386  0.7261  0.6047 -0.0768
   65MOL    C1143659   5.236   2.790   4.308 -0.1066 -0.2152 -0.4994
   65MOL    C1243660   5.344   2.861   4.385  0.0256 -0.5346  0.0414
   65MOL    O1343661   5.314   2.930   4.481 -0.1033  0.1818  0.5404
   65MOL    H1443662   5.736   1.958   3.861 -0.7227  0.5147  0.5802
   65MOL    H1543663   5.449   2.025   3.796  1.2078 -2.1041 -1.8959
   65MOL    H1643664   5.573   2.137   3.845  0.4673  0.7392 -0.4754
   65MOL    H1743665   5.589   2.025   4.080  0.6104  1.1672 -1.6423
   65MOL    H1843666   5.486   1.908   4.033  1.4592 -0.7142  0.6607
   65MOL    H1943667   5.426   2.206   4.022 -0.3251 -0.1492  0.2972
   65MOL    H2043668   5.301   2.087   3.995  1.3264 -1.7465 -0.5279
   65MOL    H2143669   5.468   2.113   4.257 -0.1400 -1.0881  1.2890
   65MOL    H2243670   5.316   2.040   4.246 -2.4845  0.3865 -1.8927
   65MOL    H2343671   5.228   2.269   4.183  1.1131 -0.3978 -1.0817
   65MOL    H2443672   5.377   2.346   4.193 -0.6868  0.5369 -0.1326
   65MOL    H2543673   5.263   2.202   4.444 -0.7219  1.3742  1.1171
   65MOL    H2643674   5.403   2.313   4.447 -0.8178 -0.2144  1.1316
   65MOL    H2743675   5.236   2.418   4.543  0.0934 -1.4125  0.1222
   65MOL    H2843676   5.128   2.376   4.405  0.2440  0.4119  0.0268
   65MOL    H2943677   5.356   2.577   4.408  0.0978  1.3251 -0.5356
   65MOL    H3043678   5.273   2.536   4.257 -0.6252 -0.0814  0.0536
   65MOL    H3143679   5.155   2.697   4.489 -0.1451  0.4043 -0.1748
   65MOL    H3243680   5.075   2.635   4.354  0.1222 -0.0851  2.4111
   65MOL    H3343681   5.162   2.869   4.290  0.8569  1.0014  0.7165
   65MOL    H3443682   5.276   2.764   4.210  0.4741 -0.7205 -0.1277
   65MOL    H3543683   5.675   1.991   3.721 -0.6955 -1.4417 -0.1770
   65MOL    N3643684   5.472   2.831   4.354  0.3411 -0.5453 -0.3460
   65MOL    C3743685   5.592   2.881   4.425  0.3646  0.1680  0.0615
   65MOL    C3843686   5.717   2.791   4.410  0.1138 -0.7486 -0.1972
   65MOL    C3943687   5.834   2.838   4.498  0.3144  1.3775  0.3011
   65MOL    C4043688   5.968   2.765   4.459 -0.1107 -0.2944  0.6051
   65MOL    C4143689   6.082   2.786   4.560  0.0997 -0.6793 -0.1556
   65MOL    C4243690   6.228   2.762   4.500 -0.6973 -0.6341 -0.3505
   65MOL    C4343691   6.336   2.786   4.603  0.2663  0.7696 -0.2895
   65MOL    C4443692   6.469   2.762   4.530 -0.2358 -0.0712  0.1060
   65MOL    C4543693   6.593   2.781   4.616  0.3673 -0.3748 -0.0389
   65MOL    C4643694   6.632   2.927   4.649  0.3141  0.1815 -0.4495
   65MOL    C4743695   6.704   2.943   4.782  0.6458  0.6593 -0.1583
   65MOL    O4843696   6.669   2.877   4.881 -0.1101 -0.5689  0.1731
   65MOL    H4943697   5.476   2.762   4.281  0.7080  0.5334 -1.3678
   65MOL    H5043698   5.606   2.985   4.395  1.4916  0.4142  1.3878
   65MOL    H5143699   5.577   2.874   4.532  0.7999 -3.3611 -0.0722
   65MOL    H5243700   5.737   2.792   4.303 -0.8205 -2.5505 -0.4085
   65MOL    H5343701   5.690   2.689   4.438 -0.7457 -0.8095 -1.2302
   65MOL    H5443702   5.851   2.945   4.493  1.9605  1.1152 -0.1302
   65MOL    H5543703   5.829   2.816   4.605 -0.4842  0.9709  0.1904
   65MOL    H5643704   5.996   2.801   4.359  0.6491  1.8843  1.5725
   65MOL    H5743705   5.945   2.659   4.461  0.3388 -0.4382 -0.8307
   65MOL    H5843706   6.061   2.727   4.649  2.9478 -1.5384  0.0026
   65MOL    H5943707   6.080   2.889   4.596 -0.8437 -1.7535  2.9753
   65MOL    H6043708   6.241   2.666   4.450  2.6244 -1.1038  1.3177
   65MOL    H6143709   6.246   2.837   4.424  0.3505  2.3606  2.7404
   65MOL    H6243710   6.333   2.711   4.682  0.7183  0.5899 -0.4406
   65MOL    H6343711   6.340   2.881   4.655 -1.1160 -0.3288  1.9197
   65MOL    H6443712   6.472   2.656   4.503 -2.4646 -0.7717  2.4738
   65MOL    H6543713   6.474   2.817   4.436  1.8009  1.4164  1.0368
   65MOL    H6643714   6.675   2.746   4.554 -0.5200 -0.4017 -1.2139
   65MOL    H6743715   6.588   2.722   4.707 -0.1505  1.3914  1.0996
   65MOL    H6843716   6.548   2.993   4.671 -0.9417 -0.8533 -2.0639
   65MOL    H6943717   6.698   2.976   4.577  0.3547 -0.8213 -1.0976
   65MOL    N7043718   6.819   3.018   4.778 -0.5381 -0.1268 -0.7727
   65MOL    C7143719   6.913   3.043   4.895 -0.3926 -0.0072  0.4459
   65MOL    C7243720   6.835   3.119   5.004  0.2117  0.1317 -0.2211
   65MOL    C7343721   6.923   3.171   5.123 -0.3179  1.4783 -0.3607
   65MOL    C7443722   6.831   3.234   5.230  0.2806 -0.6041 -0.0940
   65MOL    C7543723   6.762   3.365   5.197 -0.1693 -0.4000  0.0770
   65MOL    C7643724   6.880   3.473   5.188  0.3934 -0.1055  0.5801
   65MOL    C7743725   6.823   3.610   5.183 -0.8439 -0.5146 -0.4272
   65MOL    C7843726   6.924   3.710   5.113 -0.3373  0.4125 -0.0997
   65MOL    C7943727   7.024   3.769   5.218 -0.3209  0.2563 -0.3061
   65MOL    C8043728   7.137   3.863   5.158 -0.3730 -0.4556  0.7994
   65MOL    C8143729   7.253   3.804   5.076 -0.1521 -0.4650 -0.1647
   65MOL    O8243730   7.251   3.687   5.042 -0.1371  0.1921 -0.0356
   65MOL    H8343731   6.863   3.045   4.692  2.6066  0.8053  1.0409
   65MOL    H8443732   6.953   2.944   4.918 -0.0420  0.0127 -0.0780
   65MOL    H8543733   7.004   3.096   4.868  0.3414 -2.5342 -2.3164
   65MOL    H8643734   6.773   3.037   5.039 -0.5070  0.5417 -0.5117
   65MOL    H8743735   6.774   3.189   4.946 -0.0844 -0.8270 -1.0677
   65MOL    H8843736   6.968   3.078   5.156 -0.2774  2.1178  1.4192
   65MOL    H8943737   6.993   3.236   5.071  0.9188  0.2896 -0.2184
   65MOL    H9043738   6.890   3.233   5.322 -1.6069 -1.2414  1.1299
   65MOL    H9143739   6.756   3.156   5.245 -0.5510 -0.1150 -1.5446
   65MOL    H9243740   6.688   3.395   5.271 -1.5707 -2.1833 -0.5580
   65MOL    H9343741   6.707   3.362   5.103  0.3035  1.0976 -0.2544
   65MOL    H9443742   6.933   3.470   5.283  1.7672 -1.6110 -0.2204
   65MOL    H9543743   6.949   3.448   5.108  2.6030 -0.7748  2.6413
   65MOL    H9643744   6.790   3.634   5.284 -0.1007 -3.4898  0.5667
   65MOL    H9743745   6.729   3.612   5.129 -1.0580  1.5673 -0.0163
   65MOL    H9843746   6.972   3.665   5.026 -0.2806 -1.6572  0.9747
   65MOL    H9943747   6.873   3.797   5.071  1.3667  1.0558 -0.8610
   65MOL   H10043748   7.069   3.686   5.272  0.9532  0.9517 -0.2831
   65MOL   H10143749   6.975   3.828   5.295  2.0269 -1.3463  2.5332
   65MOL   H10243750   7.182   3.913   5.244 -1.3140 -0.4894  1.3283
   65MOL   H10343751   7.100   3.940   5.089  0.7891  1.2314  2.0150
   65MOL   N10443752   7.347   3.892   5.045 -0.4932 -0.7668 -0.1432
   65MOL   C10543753   7.458   3.875   4.952 -0.3406 -0.1299 -0.1971
   65MOL   C10643754   7.521   4.009   4.907  0.3051 -0.8316 -0.4957
   65MOL   C10743755   7.662   4.000   4.847  0.5921 -0.4012 -0.2943
   65MOL   C10843756   0.011   4.130   4.817  0.6320 -0.1230  0.1187
   65MOL   C10943757   7.661   4.212   4.708  0.2676 -0.1450 -0.9408
   65MOL   C11043758   0.016   4.338   4.669 -0.8796  0.9410  0.0666
   65MOL   C11143759   7.675   4.423   4.555 -0.1597 -0.0326  0.5533
   65MOL   C11243760   7.552   4.506   4.599 -0.5558  0.6098 -0.1045
   65MOL   C11343761   7.490   4.586   4.480 -0.4187  0.2657 -0.7470
   65MOL   C11443762   7.379   4.677   4.515 -0.5896 -0.6779  0.6044
   65MOL   C11543763   7.298   4.727   4.391  0.5378  0.2306 -0.2009
   65MOL   O11643764   7.351   4.725   4.280  0.6599  0.2491 -0.3080
   65MOL   H11743765   7.341   3.983   5.088 -0.6600  0.4083 -2.5575
   65MOL   H11843766   7.530   3.806   4.995 -0.5012 -0.6531 -0.7593
   65MOL   H11943767   7.427   3.819   4.863 -0.7662  0.6684 -0.5574
   65MOL   H12043768   7.526   4.064   5.001 -1.5896 -2.0277  0.3448
   65MOL   H12143769   7.466   4.070   4.836 -0.2360 -2.0813 -1.1493
   65MOL   H12243770   0.015   3.945   4.911 -0.2180 -0.9104  0.1613
   65MOL   H12343771   7.650   3.940   4.757  1.8629  0.2769 -0.9237
   65MOL   H12443772   0.110   4.105   4.778  0.2344 -2.6274  0.6290
   65MOL   H12543773   0.037   4.186   4.906  0.9807  0.2462 -0.2127
   65MOL   H12643774   7.563   4.245   4.742  1.4075 -1.1489  3.6774
   65MOL   H12743775   7.652   4.150   4.619 -2.4088  0.2556 -0.9873
   65MOL   H12843776   0.016   4.397   4.761  0.1627  0.7791  0.1764
   65MOL   H12943777   0.123   4.318   4.660 -0.8701  1.7405 -1.9688
   65MOL   H13043778   7.653   4.355   4.473 -0.0741  1.4435 -0.7336
   65MOL   H13143779   0.042   4.483   4.517  0.7570 -1.4664  0.2381
   65MOL   H13243780   7.484   4.430   4.635  1.4645 -1.2784 -0.1628
   65MOL   H13343781   7.576   4.574   4.681  0.2530 -0.4258  0.5271
   65MOL   H13443782   7.458   4.514   4.405 -0.1195 -1.1689  0.4625
   65MOL   H13543783   7.559   4.638   4.414  0.1175 -0.6865 -0.9548
   65MOL   H13643784   7.425   4.757   4.574 -0.1770  0.3171 -1.0363
   65MOL   H13743785   7.307   4.620   4.574 -0.8839 -1.9907 -0.9997
   65MOL   N13843786   7.173   4.774   4.414 -0.5485 -0.6314  0.6972
   65MOL   C13943787   7.090   4.842   4.315 -0.0696  0.0605  0.0634
   65MOL   C14043788   7.148   4.968   4.246  0.2960  0.1198 -0.3136
   65MOL   C14143789   7.039   5.022   4.151  0.2000  0.0747  0.7137
   65MOL   C14243790   6.930   5.099   4.222 -0.2095  0.0634 -0.3473
   65MOL   C14343791   6.832   5.165   4.124 -0.3527 -0.1952 -0.2930
   65MOL   C14443792   6.752   5.271   4.199 -0.3359 -0.1233 -0.1741
   65MOL   C14543793   6.642   5.341   4.124  0.2003  0.0839  0.0480
   65MOL   C14643794   6.580   5.454   4.213  0.3110 -0.1321  0.3870
   65MOL   C14743795   6.458   5.517   4.132  0.1376 -0.3337  0.1149
   65MOL   C14843796   6.375   5.634   4.197  0.0266 -0.3683  0.2344
   65MOL   C14943797   6.454   5.762   4.216  0.2402 -0.0337 -0.7409
   65MOL   O15043798   6.497   5.822   4.117  0.1029 -0.2987  0.3142
   65MOL   H15143799   7.132   4.757   4.505  0.5676 -1.7205  1.0072
   65MOL   H15243800   7.062   4.767   4.241  1.0426  2.8733 -3.3466
   65MOL   H15343801   6.997   4.855   4.370  0.4870 -1.8379  1.5222
   65MOL   H15443802   7.239   4.943   4.191 -1.0314 -2.8219 -1.2974
   65MOL   H15543803   7.172   5.042   4.322  2.8769 -0.7783 -0.2199
   65MOL   H15643804   7.083   5.095   4.083 -3.3531  0.7590 -0.9314
   65MOL   H15743805   7.005   4.946   4.082  1.2204  0.0252  0.2648
   65MOL   H15843806   6.966   5.163   4.303  0.2323 -1.3301  0.5942
   65MOL   H15943807   6.867   5.031   4.280  1.5290 -1.7443 -0.5358
   65MOL   H16043808   6.773   5.089   4.075  1.3102  0.7054 -3.8746
   65MOL   H16143809   6.889   5.218   4.047  0.8238 -2.2327 -0.8492
   65MOL   H16243810   6.712   5.222   4.288  0.2023 -1.7594 -0.8134
   65MOL   H16343811   6.825   5.341   4.243  1.4934 -0.5172 -2.4905
   65MOL   H16443812   6.566   5.278   4.079  1.5893 -0.9102 -0.9485
   65MOL   H16543813   6.684   5.393   4.038  0.0200  0.3867  0.1417
   65MOL   H16643814   6.544   5.410   4.306 -1.1808  0.8193  0.2815
   65MOL   H16743815   6.648   5.538   4.232  0.2919 -0.1570  0.5671
   65MOL   H16843816   6.397   5.428   4.119 -0.0910 -0.2002  0.2702
   65MOL   H16943817   6.479   5.535   4.026  0.3553 -0.7472  0.0887
   65MOL   H17043818   6.331   5.606   4.292 -1.2795  1.6093  0.2548
   65MOL   H17143819   6.294   5.664   4.129  0.0072 -0.7467  0.0916
   65MOL   N17243820   6.485   5.790   4.341 -0.3094 -0.3771 -0.4105
   65MOL   C17343821   6.567   5.908   4.386  0.6985 -0.4940  0.2318
   65MOL   C17443822   6.713   5.892   4.333  0.1123  0.6720 -0.2372
   65MOL   C17543823   6.820   5.979   4.389 -0.3653  0.1156 -0.4890
   65MOL   C17643824   6.964   5.971   4.327  0.1869  0.3916 -0.5594
   65MOL   C17743825   7.089   6.011   4.407 -0.2891 -0.2293  0.1764
   65MOL   C17843826   7.217   6.007   4.324 -0.6878 -0.5908 -0.2845
   65MOL   C17943827   7.336   6.014   4.428  0.4865 -0.1323 -0.4074
   65MOL   C18043828   7.465   5.988   4.356 -0.2491 -0.3112  0.3149
   65MOL   C18143829   7.589   6.039   4.429  1.1155 -0.1506  0.2501
   65MOL   C18243830   0.003   6.037   4.342  0.1172 -0.1873  0.0530
   65MOL   C18343831   0.133   6.056   4.416 -0.1115  0.7962  0.6582
   65MOL   O18443832   0.154   6.162   4.473  0.2182 -0.5532  0.5759
   65MOL   H18543833   6.449   5.726   4.411  0.6479 -1.2244 -0.6773
   65MOL   H18643834   6.509   5.995   4.355  0.4188 -1.0674 -0.9124
   65MOL   H18743835   6.567   5.905   4.495 -1.4080 -0.9587  0.2363
   65MOL   H18843836   6.705   5.907   4.226  0.6519  0.5278 -0.3016
   65MOL   H18943837   6.752   5.791   4.342 -0.6435  0.3010 -1.0965
   65MOL   H19043838   6.771   6.077   4.388 -1.2930 -0.3117  1.3857
   65MOL   H19143839   6.836   5.949   4.492 -2.2674  1.1598  0.1270
   65MOL   H19243840   6.966   6.028   4.234  2.9254  0.9320 -0.1793
   65MOL   H19343841   6.987   5.868   4.300 -0.9876 -1.1819  3.9174
   65MOL   H19443842   7.103   5.939   4.487 -0.5248 -0.1748  0.2670
   65MOL   H19543843   7.067   6.107   4.453 -2.0053 -0.2513 -0.5469
   65MOL   H19643844   7.217   5.925   4.252  0.3408  1.2026 -2.3607
   65MOL   H19743845   7.231   6.086   4.251 -1.3725 -0.5150 -0.3366
   65MOL   H19843846   7.312   5.937   4.501  0.4769  1.8105  1.6820
   65MOL   H19943847   7.343   6.107   4.483  0.2201  0.5659 -1.5316
   65MOL   H20043848   7.479   5.881   4.341  0.2468 -0.0432 -1.2445
   65MOL   H20143849   7.459   6.032   4.257  0.1192  0.0172  0.4363
   65MOL   H20243850   7.603   5.995   4.527 -3.1071 -2.4909 -0.0622
   65MOL   H20343851   7.577   6.143   4.460  0.7180 -0.0059 -0.3655
   65MOL   H20443852   0.013   6.122   4.274 -0.9730 -0.7169 -0.7850
   65MOL   H20543853   0.004   5.950   4.277 -0.9006 -0.5940  0.5770
   65MOL   N20643854   0.219   5.957   4.419 -0.3772  0.1256  0.2887
   65MOL   C20743855   0.202   5.818   4.370  0.6715 -0.1097  0.4696
   65MOL   C20843856   0.103   5.740   4.451  0.0752 -0.1090 -0.2283
   65MOL   C20943857   0.063   5.606   4.379  0.6663 -0.5823 -0.3993
   65MOL   C21043858   7.663   5.532   4.452 -0.1852 -0.2523  0.0726
   65MOL   C21143859   7.680   5.525   4.600 -0.3870  0.6608  0.3822
   65MOL   C21243860   7.625   5.397   4.657  0.3592 -0.4133  0.6660
   65MOL   C21343861   7.630   5.401   4.806  0.6483 -0.4071 -0.1162
   65MOL   C21443862   7.543   5.291   4.869  0.4371  0.5908 -0.0765
   65MOL   C21543863   7.554   5.292   5.023  0.0866 -0.2472 -0.4170
   65MOL   C21643864   7.472   5.182   5.096 -0.6301 -0.2352  0.1113
   65MOL   C21743865   7.472   5.193   5.248 -0.3982 -0.0427 -0.0487
   65MOL   O21843866   7.561   5.130   5.314  0.7193 -0.1748 -0.8460
   65MOL   H21943867   0.310   5.961   4.463 -0.0153 -1.2790 -0.3260
   65MOL   H22043868   0.295   5.762   4.366  0.8239  0.1347  0.6265
   65MOL   H22143869   0.181   5.813   4.263  0.1734  2.0470  0.4597
   65MOL   H22243870   0.017   5.799   4.482  0.6871 -0.0444  1.4248
   65MOL   H22343871   0.165   5.712   4.536  0.5029  0.4955 -0.3373
   65MOL   H22443872   0.008   5.629   4.288 -2.4405 -0.5688  1.3827
   65MOL   H22543873   0.142   5.533   4.366  1.1926  0.2847 -2.1995
   65MOL   H22643874   7.660   5.429   4.416  0.6551 -1.3806  3.0415
   65MOL   H22743875   7.568   5.578   4.421  1.4078  3.4820  0.4707
   65MOL   H22843876   7.639   5.612   4.650  3.8481  2.1762  1.4243
   65MOL   H22943877   0.072   5.525   4.619 -0.4562  1.9167  0.7863
   65MOL   H23043878   7.526   5.373   4.619  0.6494  2.7085 -2.3010
   65MOL   H23143879   7.699   5.322   4.629  0.8598  0.0642  0.7145
   65MOL   H23243880   7.604   5.501   4.840 -0.1095 -0.4940 -0.4322
   65MOL   H23343881   0.018   5.375   4.827  1.2644  0.6935 -1.7337
   65MOL   H23443882   7.444   5.315   4.829  0.7391 -0.4818 -1.5170
   65MOL   H23543883   7.583   5.195   4.835  0.3913 -0.1365  1.8453
   65MOL   H23643884   7.503   5.383   5.056 -1.2362 -0.9715 -0.4248
   65MOL   H23743885   7.661   5.292   5.045 -0.0758  1.8939  0.5011
   65MOL   H23843886   7.495   5.077   5.078 -1.8399 -0.1927 -1.7899
   65MOL   H23943887   7.369   5.186   5.061  0.1160  0.2107 -2.1250
   65MOL   N24043888   7.364   5.250   5.306 -0.0262 -0.7846  0.0021
   65MOL   C24143889   7.330   5.245   5.454  0.3674 -0.3940 -0.3795
   65MOL   C24243890   7.223   5.139   5.483 -0.1208  0.4412 -0.1699
   65MOL   C24343891   7.236   5.000   5.419 -0.9629  0.5186  0.4144
   65MOL   C24443892   7.112   4.912   5.448  0.3179 -0.1482 -0.7628
   65MOL   C24543893   7.127   4.777   5.387  0.5582  0.1283  0.1935
   65MOL   C24643894   7.009   4.686   5.424 -0.4439 -0.0004  0.4683
   65MOL   C24743895   6.995   4.549   5.347 -0.2778  0.1845  0.4507
   65MOL   C24843896   7.072   4.427   5.399 -0.1985 -0.1871  0.6313
   65MOL   C24943897   7.218   4.427   5.361 -0.2401  0.1109  0.5162
   65MOL   C25043898   7.292   4.300   5.408  0.4282 -0.1578 -0.0492
   65MOL   C25143899   7.403   4.250   5.311  0.4989 -0.0839  0.4352
   65MOL   O25243900   7.383   4.205   5.195 -0.9668 -0.1186  0.1402
   65MOL   H25343901   7.287   5.283   5.250  3.0973  1.6697 -3.0060
   65MOL   H25443902   7.300   5.348   5.478  0.5241 -0.2783 -0.6812
   65MOL   H25543903   7.421   5.228   5.511  0.4684  0.9393 -0.1073
   65MOL   H25643904   7.124   5.183   5.470 -0.2236  0.2190 -0.1329
   65MOL   H25743905   7.224   5.121   5.591 -3.5075 -0.9729 -0.3167
   65MOL   H25843906   7.259   5.001   5.312  0.6106  0.7337  0.7500
   65MOL   H25943907   7.319   4.939   5.452 -0.8678  0.1203 -0.5400
   65MOL   H26043908   7.030   4.963   5.397  0.2153  0.5219  0.0651
   65MOL   H26143909   7.085   4.910   5.553  0.7522 -1.0844 -0.6623
   65MOL   H26243910   7.214   4.720   5.419  0.4245 -0.7733 -1.0196
   65MOL   H26343911   7.141   4.789   5.279  2.1214  1.9846  0.5891
   65MOL   H26443912   7.017   4.669   5.531 -1.0087  0.2598  0.5523
   65MOL   H26543913   6.920   4.747   5.408 -0.3007  0.5863  1.8763
   65MOL   H26643914   7.019   4.558   5.241 -1.1701  0.6379  0.2818
   65MOL   H26743915   6.891   4.519   5.351  0.6363 -2.8621  3.8537
   65MOL   H26843916   7.056   4.428   5.506 -1.1460  1.6665  0.4891
   65MOL   H26943917   7.028   4.339   5.352 -1.8009  1.2164 -0.5710
   65MOL   H27043918   7.267   4.515   5.403  0.7541 -0.1190 -0.1404
   65MOL   H27143919   7.224   4.430   5.252  1.3981 -2.6043  0.4702
   65MOL   H27243920   7.217   4.221   5.411 -1.3486  1.4528 -0.5657
   65MOL   H27343921   7.337   4.313   5.507  1.3211 -0.5712 -0.4039
   65MOL   N27443922   7.519   4.242   5.373 -0.1395 -0.0898  1.1315
   65MOL   C27543923   7.652   4.218   5.311 -0.4378  0.3726  0.6531
   65MOL   C27643924   7.711   4.353   5.265  0.2709 -0.5878  0.3950
   65MOL   C27743925   0.124   4.332   5.188  0.0681 -0.3120  0.0671
   65MOL   C27843926   0.185   4.447   5.110 -0.0519 -0.7077  1.1733
   65MOL   C27943927   0.292   4.403   5.007 -0.1378 -0.2653  0.3750
   65MOL   C28043928   0.303   4.507   4.895 -0.3301 -0.5906 -0.7110
   65MOL   C28143929   0.366   4.641   4.932  0.2915 -0.0816  0.5278
   65MOL   C28243930   0.505   4.636   4.999 -0.3411 -0.1616 -0.4853
   65MOL   C28343931   0.581   4.775   4.994  0.8064  0.2042 -0.1176
   65MOL   C28443932   0.726   4.762   5.037  0.0097 -0.2414  0.7033
   65MOL   C28543933   0.801   4.892   5.043 -0.1859  0.8531 -0.5222
   65MOL   O28643934   0.827   4.956   4.939 -0.1575 -0.1148 -0.5619
   65MOL   H28743935   7.519   4.270   5.470 -1.2767  2.1030  0.5253
   65MOL   H28843936   7.639   4.155   5.223  2.9403  1.5608 -0.8019
   65MOL   H28943937   0.000   4.166   5.381  1.0341 -0.9295 -1.6015
   65MOL   H29043938   0.016   4.418   5.350 -1.4089  0.6941 -0.1524
   65MOL   H29143939   7.638   4.397   5.198  0.8825 -0.4326 -0.1680
   65MOL   H29243940   0.197   4.302   5.263  0.3946 -0.7292 -0.4090
   65MOL   H29343941   0.110   4.248   5.120 -0.3174 -2.3303  2.6093
   65MOL   H29443942   0.223   4.526   5.174  0.8484 -0.9460  0.9352
   65MOL   H29543943   0.114   4.498   5.043  1.2800  1.4799  1.3622
   65MOL   H29643944   0.267   4.304   4.969 -0.7736  0.1843 -0.3928
   65MOL   H29743945   0.383   4.380   5.063 -0.6796 -3.6352 -0.0046
   65MOL   H29843946   0.373   4.474   4.818 -1.1352  0.8061 -2.0757
   65MOL   H29943947   0.206   4.517   4.845 -0.2622  1.1757 -0.5006
   65MOL   H30043948   0.298   4.684   5.006  2.9822 -1.6594  4.0521
   65MOL   H30143949   0.354   4.720   4.857 -0.7179 -1.5568 -0.8766
   65MOL   H30243950   0.491   4.609   5.104  0.2602 -0.9018 -0.5881
   65MOL   H30343951   0.567   4.556   4.959 -0.1657 -0.5632  0.5788
   65MOL   H30443952   0.525   4.841   5.060 -1.0447 -0.1265 -1.3000
   65MOL   H30543953   0.582   4.819   4.894 -2.1657 -1.2825 -0.8907
   65MOL   H30643954   0.784   4.692   4.978  0.5132 -0.5431  1.5547
   65MOL   H30743955   0.730   4.718   5.137  0.6862 -0.5843  0.5221
   65MOL   N30843956   0.842   4.929   5.168  0.3572  0.0654  0.8960
   65MOL   C30943957   0.909   5.057   5.204 -0.2147  0.0835  0.2674
   65MOL   C31043958   0.801   5.169   5.239 -1.1906  0.3380  0.3378
   65MOL   C31143959   0.861   5.309   5.254 -0.0072 -0.1445 -1.0875
   65MOL   C31243960   0.758   5.420   5.286 -0.2034 -0.1381 -0.8091
   65MOL   C31343961   0.727   5.503   5.166 -0.6502 -0.7395  0.4008
   65MOL   C31443962   0.837   5.602   5.125 -0.2960  0.0504 -0.6744
   65MOL   C31543963   0.791   5.707   5.025  0.4220 -0.1928  0.1017
   65MOL   C31643964   0.790   5.662   4.884  0.2165  0.6639  0.0928
   65MOL   C31743965   0.766   5.774   4.780  0.4285  0.2836 -0.7405
   65MOL   C31843966   0.749   5.718   4.642 -0.2679 -0.6522  0.3372
   65MOL   C31943967   0.605   5.686   4.603 -0.1666 -0.4985  0.1985
   65MOL   O32043968   0.523   5.776   4.581  0.0409  0.0023  0.1346
   65MOL   H32143969   0.826   4.865   5.244 -0.4015 -1.8368 -0.8078
   65MOL   H32243970   0.972   5.098   5.125 -0.8248  0.5775  0.0283
   65MOL   H32343971   0.966   5.037   5.295  1.4280  1.1983 -0.4918
   65MOL   H32443972   0.750   5.134   5.329 -0.8186 -2.8941 -0.6533
   65MOL   H32543973   0.723   5.179   5.164 -1.7878 -1.8160  0.6144
   65MOL   H32643974   0.937   5.312   5.332  0.9714 -1.3302 -1.9788
   65MOL   H32743975   0.922   5.338   5.169  1.3848  1.6360  0.4804
   65MOL   H32843976   0.791   5.485   5.367  1.5555 -0.2119 -1.4439
   65MOL   H32943977   0.668   5.368   5.320  1.2075 -2.7966 -0.9914
   65MOL   H33043978   0.631   5.548   5.189 -1.3134 -1.7468 -0.3310
   65MOL   H33143979   0.706   5.436   5.082 -2.5865 -0.6503  0.7853
   65MOL   H33243980   0.873   5.659   5.210 -1.7387 -1.5591  1.0597
   65MOL   H33343981   0.927   5.564   5.077 -0.9027  0.1335 -1.9089
   65MOL   H33443982   0.861   5.791   5.029 -2.5151  2.3579 -0.1909
   65MOL   H33543983   0.693   5.745   5.055  0.3825  0.5439 -0.9571
   65MOL   H33643984   0.876   5.599   4.861 -1.5498 -1.0282 -2.1006
   65MOL   H33743985   0.709   5.591   4.865 -0.3027  0.0889  4.0231
   65MOL   H33843986   0.843   5.851   4.774  1.0709 -0.1742  1.1786
   65MOL   H33943987   0.678   5.834   4.805  0.5196  0.2355 -0.3019
   65MOL   H34043988   0.821   5.638   4.621  1.1245  0.0091  2.4257
   65MOL   H34143989   0.779   5.791   4.567  4.1233 -0.7665  1.8713
   65MOL   N34243990   0.578   5.556   4.587  0.5533 -0.1935  0.2832
   65MOL   C34343991   0.463   5.511   4.512 -0.3664  0.2308 -0.4023
   65MOL   C34443992   0.363   5.438   4.604  0.2577 -0.2472  0.0447
   65MOL   C34543993   0.399   5.300   4.665 -0.5276  0.3769  0.0029
   65MOL   C34643994   0.284   5.258   4.755 -0.3215 -0.1456 -0.6854
   65MOL   C34743995   0.316   5.153   4.852 -0.2722  0.0570  0.5644
   65MOL   C34843996   0.194   5.122   4.942  0.2321  0.1270 -0.1878
   65MOL   C34943997   0.195   4.977   5.006  0.8472 -0.0316  0.4814
   65MOL   C35043998   0.081   4.961   5.112 -0.1839 -0.0554  0.3693
   65MOL   C35143999   0.081   4.811   5.160  0.0870  0.0317  0.3129
   65MOL   C35244000   7.713   4.763   5.274 -1.1639  0.5099 -0.2536
   65MOL   C35344001   0.047   4.812   5.405 -0.3414 -0.9314  0.0293
   65MOL   O35444002   0.146   4.758   5.465  0.1782  0.8963  0.4988
   65MOL   H35544003   0.648   5.483   4.590  0.4393 -0.3205 -0.0691
   65MOL   H35644004   0.418   5.591   4.452  0.6582  0.5661 -0.7296
   65MOL   H35744005   0.499   5.448   4.431  1.3988  1.0833 -0.3020
   65MOL   H35844006   0.262   5.430   4.564  0.8065 -0.8096 -1.2239
   65MOL   H35944007   0.341   5.503   4.689  0.8244 -0.5343  0.4138
   65MOL   H36044008   0.402   5.219   4.592 -0.9173  1.9425 -1.7803
   65MOL   H36144009   0.492   5.302   4.723  0.4822  1.2836 -1.6057
   65MOL   H36244010   0.202   5.218   4.695 -0.9282  0.4385 -0.2444
   65MOL   H36344011   0.252   5.351   4.801 -0.1575  0.8372 -2.5264
   65MOL   H36444012   0.399   5.184   4.916  0.8287 -1.3157 -0.1735
   65MOL   H36544013   0.353   5.065   4.800  0.6197 -0.0665  1.3831
   65MOL   H36644014   0.183   5.198   5.019  1.4822 -0.3174  0.4444
   65MOL   H36744015   0.104   5.148   4.886 -0.2389 -0.2607  0.3845
   65MOL   H36844016   0.292   4.954   5.050  1.4825 -1.2389 -1.4855
   65MOL   H36944017   0.183   4.906   4.924  0.8761  0.7624 -0.2206
   65MOL   H37044018   0.111   5.018   5.200 -0.5663 -0.0076  0.4702
   65MOL   H37144019   7.700   4.991   5.072 -0.4033 -2.1119 -0.7149
   65MOL   H37244020   0.186   4.799   5.188  0.7522  1.0415 -1.6344
   65MOL   H37344021   0.060   4.747   5.074  0.6182  0.3813 -0.0841
   65MOL   H37444022   7.714   4.654   5.279 -1.7569  0.6141  3.5201
   65MOL   H37544023   7.610   4.797   5.263 -1.8865 -1.6041 -0.2127
   65MOL   N37644024   7.702   4.917   5.455  0.2231 -0.0335  0.0232
   65MOL   C37744025   0.016   5.005   5.565  0.1383  1.0538  0.5042
   65MOL   C37844026   7.676   4.946   5.699 -0.0278 -0.1847 -0.5477
   65MOL   C37944027   7.524   4.972   5.711  0.1848 -0.0523 -0.6530
   65MOL   C38044028   7.469   4.926   5.847  0.7482  0.3022  0.4501
   65MOL   C38144029   7.315   4.908   5.855  0.0184  0.0512  0.2024
   65MOL   C38244030   7.268   4.772   5.801  0.1923  0.2875  0.2836
   65MOL   C38344031   7.289   4.664   5.907  0.3089  0.2027  0.0593
   65MOL   C38444032   7.234   4.531   5.865 -0.5310 -0.3189  0.7394
   65MOL   C38544033   7.278   4.412   5.953  0.4246 -0.4495  0.0683
   65MOL   C38644034   7.215   4.277   5.911  0.0516  0.0761  0.5875
   65MOL   C38744035   7.264   4.216   5.786  0.2385 -0.1409 -0.3581
   65MOL   O38844036   7.374   4.253   5.742 -0.3074  0.0153  0.6676
   65MOL   H38944037   7.625   4.955   5.402 -0.0728  1.2983  1.3584
   65MOL   H39044038   0.120   5.034   5.578  0.6334 -0.0753 -0.8949
   65MOL   H39144039   7.677   5.098   5.546  0.2841  0.6394 -2.1016
   65MOL   H39244040   7.704   4.999   5.791 -0.7950  0.5625 -0.7450
   65MOL   H39344041   7.697   4.840   5.711 -1.8879 -0.3390  1.6225
   65MOL   H39444042   7.500   5.078   5.701  0.1526 -0.0596 -0.6464
   65MOL   H39544043   7.467   4.937   5.625 -2.6110 -0.7171  1.3893
   65MOL   H39644044   7.499   4.999   5.921  1.1180  2.1108 -1.4476
   65MOL   H39744045   7.521   4.843   5.895  0.1706 -0.1425  0.3096
   65MOL   H39844046   7.265   4.983   5.792  0.4917 -0.2768 -0.5664
   65MOL   H39944047   7.270   4.920   5.954  2.5919  0.4190  1.3785
   65MOL   H40044048   7.161   4.774   5.782  0.2487  0.4633 -0.0253
   65MOL   H40144049   7.311   4.745   5.704 -0.4107  0.0169  0.0889
   65MOL   H40244050   7.249   4.687   6.006 -1.7192 -1.5975 -0.2985
   65MOL   H40344051   7.395   4.645   5.922  0.5602 -0.7677 -2.6305
   65MOL   H40444052   7.125   4.533   5.860 -0.5255  0.9886  0.8072
   65MOL   H40544053   7.256   4.507   5.761 -1.8077  1.0008  0.1462
   65MOL   H40644054   7.246   4.428   6.056 -1.2519 -3.1625  0.0055
   65MOL   H40744055   7.386   4.396   5.953  0.2826 -1.4197 -0.0195
   65MOL   H40844056   7.106   4.281   5.914  0.0390  0.4245 -0.3043
   65MOL   H40944057   7.237   4.205   5.990 -2.0167 -1.0593  0.1490
   65MOL   N41044058   7.181   4.119   5.734 -0.8608  0.9424  0.2483
   65MOL   C41144059   7.225   4.027   5.628  0.0067 -0.3987 -0.3877
   65MOL   C41244060   7.250   3.885   5.688 -0.0478 -0.0416 -0.1778
   65MOL   C41344061   7.277   3.776   5.583  0.5553 -0.0929  0.3923
   65MOL   C41444062   7.410   3.790   5.505  0.1357  0.6702  0.4069
   65MOL   C41544063   7.425   3.697   5.392 -0.0932  0.1772  0.4478
   65MOL   C41644064   7.538   3.708   5.295  0.0352 -0.1885  0.0281
   65MOL   C41744065   7.561   3.591   5.203 -0.2873  0.0993 -0.7395
   65MOL   C41844066   7.691   3.620   5.133  0.0338  0.8578  0.7851
   65MOL   C41944067   7.711   3.555   4.989  1.1643  0.7955  0.5124
   65MOL   C42044068   0.137   3.569   4.944 -0.5280 -0.0760  0.4888
   65MOL   C42144069   0.192   3.711   4.916 -0.1980 -0.4788  0.1390
   65MOL   O42244070   0.160   3.758   4.808 -0.1292  0.2259  0.5791
   65MOL   H42344071   7.098   4.103   5.790 -0.7023  0.6615  0.4014
   65MOL   H42444072   7.147   4.023   5.552 -0.1079  0.2606 -0.3109
   65MOL   H42544073   7.318   4.052   5.576  1.9286 -2.4329  1.9564
   65MOL   H42644074   7.165   3.851   5.747  0.6465  3.4438  3.0205
   65MOL   H42744075   7.348   3.890   5.737  1.2900 -2.7423 -2.4123
   65MOL   H42844076   7.288   3.680   5.636  0.0017  0.8177  2.2076
   65MOL   H42944077   7.188   3.771   5.521  0.0108 -2.0518  1.2759
   65MOL   H43044078   7.491   3.779   5.578 -1.1948 -0.7098  1.6980
   65MOL   H43144079   7.408   3.894   5.474 -0.9774  0.6375  0.3629
   65MOL   H43244080   7.332   3.700   5.334 -2.1273  0.7348  3.6242
   65MOL   H43344081   7.422   3.592   5.421  1.3399 -0.4256 -1.4381
   65MOL   H43444082   7.527   3.797   5.233 -0.0900 -0.8576 -0.9174
   65MOL   H43544083   7.637   3.727   5.336  1.7941 -2.0514 -3.1159
   65MOL   H43644084   7.484   3.566   5.130  0.9327 -0.8876 -1.7095
   65MOL   H43744085   7.578   3.506   5.268 -0.8754  1.0162  0.6336
   65MOL   H43844086   7.698   3.726   5.107 -1.6834  0.9529  0.6635
   65MOL   H43944087   0.061   3.599   5.196  0.9369 -2.1288 -1.3148
   65MOL   H44044088   7.645   3.584   4.908  1.0528 -0.6276  0.0737
   65MOL   H44144089   7.695   3.449   5.007  1.9473  0.9108  2.0156
   65MOL   H44244090   0.153   3.515   4.851  0.3963 -0.2069  0.7118
   65MOL   H44344091   0.208   3.519   5.010  0.8472  1.4288  0.1736
   65MOL   N44444092   0.285   3.771   4.997  0.6496 -0.2199 -0.4448
   65MOL   C44544093   0.335   3.903   4.965 -0.3376 -0.0432  0.0534
   65MOL   C44644094   0.307   4.009   5.067 -0.1003  0.0528 -0.1516
   65MOL   C44744095   0.339   3.952   5.209 -0.2507  0.5589  0.0116
   65MOL   C44844096   0.326   4.065   5.313  0.1456  0.4047  0.8447
   65MOL   C44944097   0.388   4.018   5.446  0.5015 -0.3548  0.7297
   65MOL   C45044098   0.334   4.106   5.566  0.5020  0.4297  0.2008
   65MOL   C45144099   0.332   4.263   5.550 -0.0191  0.8309 -0.1769
   65MOL   C45244100   0.474   4.320   5.516 -0.0169 -0.6532  0.0478
   65MOL   C45344101   0.480   4.470   5.520  0.5013 -1.2472  0.3586
   65MOL   C45444102   0.441   4.545   5.393 -0.3648 -0.0010  0.5868
   65MOL   C45544103   0.518   4.676   5.388  0.6843  0.4086 -0.1043
   65MOL   O45644104   0.637   4.670   5.386 -0.3779  0.1108  0.2461
   65MOL   H45744105   0.315   3.717   5.078 -1.8018  0.5146  0.9985
   65MOL   H45844106   0.442   3.894   4.946  0.1838  2.3581  1.6180
   65MOL   H45944107   0.289   3.937   4.872  0.8008  2.9959  0.5491
   65MOL   H46044108   0.202   4.037   5.065  0.0621  0.7890  1.1707
   65MOL   H46144109   0.376   4.089   5.040  0.9486 -0.4646  0.9750
   65MOL   H46244110   0.267   3.873   5.228 -0.0384  0.2853 -0.3026
   65MOL   H46344111   0.444   3.923   5.213  0.5804  3.4565  0.9689
   65MOL   H46444112   0.218   4.082   5.316 -0.3131 -2.0440 -0.3639
   65MOL   H46544113   0.368   4.159   5.277  1.8355 -0.3978  0.6756
   65MOL   H46644114   0.495   4.037   5.445 -0.0202  2.7761  0.4878
   65MOL   H46744115   0.368   3.914   5.470  1.5935 -1.2128 -1.8409
   65MOL   H46844116   0.232   4.078   5.592  0.6220  0.4210  0.6667
   65MOL   H46944117   0.376   4.092   5.666  0.3967  1.1344  0.3504
   65MOL   H47044118   0.287   4.314   5.635 -0.7328 -0.8167  0.4617
   65MOL   H47144119   0.271   4.281   5.462 -0.0907  0.3318 -0.2335
   65MOL   H47244120   0.550   4.298   5.592 -0.3410 -0.0197  0.5546
   65MOL   H47344121   0.505   4.290   5.415 -2.4807  1.5428 -1.4139
   65MOL   H47444122   0.583   4.495   5.545  0.2689  1.8722 -1.5875
   65MOL   H47544123   0.424   4.511   5.604  0.5935  1.6129 -0.9318
   65MOL   H47644124   0.333   4.560   5.389 -0.5827 -1.4252  0.7990
   65MOL   H47744125   0.474   4.509   5.296 -1.5867  0.9265 -0.1833
   65MOL   N47844126   0.448   4.788   5.381 -0.0660  0.4327 -0.1214
   65MOL   C47944127   0.507   4.925   5.371 -0.4143  0.1664 -0.3857
   65MOL   C48044128   0.408   5.031   5.415  0.0872 -0.5643 -0.3364
   65MOL   C48144129   0.431   5.178   5.364  0.3615  0.0011  0.2998
   65MOL   C48244130   0.319   5.267   5.405  0.2347  0.4164  0.1464
   65MOL   C48344131   0.306   5.402   5.343 -0.2066  0.0930  0.1710
   65MOL   C48444132   0.291   5.419   5.186 -0.6262  0.1432  0.0742
   65MOL   C48544133   0.298   5.567   5.143  0.0187  0.0288  0.4024
   65MOL   C48644134   0.305   5.598   4.989 -0.4929 -0.4869  0.3175
   65MOL   C48744135   0.292   5.746   4.961 -0.4085  0.2455 -0.5529
   65MOL   C48844136   0.278   5.783   4.815  0.0616  0.4248 -0.8342
   65MOL   C48944137   0.289   5.930   4.802 -0.0844  0.0343 -0.9852
   65MOL   O49044138   0.201   6.001   4.849  0.2844  0.2892  0.0785
   65MOL   H49144139   0.350   4.768   5.367 -0.3164  1.0778  0.6900
   65MOL   H49244140   0.604   4.947   5.415 -0.2393 -1.4975  0.0964
   65MOL   H49344141   0.519   4.957   5.267  0.3493 -0.6902 -0.5636
   65MOL   H49444142   0.415   5.023   5.523  1.7139  0.5406 -0.3412
   65MOL   H49544143   0.308   4.997   5.386 -0.9780  1.0028  1.3546
   65MOL   H49644144   0.523   5.202   5.417 -0.4678 -1.1053  2.3144
   65MOL   H49744145   0.439   5.179   5.256 -0.9805 -0.2409  0.1866
   65MOL   H49844146   0.323   5.286   5.512  1.6357 -2.7037  0.7079
   65MOL   H49944147   0.225   5.213   5.390  0.0156  1.3970 -2.2156
   65MOL   H50044148   0.391   5.465   5.371  0.5805 -0.5116 -0.8349
   65MOL   H50144149   0.211   5.440   5.382  0.4271 -0.2905  2.1761
   65MOL   H50244150   0.366   5.365   5.128  0.6120  1.6236  0.2618
   65MOL   H50344151   0.191   5.384   5.160 -1.1103  0.5339  1.4012
   65MOL   H50444152   0.394   5.605   5.176  0.5292 -0.4666 -0.4849
   65MOL   H50544153   0.222   5.629   5.191 -0.5855 -0.1887 -0.2563
   65MOL   H50644154   0.395   5.553   4.946  1.3862  0.8064  2.7323
   65MOL   H50744155   0.217   5.556   4.941 -0.4051 -0.9775  0.5736
   65MOL   H50844156   0.379   5.790   5.009 -0.8687  0.1940  0.3292
   65MOL   H50944157   0.209   5.787   5.019 -1.1073 -2.4641  0.4200
   65MOL   H51044158   0.178   5.752   4.785  0.1565  1.4460 -2.2609
   65MOL   H51144159   0.360   5.738   4.759 -0.2660 -0.5428 -0.5400
   65MOL   N51244160   0.397   5.985   4.744  0.3171 -0.4515  0.5042
   65MOL   C51344161   0.437   6.129   4.735  0.4780  0.6408  0.0389
   65MOL   C51444162   0.567   6.141   4.670 -0.2566 -0.7946 -0.3992
   65MOL   C51544163   0.564   6.119   4.518 -0.8287 -0.6843  0.5139
   65MOL   C51644164   0.697   6.146   4.444  0.0346 -0.2956  1.0819
   65MOL   C51744165   0.673   6.134   4.291  0.4823 -0.4527  0.3436
   65MOL   C51844166   0.802   6.107   4.219 -0.7521 -0.1809  0.6008
   65MOL   C51944167   0.777   6.104   4.070 -0.0680 -0.3482 -0.2455
   65MOL   C52044168   0.901   6.075   3.994 -0.5475 -0.5390  0.4486
   65MOL   C52144169   0.860   6.096   3.843 -0.2812 -0.5684  0.5861
   65MOL   C52244170   0.986   6.081   3.753 -0.1077 -0.7944 -0.4074
   65MOL   C52344171   1.069   6.210   3.735  0.4319  0.2250  0.0539
   65MOL   O52444172   1.131   6.260   3.830  0.3705  0.3015  0.2040
   65MOL   H52544173   0.454   5.919   4.693  1.5401  0.1516  1.0772
   65MOL   H52644174   0.363   6.199   4.695  2.2888  1.9134 -1.1462
   65MOL   H52744175   0.435   6.163   4.839 -0.6457  1.6204 -0.2894
   65MOL   H52844176   0.639   6.075   4.719 -0.0222 -1.4250 -1.5880
   65MOL   H52944177   0.617   6.235   4.692  0.5371 -1.3982  0.3931
   65MOL   H53044178   0.529   6.018   4.497 -1.9035 -0.0474 -0.7940
   65MOL   H53144179   0.489   6.185   4.476 -0.0667 -0.2071 -0.0970
   65MOL   H53244180   0.762   6.063   4.473 -0.4379 -1.1129 -0.1694
   65MOL   H53344181   0.734   6.242   4.480  0.2000 -0.3580  1.0804
   65MOL   H53444182   0.626   6.224   4.251  2.3056  0.4577  0.1743
   65MOL   H53544183   0.609   6.050   4.267 -2.1205  1.6434 -0.2047
   65MOL   H53644184   0.859   6.199   4.230 -1.7915  0.3599  1.6213
   65MOL   H53744185   0.857   6.022   4.259  0.1435  0.2259  0.2484
   65MOL   H53844186   0.717   6.190   4.040  1.3759 -0.1195 -2.5832
   65MOL   H53944187   0.708   6.021   4.048 -0.5744  0.1955 -0.7466
   65MOL   H54044188   0.983   6.144   4.013 -0.1196 -0.8573 -0.2350
   65MOL   H54144189   0.946   5.977   4.009  3.6763  0.7302 -2.9226
   65MOL   H54244190   0.812   6.193   3.831  4.1054  1.5513 -0.5759
   65MOL   H54344191   0.783   6.025   3.812  0.7713 -0.8337 -1.5268
   65MOL   H54444192   0.945   6.055   3.655  1.6637 -1.8927 -0.8832
   65MOL   H54544193   1.050   6.001   3.791  2.4449  0.0805 -2.7192
   65MOL   N54644194   1.065   6.267   3.611  0.8407 -0.2963 -0.1478
   65MOL   C54744195   1.129   6.396   3.571  0.2495  0.3524 -0.0392
   65MOL   C54844196   1.283   6.381   3.557 -0.7279  0.7017  0.5644
   65MOL   C54944197   1.353   6.506   3.511  0.0966  0.8724  0.3916
   65MOL   C55044198   1.502   6.480   3.477  0.1340  0.5213 -0.9081
   65MOL   C55144199   1.565   6.580   3.385  0.1840  0.7246  0.2883
   65MOL   C55244200   1.550   6.732   3.435 -0.5963 -0.0940  0.6820
   65MOL   C55344201   1.667   6.786   3.514  0.3622  0.1510  0.0871
   65MOL   C55444202   1.673   6.720   3.658 -0.5974  0.5549 -0.4320
   65MOL   C55544203   1.760   6.802   3.754 -0.6502  0.1600 -0.7266
   65MOL   C55644204   1.790   6.730   3.887 -0.4641 -0.6808 -0.3891
   65MOL   C55744205   1.814   6.831   3.995 -0.1771 -0.6913  0.5895
   65MOL   O55844206   1.887   6.934   3.975  0.3753 -0.0740  0.0287
   65MOL   H55944207   1.009   6.223   3.539 -1.4295 -1.2517  2.1238
   65MOL   H56044208   1.098   6.424   3.470 -0.1774  1.5661  0.4140
   65MOL   H56144209   1.089   6.481   3.626 -0.5028  0.0502 -0.1110
   65MOL   H56244210   1.299   6.299   3.487 -2.5912  1.0599 -0.3181
   65MOL   H56344211   1.330   6.341   3.646  0.0780 -0.0672 -0.1925
   65MOL   H56444212   1.297   6.551   3.430  0.1256 -0.4190 -0.3542
   65MOL   H56544213   1.347   6.575   3.596  2.1013 -1.3982  2.4786
   65MOL   H56644214   1.504   6.379   3.434 -1.3149 -0.5372  1.3932
   65MOL   H56744215   1.557   6.470   3.571 -2.0876  0.1914  0.3943
   65MOL   H56844216   1.535   6.565   3.282 -0.0182 -0.4737  0.5173
   65MOL   H56944217   1.670   6.558   3.403  0.2763  1.7836  1.1290
   65MOL   H57044218   1.532   6.787   3.343 -0.2920  1.2093  1.3937
   65MOL   H57144219   1.452   6.744   3.481 -1.7923  1.7705 -2.2898
   65MOL   H57244220   1.653   6.893   3.526  1.3726  0.4193 -1.0135
   65MOL   H57344221   1.764   6.786   3.465  0.3392  3.8710 -0.0772
   65MOL   H57444222   1.573   6.698   3.694 -0.3362 -0.0749 -0.0787
   65MOL   H57544223   1.717   6.620   3.655  1.3367  1.1626  3.9091
   65MOL   H57644224   1.713   6.900   3.761  1.0667  1.0593 -1.3911
   65MOL   H57744225   1.851   6.824   3.698 -0.9101 -1.6066 -1.8828
   65MOL   H57844226   1.883   6.675   3.878  0.0306  0.2818 -1.1522
   65MOL   H57944227   1.705   6.665   3.911 -0.9224  0.1328  0.2332
   65MOL   N58044228   1.747   6.819   4.106 -0.7360 -0.5254 -0.5414
   65MOL   C58144229   1.740   6.907   4.220 -0.2086  0.3517  0.0987
   65MOL   C58244230   1.608   6.987   4.211  0.0223 -0.5358 -0.9553
   65MOL   C58344231   1.606   7.099   4.318 -0.3892  0.2154 -0.0811
   65MOL   C58444232   1.660   7.060   4.457  0.3422  0.9167 -0.1815
   65MOL   C58544233   1.600   7.142   4.567  0.7369  0.5511 -0.1303
   65MOL   C58644234   1.674   7.143   4.695 -1.1593  0.0586 -0.7032
   65MOL   C58744235   1.673   7.015   4.787  0.2541 -0.5327 -0.1412
   65MOL   C58844236   1.721   7.044   4.926 -0.5774  0.7452  0.0639
   65MOL   C58944237   1.836   7.147   4.942 -0.1682  0.1193  0.1947
   65MOL   C59044238   1.894   7.155   5.082  0.0222 -0.4524 -0.0131
   65MOL   C59144239   1.979   7.043   5.130  0.8111  0.5662  0.1269
   65MOL   O59244240   2.006   6.958   5.045 -0.2548 -0.0597 -0.0092
   65MOL   H59344241   1.695   6.732   4.111 -1.7237  0.1421  1.0055
   65MOL   H59444242   1.737   6.841   4.306 -2.2775  0.1744 -0.0900
   65MOL   H59544243   1.833   6.963   4.227 -0.4109  0.6639  0.2630
   65MOL   H59644244   1.532   6.909   4.225 -1.3865  1.1520  1.0584
   65MOL   H59744245   1.597   7.035   4.114  1.7960  1.3252 -0.2513
   65MOL   H59844246   1.643   7.195   4.284 -1.4571  1.0499  1.0720
   65MOL   H59944247   1.501   7.123   4.338 -0.5074  0.5175 -1.0573
   65MOL   H60044248   1.768   7.075   4.447  0.8442 -3.5492 -2.7063
   65MOL   H60144249   1.647   6.954   4.479  0.8392  0.9248  0.1569
   65MOL   H60244250   1.498   7.110   4.590  0.4098 -0.2261 -2.5212
   65MOL   H60344251   1.596   7.244   4.529 -0.5438  0.5447 -0.0349
   65MOL   H60444252   1.778   7.169   4.675 -0.3987 -0.0738  2.7790
   65MOL   H60544253   1.631   7.216   4.764  1.9810  0.3602  1.0581
   65MOL   H60644254   1.740   6.942   4.741  0.8611 -0.6235  0.8899
   65MOL   H60744255   1.568   6.986   4.794 -0.4557  1.6616 -1.0754
   65MOL   H60844256   1.643   7.085   4.990 -0.6034 -0.9330  1.1540
   65MOL   H60944257   1.741   6.948   4.975  0.5525  0.5921 -0.6956
   65MOL   H61044258   1.797   7.244   4.913 -0.7923 -0.2957 -0.3855
   65MOL   H61144259   1.918   7.126   4.873 -1.0819  1.2254 -1.2701
   65MOL   H61244260   1.820   7.177   5.158  0.1833  0.5875 -0.1433
   65MOL   H61344261   1.947   7.250   5.084 -0.2839 -0.2251 -1.5425
   65MOL   N61444262   2.016   7.043   5.251 -0.2920  0.0027  0.3731
   65MOL   C61544263   2.080   6.924   5.311  0.3058 -0.2237 -0.2312
   65MOL   C61644264   2.138   6.945   5.454  0.0715 -0.4754  0.0531
   65MOL   C61744265   2.238   7.064   5.446  0.3464  0.2494 -0.1487
   65MOL   C61844266   2.333   7.061   5.569 -0.2971 -0.0817  0.3724
   65MOL   C61944267   2.257   7.111   5.693 -0.2433 -0.0949  0.1487
   65MOL   C62044268   2.340   7.133   5.821  0.3042 -0.3988 -0.2762
   65MOL   C62144269   2.255   7.185   5.941 -0.0543  0.2772 -0.0732
   65MOL   C62244270   2.196   7.081   6.042  0.2960 -0.1166 -0.4906
   65MOL   C62344271   2.300   7.008   6.123 -0.4977 -0.0541  0.3811
   65MOL   C62444272   2.329   7.071   6.261  1.1664 -0.1065 -0.6796
   65MOL   C62544273   2.221   7.057   6.362  0.7539  0.5273 -0.3263
   65MOL   O62644274   2.183   6.946   6.399  0.3260  0.0412  0.0013
   65MOL   H62744275   1.978   7.120   5.303 -4.0597 -1.5268  0.0226
   65MOL   H62844276   2.153   6.893   5.236 -0.6094 -0.9563 -0.8378
   65MOL   H62944277   2.001   6.849   5.311  0.4629 -0.4083 -1.9165
   65MOL   H63044278   2.184   6.848   5.472 -0.0539 -0.6319 -0.4595
   65MOL   H63144279   2.052   6.961   5.518  0.4219 -1.3607  0.7469
   65MOL   H63244280   2.301   7.055   5.358  0.3168 -0.1947 -0.1289
   65MOL   H63344281   2.187   7.160   5.446 -0.7671 -0.3064  1.7832
   65MOL   H63444282   2.420   7.127   5.566  1.9448 -2.9546  0.2460
   65MOL   H63544283   2.373   6.962   5.589  1.0934 -0.1797 -2.5709
   65MOL   H63644284   2.186   7.034   5.721  0.2644 -0.2785  0.9632
   65MOL   H63744285   2.202   7.202   5.667  0.9155  1.3148  2.4714
   65MOL   H63844286   2.386   7.040   5.852 -0.7750 -0.6693  0.5493
   65MOL   H63944287   2.414   7.211   5.802 -0.9865  0.3917 -2.2958
   65MOL   H64044288   2.177   7.256   5.915  1.4535  1.2227 -2.1021
   65MOL   H64144289   2.317   7.252   6.000 -0.1571 -0.8344  1.3370
   65MOL   H64244290   2.121   7.128   6.106 -0.6124 -0.9965 -0.9045
   65MOL   H64344291   2.149   7.018   5.968  1.4141 -2.0549  0.4011
   65MOL   H64444292   2.390   6.993   6.064 -0.3898  1.0182  0.2577
   65MOL   H64544293   2.266   6.904   6.127  1.0559 -0.5885 -0.1369
   65MOL   H64644294   2.354   7.177   6.265  1.6843 -0.2662  0.6552
   65MOL   H64744295   2.416   7.014   6.292  0.7108 -0.0368  0.7737
   65MOL   N64844296   2.170   7.172   6.419 -0.5006  0.9686  0.6859
   65MOL   C64944297   2.069   7.171   6.532  0.6991  0.0190 -0.2403
   65MOL   C65044298   2.050   7.319   6.568 -0.3463 -0.6067 -0.4510
   65MOL   C65144299   1.956   7.351   6.688  0.8092 -0.7615 -1.0862
   65MOL   C65244300   1.923   7.501   6.705  0.2682 -0.6478 -0.4558
   65MOL   C65344301   1.813   7.528   6.809  0.0176 -0.3415  0.1308
   65MOL   C65444302   1.777   7.676   6.814  0.3079  0.3449  0.3824
   65MOL   C65544303   1.671   7.705   6.923  0.2136 -0.3855  0.1331
   65MOL   C65644304   1.538   7.648   6.898  0.0367 -0.1683  0.1329
   65MOL   C65744305   1.439   7.673   7.014 -0.5379  0.4607 -0.4509
   65MOL   C65844306   1.297   7.612   6.997  0.3832  0.3663  0.0256
   65MOL   C65944307   1.199   7.624   7.109  0.4150  0.4435 -0.1761
   65MOL   O66044308   1.222   7.670   7.223 -0.7767  0.0795  0.1933
   65MOL   H66144309   2.197   7.258   6.373  1.6249 -0.7706 -1.4521
   65MOL   H66244310   2.098   7.109   6.617 -0.7813  0.6327  0.7313
   65MOL   H66344311   1.976   7.126   6.495  0.2393  0.1212  0.7930
   65MOL   H66444312   2.010   7.372   6.481 -3.9764 -3.1443 -0.4427
   65MOL   H66544313   2.142   7.355   6.613 -0.5334 -0.1514 -0.4232
   65MOL   H66644314   1.860   7.304   6.665 -0.0158  1.1704 -1.7195
   65MOL   H66744315   1.992   7.297   6.776  1.2471  1.4068  0.0961
   65MOL   H66844316   1.912   7.560   6.615 -1.5449  0.2546  0.3331
   65MOL   H66944317   2.014   7.543   6.746  0.6257 -0.6249 -1.2714
   65MOL   H67044318   1.843   7.498   6.909 -1.1809 -0.2228  0.5343
   65MOL   H67144319   1.727   7.471   6.774  1.7995 -1.7581 -2.0242
   65MOL   H67244320   1.860   0.026   6.838  0.2983  0.0128  1.3485
   65MOL   H67344321   1.736   0.006   6.724  0.3023  1.8821  1.1510
   65MOL   H67444322   1.664   0.096   6.946  1.8538 -0.6043  1.7972
   65MOL   H67544323   1.700   7.661   7.019 -0.4186 -1.7230 -0.2861
   65MOL   H67644324   1.495   7.693   6.808 -1.8362 -2.0037  0.0634
   65MOL   H67744325   1.547   7.541   6.881  0.2936 -0.5548  2.5935
   65MOL   H67844326   1.427   0.064   7.032 -1.6579  0.2668  0.0462
   65MOL   H67944327   1.481   7.628   7.104  0.6483  1.5872 -0.4216
   65MOL   H68044328   1.302   7.507   6.969  0.7236  0.7673 -1.4822
   65MOL   H68144329   1.258   7.659   6.907  0.8850 -0.4531 -0.6372
   65MOL   H68244330   1.102   7.585   7.078  1.1615 -1.5111 -0.1252
   66MOL     N144331   3.072   7.011   7.712 -0.0611 -0.1129  0.0135
   66MOL     C244332   3.066   7.059   0.134  0.0213  0.7028 -0.5523
   66MOL     C344333   3.106   6.947   0.227 -0.9303  0.8141  0.2070
   66MOL     C444334   3.046   6.811   0.214 -0.2544 -0.4477 -0.2040
   66MOL     C544335   2.905   6.793   0.288 -0.5362 -0.4997 -0.8385
   66MOL     C644336   2.822   6.671   0.234 -0.5122  0.2598 -0.9755
   66MOL     C744337   2.677   6.655   0.287 -0.1325 -0.2073 -0.3293
   66MOL     C844338   2.603   6.538   0.222 -0.8952  0.8575 -0.9771
   66MOL     C944339   2.555   6.575   0.075  0.6682 -0.0739  0.1209
   66MOL    C1044340   2.401   6.604   0.081 -0.6209 -0.0237  0.2673
   66MOL    C1144341   2.350   6.662   7.664 -0.1394 -0.0246  0.0919
   66MOL    C1244342   2.196   6.684   7.672 -0.1300  0.7938 -0.0859
   66MOL    O1344343   2.140   6.666   0.063 -0.0676 -0.4595 -0.2812
   66MOL    H1444344   3.021   7.081   7.660  1.6945  0.5621 -0.8531
   66MOL    H1544345   2.960   7.077   0.151  0.5663  1.5628  2.0996
   66MOL    H1644346   3.132   7.143   0.152 -0.1504  0.8352 -0.5363
   66MOL    H1744347   3.089   6.971   0.332 -0.8722 -2.8160  1.1405
   66MOL    H1844348   3.215   6.947   0.230 -0.9114 -0.1075 -0.1167
   66MOL    H1944349   3.031   6.785   0.109  1.0570 -1.5908 -0.1180
   66MOL    H2044350   3.123   6.739   0.242 -0.2389  0.9346  3.6543
   66MOL    H2144351   2.851   6.884   0.262 -1.4931 -0.5976  0.7773
   66MOL    H2244352   2.917   6.776   0.395 -0.9901  0.1703 -0.6782
   66MOL    H2344353   2.870   6.574   0.248 -0.4805  0.0147 -2.6795
   66MOL    H2444354   2.814   6.696   0.128 -0.3004 -0.3030 -1.1284
   66MOL    H2544355   2.686   6.646   0.395  0.5147 -0.1644 -0.3770
   66MOL    H2644356   2.610   6.740   0.271 -1.5239 -1.6925 -2.8107
   66MOL    H2744357   2.517   6.505   0.280  0.4963  1.4503  1.5089
   66MOL    H2844358   2.673   6.456   0.205  0.2904  1.6208  0.1078
   66MOL    H2944359   2.613   6.655   0.029 -0.3945  1.2082  0.9682
   66MOL    H3044360   2.573   6.486   0.015 -0.2174 -0.2543  0.1108
   66MOL    H3144361   2.373   6.667   0.165 -2.1403  2.6829 -2.1736
   66MOL    H3244362   2.346   6.511   0.099  0.8084 -0.4369  2.6794
   66MOL    H3344363   2.361   6.594   7.580 -0.9361  0.4170 -0.3785
   66MOL    H3444364   2.402   6.749   7.623 -3.2280  2.0009  0.2206
   66MOL    H3544365   2.995   6.946   7.701 -2.0315  2.4295 -1.9203
   66MOL    N3644366   2.141   6.736   7.566  0.0995 -0.1950 -0.4193
   66MOL    C3744367   1.998   6.755   7.547 -0.2829  0.1148 -0.1353
   66MOL    C3844368   1.959   6.721   7.410  0.6410  0.3724  0.5605
   66MOL    C3944369   1.814   6.771   7.366 -0.3218  0.6658 -0.8794
   66MOL    C4044370   1.770   6.702   7.236 -0.5438 -0.3767  0.7515
   66MOL    C4144371   1.618   6.710   7.208  0.6720  0.3471 -0.4937
   66MOL    C4244372   1.575   6.853   7.185  0.5689 -0.1629 -0.8021
   66MOL    C4344373   1.427   6.872   7.151  0.3223  0.0862  0.1725
   66MOL    C4444374   1.340   6.861   7.279  0.1359  0.0146 -0.1069
   66MOL    C4544375   1.204   6.913   7.268 -0.3928  0.5252  0.7092
   66MOL    C4644376   1.119   6.905   7.394  0.3135  0.2496 -0.0013
   66MOL    C4744377   0.982   6.854   7.363 -0.9407  0.1545  0.3096
   66MOL    O4844378   0.883   6.918   7.342 -0.2956 -0.4995 -0.3880
   66MOL    H4944379   2.202   6.755   7.487 -0.5429 -0.6061 -1.0240
   66MOL    H5044380   1.955   6.702   7.631  0.8113 -0.9248 -0.2091
   66MOL    H5144381   1.990   6.862   7.564  1.3910  0.5996 -2.1309
   66MOL    H5244382   1.970   6.613   7.412 -2.6882 -0.0328  0.1829
   66MOL    H5344383   2.024   6.761   7.333 -0.8145  0.6141 -0.5669
   66MOL    H5444384   1.745   6.749   7.448 -0.9355 -1.3356 -1.9186
   66MOL    H5544385   1.817   6.880   7.355 -3.2470  0.6748 -2.0442
   66MOL    H5644386   1.797   6.597   7.250  0.5545 -0.2186 -0.0829
   66MOL    H5744387   1.826   6.748   7.155 -0.9541 -1.0500  0.0831
   66MOL    H5844388   1.562   6.660   7.286  1.9387 -0.7725 -0.2783
   66MOL    H5944389   1.592   6.655   7.118 -1.0224  0.0507  0.1700
   66MOL    H6044390   1.599   6.921   7.267  1.7630 -0.9210 -0.5121
   66MOL    H6144391   1.636   6.883   7.100 -1.6559  1.3906 -1.9036
   66MOL    H6244392   1.401   6.802   7.071 -0.4394  0.6427 -0.0621
   66MOL    H6344393   1.413   6.972   7.111  2.8456  0.2101 -0.4866
   66MOL    H6444394   1.339   6.761   7.321 -0.5883 -2.3296 -5.2658
   66MOL    H6544395   1.387   6.908   7.365  0.9568  1.5546 -1.3586
   66MOL    H6644396   1.170   6.862   7.177 -1.1584 -0.4457  1.5263
   66MOL    H6744397   1.200   7.019   7.243 -0.3940 -0.2496 -2.8198
   66MOL    H6844398   1.111   7.008   7.429  1.0389  0.0993  0.6238
   66MOL    H6944399   1.160   6.857   7.483  0.3443 -3.1603 -1.7499
   66MOL    N7044400   0.989   6.723   7.354 -0.3952 -0.1989 -1.1225
   66MOL    C7144401   0.880   6.646   7.299  0.0550 -0.2343 -0.0893
   66MOL    C7244402   0.914   6.601   7.158  0.4670  0.2906  0.3025
   66MOL    C7344403   1.046   6.526   7.152  0.0480  0.2987  0.1331
   66MOL    C7444404   1.097   6.508   7.010  0.5076  0.1433  0.1738
   66MOL    C7544405   1.208   6.606   6.957 -0.0044  0.4933  0.0010
   66MOL    C7644406   1.250   6.589   6.812 -0.7985 -0.0953 -0.3093
   66MOL    C7744407   1.341   6.702   6.763  0.6646  0.1402 -0.1818
   66MOL    C7844408   1.369   6.699   6.612  0.9720 -0.0004  0.2098
   66MOL    C7944409   1.459   6.811   6.552 -0.1510 -0.3032 -0.1287
   66MOL    C8044410   1.408   6.959   6.565  0.2434  0.1043  0.2120
   66MOL    C8144411   1.269   6.985   6.502  0.2290  0.0607 -0.0539
   66MOL    O8244412   1.243   6.930   6.393 -0.1380  0.0200 -0.2096
   66MOL    H8344413   1.077   6.681   7.378  0.5442  2.0179 -0.5819
   66MOL    H8444414   0.872   6.555   7.359 -2.7419 -0.4502 -0.7184
   66MOL    H8544415   0.784   6.697   7.310 -1.1702 -2.3450 -0.7603
   66MOL    H8644416   0.926   6.693   7.100 -1.3912 -0.4441 -1.2915
   66MOL    H8744417   0.830   6.546   7.116 -0.5409  0.4819  1.9910
   66MOL    H8844418   1.123   6.571   7.214  0.7575 -0.9042  0.1336
   66MOL    H8944419   1.028   6.427   7.193 -1.9190  1.2846  1.7239
   66MOL    H9044420   1.025   6.521   6.929  1.2980 -0.5650 -0.6483
   66MOL    H9144421   1.140   6.409   6.998 -0.2890  0.1378 -2.9817
   66MOL    H9244422   1.290   6.613   7.029  0.7013  0.3524 -0.7721
   66MOL    H9344423   1.155   6.700   6.950 -0.9259  0.0401  0.8213
   66MOL    H9444424   1.290   6.492   6.785 -0.5884  0.1879 -1.0409
   66MOL    H9544425   1.158   6.604   6.754 -2.2047  3.1862  2.5374
   66MOL    H9644426   1.435   6.700   6.818  0.7168  1.1216 -0.2312
   66MOL    H9744427   1.293   6.797   6.788  0.5889  0.4882 -1.6145
   66MOL    H9844428   1.409   6.608   6.566  0.1728 -0.5388  0.5617
   66MOL    H9944429   1.275   6.695   6.557  3.1102  2.4593 -3.9002
   66MOL   H10044430   1.479   6.784   6.449 -2.9566  2.5760 -1.5245
   66MOL   H10144431   1.559   6.810   6.594  0.3140 -1.2029 -1.2352
   66MOL   H10244432   1.477   7.029   6.518  0.2918 -0.6626 -0.8705
   66MOL   H10344433   1.403   6.982   6.671 -0.3379 -1.3652  0.5171
   66MOL   N10444434   1.195   7.073   6.571  0.8846  0.0510  1.0035
   66MOL   C10544435   1.060   7.106   6.553  0.4003 -0.9085  0.7808
   66MOL   C10644436   0.977   7.089   6.680  0.4458  0.0728 -0.3329
   66MOL   C10744437   0.987   6.953   6.752 -0.0749  0.3580 -0.1167
   66MOL   C10844438   0.882   6.899   6.838 -0.2661 -0.2513  0.3466
   66MOL   C10944439   0.751   6.866   6.768  0.4418  0.0677  0.2463
   66MOL   C11044440   0.762   6.746   6.669  0.0888  0.9666 -0.0668
   66MOL   C11144441   0.798   6.604   6.723  0.0240  0.1224  0.5436
   66MOL   C11244442   0.777   6.502   6.602 -0.7263  0.5600  0.4764
   66MOL   C11344443   0.840   6.533   6.468  0.0139 -0.3167 -0.2823
   66MOL   C11444444   0.993   6.568   6.472  0.2534  0.3004 -0.2656
   66MOL   C11544445   1.069   6.549   6.338  0.7290  0.2022  0.1347
   66MOL   O11644446   1.013   6.481   6.258  0.2865 -0.0781 -0.3749
   66MOL   H11744447   1.245   7.104   6.652 -0.7205  0.5750  1.8016
   66MOL   H11844448   1.055   7.213   6.536 -1.4561 -1.3294 -1.5062
   66MOL   H11944449   1.019   7.058   6.464  1.5201 -0.6886  0.1241
   66MOL   H12044450   0.873   7.103   6.654  0.5067  3.7401  1.0039
   66MOL   H12144451   1.000   7.155   6.764  2.5175 -2.0879  0.8845
   66MOL   H12244452   1.011   6.876   6.679  4.0875  0.1720  1.3326
   66MOL   H12344453   1.081   6.960   6.806 -1.1358 -0.1703  1.8424
   66MOL   H12444454   0.874   6.966   6.923 -1.2293 -0.3466  0.3291
   66MOL   H12544455   0.927   6.810   6.881  0.7718  0.0118 -0.1795
   66MOL   H12644456   0.723   6.960   6.721  1.2131  0.3274  0.2983
   66MOL   H12744457   0.671   6.847   6.839  0.5701 -1.0261  0.1093
   66MOL   H12844458   0.661   6.742   6.629  0.8450  0.4940 -1.9737
   66MOL   H12944459   0.826   6.782   6.589 -0.3547  2.0049  0.0473
   66MOL   H13044460   0.735   6.577   6.808 -1.9327  0.9208 -0.6131
   66MOL   H13144461   0.903   6.614   6.749  0.2731  0.5668 -0.6149
   66MOL   H13244462   0.819   6.409   6.639  1.1881  1.5393  0.8321
   66MOL   H13344463   0.671   6.482   6.585 -0.8329  0.8246  0.8141
   66MOL   H13444464   0.785   6.618   6.428 -0.7164 -1.9674 -2.9385
   66MOL   H13544465   0.823   6.452   6.398  1.0160 -0.5362 -0.2865
   66MOL   H13644466   1.041   6.498   6.541  2.1866  2.1784  0.3203
   66MOL   H13744467   1.015   6.661   6.524  2.4319 -0.0787 -0.4538
   66MOL   N13844468   1.180   6.615   6.315 -0.0038 -0.5881  0.1042
   66MOL   C13944469   1.255   6.599   6.188  0.3350  0.3312  0.1307
   66MOL   C14044470   1.390   6.670   6.196 -0.4000  0.6110  0.2180
   66MOL   C14144471   1.483   6.640   6.076 -0.4686 -0.8209  0.4094
   66MOL   C14244472   1.513   6.750   5.970  0.3222  0.0076 -0.0624
   66MOL   C14344473   1.399   6.785   5.872 -0.8046 -0.0236 -0.2499
   66MOL   C14444474   1.442   6.891   5.778  0.1259  0.4623  0.9784
   66MOL   C14544475   1.342   6.909   5.665 -0.1279  0.0818  0.2196
   66MOL   C14644476   1.390   6.960   5.533  0.1440  0.6515  0.1365
   66MOL   C14744477   1.470   6.853   5.443  1.0126  0.1576 -1.0813
   66MOL   C14844478   1.528   6.895   5.311 -0.3162  0.3980 -0.1863
   66MOL   C14944479   1.609   7.027   5.316 -0.3108  0.6717 -0.3063
   66MOL   O15044480   1.721   7.030   5.373  0.6717 -0.1526  0.5084
   66MOL   H15144481   1.216   6.678   6.385 -3.0369  1.7765 -0.3718
   66MOL   H15244482   1.266   6.495   6.158 -0.3240  0.1378  0.5474
   66MOL   H15344483   1.183   6.640   6.118  0.7349 -1.4296 -1.3546
   66MOL   H15444484   1.438   6.641   6.290 -2.3776  2.8243  1.9805
   66MOL   H15544485   1.367   6.776   6.191  0.1794  0.6704 -1.4422
   66MOL   H15644486   1.579   6.606   6.113 -0.5226 -0.4099  0.9303
   66MOL   H15744487   1.456   6.555   6.014  1.4094 -0.5087 -0.8941
   66MOL   H15844488   1.602   6.721   5.915  2.0505 -1.5769  3.3871
   66MOL   H15944489   1.526   6.852   6.007  1.6360 -0.2738  0.2550
   66MOL   H16044490   1.301   6.798   5.917 -0.8608  0.3616 -0.4852
   66MOL   H16144491   1.385   6.692   5.816  1.7330  0.8188 -2.3774
   66MOL   H16244492   1.465   6.978   5.840 -0.0093  0.6925  0.7035
   66MOL   H16344493   1.531   6.856   5.727 -1.1843 -0.7296 -0.5322
   66MOL   H16444494   1.268   6.980   5.703 -2.4833 -2.3330  0.2655
   66MOL   H16544495   1.289   6.818   5.640 -1.8326  0.4693  2.2783
   66MOL   H16644496   1.314   6.996   5.464  0.6846  1.5461 -0.0047
   66MOL   H16744497   1.439   7.052   5.565  0.6200  0.5967 -0.4217
   66MOL   H16844498   1.394   6.781   5.413 -0.1363  0.2725  1.4786
   66MOL   H16944499   1.549   6.809   5.504 -2.2806 -0.9159  2.5462
   66MOL   H17044500   1.441   6.910   5.248 -1.8286 -1.5054  1.3691
   66MOL   H17144501   1.599   6.827   5.264 -0.3453  0.6584 -0.6132
   66MOL   N17244502   1.535   7.132   5.272 -0.3228  0.2984  0.0638
   66MOL   C17344503   1.559   7.277   5.295  0.8305  0.6971  0.5135
   66MOL   C17444504   1.476   7.325   5.415  0.0799  0.2210 -0.0733
   66MOL   C17544505   1.324   7.303   5.402  0.2629  0.1316 -0.8753
   66MOL   C17644506   1.252   7.315   5.538 -0.6358 -0.3082 -0.6500
   66MOL   C17744507   1.108   7.272   5.537  0.1158 -0.4893 -0.0280
   66MOL   C17844508   1.048   7.289   5.674 -0.4043 -0.0717 -0.1194
   66MOL   C17944509   0.896   7.262   5.679 -0.7222  0.3700 -0.1951
   66MOL   C18044510   0.850   7.233   5.821 -0.5605  0.0462 -0.2842
   66MOL   C18144511   0.694   7.237   5.833  0.5091 -0.1342 -0.3260
   66MOL   C18244512   0.648   7.147   5.952 -0.4244 -0.4957 -0.4011
   66MOL   C18344513   0.655   7.220   6.088  0.2319  0.1177 -0.3916
   66MOL   O18444514   0.640   7.342   6.095  0.1800 -0.6308 -0.0576
   66MOL   H18544515   1.449   7.099   5.231 -0.6513  1.6478 -0.3489
   66MOL   H18644516   1.663   7.299   5.321  0.4216 -1.1866  4.0613
   66MOL   H18744517   1.536   7.323   5.199 -1.2961  1.4437  1.3562
   66MOL   H18844518   1.500   7.429   5.440  0.2673 -0.3775  2.3324
   66MOL   H18944519   1.514   7.272   5.502 -0.5237  1.4812  0.9856
   66MOL   H19044520   1.286   7.373   5.327 -0.3725  0.9831  0.2284
   66MOL   H19144521   1.306   7.199   5.375 -0.2805 -0.5124  1.8485
   66MOL   H19244522   1.268   7.414   5.578 -2.5050  0.1002 -0.9073
   66MOL   H19344523   1.312   7.260   5.610 -0.9147 -0.5635 -0.6124
   66MOL   H19444524   1.090   7.172   5.497 -1.1177 -0.2569 -0.0502
   66MOL   H19544525   1.045   7.332   5.471 -2.0630 -0.1674  2.2951
   66MOL   H19644526   1.094   7.212   5.735 -2.1188  0.8508  2.4039
   66MOL   H19744527   1.066   7.386   5.721 -2.5929 -0.7560  2.2283
   66MOL   H19844528   0.860   7.181   5.616 -0.0279  0.5296 -0.7986
   66MOL   H19944529   0.845   7.346   5.632  0.7925  0.0823 -2.4050
   66MOL   H20044530   0.903   7.142   5.847  0.7940  0.2979 -2.0427
   66MOL   H20144531   0.889   7.313   5.884 -0.0143  1.5204 -2.4039
   66MOL   H20244532   0.652   7.192   5.743 -0.1234  0.5997 -0.4050
   66MOL   H20344533   0.651   7.336   5.846  1.2697  0.1755 -0.1298
   66MOL   H20444534   0.698   7.051   5.959 -1.7696 -1.2754 -1.1555
   66MOL   H20544535   0.543   7.120   5.940 -0.7401 -0.1477  1.4366
   66MOL   N20644536   0.694   7.143   6.191  0.3915 -0.4130  0.9501
   66MOL   C20744537   0.668   7.182   6.329  0.6002  0.6568 -0.5304
   66MOL   C20844538   0.577   7.077   6.397 -0.3944 -0.1891 -0.0102
   66MOL   C20944539   0.538   7.107   6.545  0.4353  0.2227  0.1706
   66MOL   C21044540   0.448   6.998   6.607 -0.8109 -0.7911  0.6297
   66MOL   C21144541   0.419   7.012   6.756 -0.3240 -0.3807 -0.3901
   66MOL   C21244542   0.306   7.114   6.781 -0.1716  0.2365 -0.0376
   66MOL   C21344543   0.288   7.146   6.928  0.2795  0.0653 -0.2282
   66MOL   C21444544   0.175   7.244   6.971 -0.8790  0.0443 -0.3377
   66MOL   C21544545   0.193   7.380   6.915 -0.3952 -0.0017 -0.1883
   66MOL   C21644546   0.073   7.475   6.942 -0.0742  0.4636 -0.1173
   66MOL   C21744547   0.089   7.618   6.921  0.1071  0.5073 -0.1511
   66MOL   O21844548   0.185   7.675   6.979 -1.0477  0.4826 -0.2269
   66MOL   H21944549   0.706   7.045   6.167 -1.4227 -0.2560 -0.8051
   66MOL   H22044550   0.617   7.277   6.347 -2.2644 -1.3054  2.1455
   66MOL   H22144551   0.760   7.193   6.387 -1.3287  0.6528  2.6570
   66MOL   H22244552   0.620   6.977   6.400  2.1661  0.8566 -0.4101
   66MOL   H22344553   0.488   7.071   6.336 -0.4356  0.8469 -0.0611
   66MOL   H22444554   0.624   7.133   6.607  1.5267  0.6171 -1.5055
   66MOL   H22544555   0.486   7.203   6.544 -2.3999 -1.2379  0.6604
   66MOL   H22644556   0.485   6.896   6.598  1.2301 -0.1851  1.8063
   66MOL   H22744557   0.352   6.992   6.556 -1.5540 -0.6023  1.9774
   66MOL   H22844558   0.512   7.033   6.808 -0.7825  1.8819 -0.4196
   66MOL   H22944559   0.386   6.921   6.806  1.5517 -1.2300 -0.6666
   66MOL   H23044560   0.338   7.202   6.726  1.1669 -0.1406  0.1102
   66MOL   H23144561   0.215   7.067   6.744 -1.2171  0.0271  2.7241
   66MOL   H23244562   0.380   7.194   6.961  1.6936 -1.6330 -1.6594
   66MOL   H23344563   0.280   7.048   6.975 -1.7013  0.7641  0.9517
   66MOL   H23444564   0.075   7.219   6.937 -1.3390  2.5674 -0.9334
   66MOL   H23544565   0.180   7.247   7.080  3.5662 -0.0925 -0.4646
   66MOL   H23644566   0.205   7.363   6.808 -0.9231  1.0212 -0.4234
   66MOL   H23744567   0.288   7.425   6.942 -1.2920  2.7932 -1.4769
   66MOL   H23844568   0.037   7.466   7.045  0.2076  0.5571 -0.0097
   66MOL   H23944569   7.705   7.444   6.879  0.4475  0.7675 -0.9640
   66MOL   N24044570   7.707   7.687   6.863 -0.0222  0.1115 -0.3565
   66MOL   C24144571   7.694   0.116   6.887  0.0720 -0.3421 -1.1243
   66MOL   C24244572   7.611   0.146   7.015  0.9087  0.4961  0.0422
   66MOL   C24344573   7.633   0.286   7.073  0.5644 -0.0942  0.1538
   66MOL   C24444574   7.590   0.401   6.986  0.0421 -0.9876 -0.2201
   66MOL   C24544575   7.441   0.412   6.971  0.0595  0.2364 -0.5473
   66MOL   C24644576   7.374   0.490   6.864  0.2657 -0.0081  0.1035
   66MOL   C24744577   7.224   0.459   6.833  0.2044  0.1332  0.0381
   66MOL   C24844578   7.203   0.310   6.793 -0.1057 -0.2041  0.6123
   66MOL   C24944579   7.289   0.277   6.666  0.0893  0.2192 -0.3294
   66MOL   C25044580   7.258   0.137   6.610  0.3893 -0.2322  0.2431
   66MOL   C25144581   7.296   0.027   6.713  0.3529 -0.2439  0.8560
   66MOL   O25244582   7.415   7.714   6.740  0.3151 -0.4691 -0.0685
   66MOL   H25344583   7.623   7.638   6.836  0.7216 -2.0521  1.1763
   66MOL   H25444584   7.640   0.155   6.801 -0.2397 -3.4821 -2.4291
   66MOL   H25544585   0.076   0.163   6.896 -1.2149  1.9051  2.3855
   66MOL   H25644586   7.645   0.070   7.085 -0.9644 -1.3254 -0.9736
   66MOL   H25744587   7.506   0.122   7.002  0.6467  0.6601  1.7444
   66MOL   H25844588   7.581   0.289   7.169 -0.0929  2.2982 -0.2405
   66MOL   H25944589   0.024   0.292   7.092  0.8767 -0.4499 -1.4558
   66MOL   H26044590   7.618   0.383   6.883  1.3912 -2.1557  0.3416
   66MOL   H26144591   7.631   0.495   7.024 -1.9163  0.3562 -1.3035
   66MOL   H26244592   7.401   0.464   7.058  0.3580  1.4439 -1.1074
   66MOL   H26344593   7.404   0.310   6.978  1.1980 -0.1446 -0.0167
   66MOL   H26444594   7.369   0.594   6.897 -1.6910  0.4260 -1.4144
   66MOL   H26544595   7.418   0.485   6.764 -0.5398  0.0519 -0.2659
   66MOL   H26644596   7.188   0.526   6.755  0.2775  1.0480  0.7960
   66MOL   H26744597   7.155   0.479   6.915 -0.5323  0.9291 -0.7655
   66MOL   H26844598   7.241   0.254   6.879  0.3374  0.7192  1.0249
   66MOL   H26944599   7.098   0.285   6.776 -0.2756  2.2367 -2.3812
   66MOL   H27044600   7.394   0.276   6.697  0.5464 -2.7387 -1.7844
   66MOL   H27144601   7.282   0.358   6.594 -1.5774 -0.5881 -1.0830
   66MOL   H27244602   7.323   0.120   6.524 -0.6158  1.3138 -0.8494
   66MOL   H27344603   7.156   0.124   6.574  1.0903 -1.4951 -1.3856
   66MOL   N27444604   7.193   7.690   6.788  0.5105  0.9101  0.6624
   66MOL   C27544605   7.213   7.601   6.899  0.0730 -0.0306 -0.3163
   66MOL   C27644606   7.145   7.668   7.020 -0.3826  0.1779  0.8513
   66MOL   C27744607   7.159   7.584   7.154  0.6447 -0.2243  0.1632
   66MOL   C27844608   7.307   7.534   7.191  0.1739 -0.4191 -0.0751
   66MOL   C27944609   7.394   7.641   7.265  1.0350  0.4120 -0.1783
   66MOL   C28044610   7.539   7.592   7.267 -0.8171 -0.7700  0.7706
   66MOL   C28144611   7.624   7.684   7.350 -0.6709 -0.5805  0.3767
   66MOL   C28244612   0.065   7.673   7.308 -0.5416  0.1910 -0.1198
   66MOL   C28344613   0.158   0.012   7.419 -1.1583 -0.4026 -0.7065
   66MOL   C28444614   0.312   7.685   7.397  0.4041  0.1175  0.3845
   66MOL   C28544615   0.328   7.530   7.418  0.0116 -0.4208  0.2719
   66MOL   O28644616   0.266   7.477   7.508  0.6490  0.0909  0.4390
   66MOL   H28744617   7.100   0.012   6.779  1.0716  1.9867 -0.8894
   66MOL   H28844618   7.319   7.584   6.919  0.3616  0.3999 -1.4416
   66MOL   H28944619   7.172   7.502   6.880  0.1209  0.4858 -3.3709
   66MOL   H29044620   7.044   7.694   6.989  0.4370  2.0408 -0.3511
   66MOL   H29144621   7.193   0.048   7.040  1.7985 -0.8280  0.5986
   66MOL   H29244622   7.102   7.638   7.230  2.9284 -1.2433  2.6802
   66MOL   H29344623   7.095   7.497   7.143 -0.4281  0.8141 -2.3334
   66MOL   H29444624   7.356   7.502   7.099  0.7583  0.6353 -0.1428
   66MOL   H29544625   7.289   7.444   7.249 -0.9858  0.9402  1.7330
   66MOL   H29644626   7.350   7.660   7.363 -0.0607 -2.6111 -0.0353
   66MOL   H29744627   7.385   0.027   7.227 -1.5315 -0.2452 -1.4537
   66MOL   H29844628   7.547   7.491   7.307  1.3593 -0.4180  1.2794
   66MOL   H29944629   7.573   7.590   7.163 -1.3473  0.8152  0.5521
   66MOL   H30044630   7.617   7.664   7.457 -2.6432  0.5428  0.4817
   66MOL   H30144631   7.600   0.074   7.341  1.3804 -0.2205 -1.3030
   66MOL   H30244632   0.093   7.576   7.269  2.0159  1.5599 -1.8863
   66MOL   H30344633   0.075   0.017   7.217  0.6670 -1.1200 -0.8696
   66MOL   H30444634   0.117   7.701   7.517  1.8397 -0.8239  0.4996
   66MOL   H30544635   0.155   0.120   7.404  2.1778 -0.1815 -0.2695
   66MOL   H30644636   0.369   0.020   7.475  1.3714 -3.2249  1.9520
   66MOL   H30744637   0.350   7.715   7.300  2.5494 -0.8131  0.9164
   66MOL   N30844638   0.401   7.463   7.328 -0.1262 -0.6922  0.9456
   66MOL   C30944639   0.467   7.513   7.208 -0.3514 -0.1636 -0.0994
   66MOL   C31044640   0.590   7.602   7.228 -0.3548  0.4963  0.0726
   66MOL   C31144641   0.689   7.543   7.336 -0.8310 -0.6592 -0.1801
   66MOL   C31244642   0.822   7.623   7.354  0.0248  0.0026  0.4101
   66MOL   C31344643   0.816   0.062   7.377 -0.5149 -0.1733  0.1047
   66MOL   C31444644   0.951   0.143   7.351 -0.2360  0.0844  0.5516
   66MOL   C31544645   0.928   0.286   7.399  0.2764 -0.0425 -0.3035
   66MOL   C31644646   0.838   0.366   7.312  0.0554  0.2956  0.7220
   66MOL   C31744647   0.819   0.511   7.361  0.2759 -0.1257 -0.2711
   66MOL   C31844648   0.678   0.552   7.398 -0.6107  0.1232 -0.0781
   66MOL   C31944649   0.598   0.572   7.274 -0.8639 -0.0857  0.3168
   66MOL   O32044650   0.630   0.655   7.186 -0.2771 -0.1169 -0.0564
   66MOL   H32144651   0.426   7.369   7.356 -0.2682 -1.5146 -1.6424
   66MOL   H32244652   0.396   7.546   7.132  1.3293  0.3645 -1.4927
   66MOL   H32344653   0.493   7.415   7.168 -0.4110 -0.4183  0.4920
   66MOL   H32444654   0.549   7.701   7.248 -1.2321  0.2950 -0.7154
   66MOL   H32544655   0.637   7.607   7.130  0.8562 -1.7335  0.5087
   66MOL   H32644656   0.635   7.555   7.430  0.5285  1.1628  0.4002
   66MOL   H32744657   0.703   7.437   7.317  1.9639 -0.1505 -1.1934
   66MOL   H32844658   0.905   7.608   7.285  0.7770  0.5020  1.1948
   66MOL   H32944659   0.865   7.594   7.450 -0.1825 -2.3888 -0.1974
   66MOL   H33044660   0.795   0.079   7.483 -1.5329  0.3116 -0.1610
   66MOL   H33144661   0.733   0.102   7.318 -0.6628 -1.3837 -0.5066
   66MOL   H33244662   1.031   0.088   7.400 -1.2940 -1.5295  0.4953
   66MOL   H33344663   0.974   0.140   7.245 -2.4512 -0.1469  0.0536
   66MOL   H33444664   1.013   0.352   7.409 -2.1104  2.8207  1.9459
   66MOL   H33544665   0.881   0.289   7.497 -2.4732  1.4367 -1.5859
   66MOL   H33644666   0.879   0.368   7.211 -0.8297  3.0662  0.3791
   66MOL   H33744667   0.744   0.312   7.320  1.5229 -2.8281 -2.0056
   66MOL   H33844668   0.866   0.585   7.295 -0.4658  1.3500  0.8510
   66MOL   H33944669   0.870   0.530   7.455 -1.1059  0.7705  0.2980
   66MOL   H34044670   0.691   0.649   7.445  0.0285  1.1423 -2.3060
   66MOL   H34144671   0.625   0.499   7.477 -0.6503  0.9195  0.4292
   66MOL   N34244672   0.500   0.483   7.260  0.1319 -0.5354  0.1503
   66MOL   C34344673   0.411   0.483   7.137 -0.1524 -0.1575 -0.7238
   66MOL   C34444674   0.367   0.344   7.088  0.6226 -0.1348 -0.0190
   66MOL   C34544675   0.478   0.264   7.012  0.2058  0.1299  0.2419
   66MOL   C34644676   0.437   0.129   6.967 -0.3703 -0.1468  0.6667
   66MOL   C34744677   0.547   0.055   6.895 -0.1987 -0.3528  0.0088
   66MOL   C34844678   0.488   7.638   6.843 -0.2405  0.2935 -0.1131
   66MOL   C34944679   0.586   7.564   6.744  0.3515 -0.0529  0.4777
   66MOL   C35044680   0.653   7.438   6.809  0.4395  0.2199 -0.0221
   66MOL   C35144681   0.779   7.405   6.730  0.0382  0.1293 -0.3088
   66MOL   C35244682   0.888   7.511   6.744 -0.2010 -0.2828 -0.4954
   66MOL   C35344683   1.027   7.459   6.734  0.0321 -0.0843  0.5183
   66MOL   O35444684   1.078   7.388   6.819  0.2071 -0.3041  0.2484
   66MOL   H35544685   0.469   0.423   7.335 -1.5763  2.2545  1.7599
   66MOL   H35644686   0.325   0.545   7.162 -0.3410 -1.0159  0.8293
   66MOL   H35744687   0.449   0.547   7.058  1.5081 -1.1548 -0.7613
   66MOL   H35844688   0.283   0.353   7.018  0.8593 -2.8324 -0.6948
   66MOL   H35944689   0.336   0.281   7.171  1.1898 -0.9097 -0.3966
   66MOL   H36044690   0.509   0.322   6.925  1.6335 -2.2138 -0.8609
   66MOL   H36144691   0.574   0.253   7.061  0.2755 -0.2875  0.0095
   66MOL   H36244692   0.354   0.149   6.898 -0.3747  2.1795  1.3141
   66MOL   H36344693   0.394   0.081   7.054  0.8517 -1.0228  0.7966
   66MOL   H36444694   0.626   0.033   6.967 -1.1794  0.8800  1.4822
   66MOL   H36544695   0.584   0.120   6.815 -0.2617  1.3260  1.3211
   66MOL   H36644696   0.460   7.563   6.917 -3.0744  0.3781 -1.0380
   66MOL   H36744697   0.401   7.659   6.780 -0.4605  0.0321  0.1050
   66MOL   H36844698   0.655   7.634   6.696 -0.8119  1.3078  0.7241
   66MOL   H36944699   0.521   7.528   6.664 -1.9621 -1.8237  3.0809
   66MOL   H37044700   0.684   7.449   6.912 -0.3481  0.8561  0.1568
   66MOL   H37144701   0.592   7.347   6.805  0.0784  0.4776 -0.6440
   66MOL   H37244702   0.759   7.402   6.623  1.6410 -1.1423 -0.5909
   66MOL   H37344703   0.818   7.308   6.762 -1.2431 -0.3072 -0.0507
   66MOL   H37444704   0.884   7.536   6.850 -1.4257 -1.1208 -0.3261
   66MOL   H37544705   0.869   7.603   6.690 -0.4256  0.5132  0.9202
   66MOL   N37644706   1.094   7.492   6.627 -0.2871  0.2471  0.3302
   66MOL   C37744707   1.224   7.433   6.586  1.2831  0.1646 -0.2539
   66MOL   C37844708   1.333   7.521   6.635 -0.0254 -0.3373  0.2453
   66MOL   C37944709   1.468   7.478   6.588  0.0914 -0.5803  0.5776
   66MOL   C38044710   1.499   7.490   6.434  0.4716  0.5495  0.7618
   66MOL   C38144711   1.643   7.466   6.405 -0.7401 -0.7028  0.6082
   66MOL   C38244712   1.688   7.497   6.265  0.4573 -0.1634 -0.7027
   66MOL   C38344713   1.832   7.478   6.227  0.5163 -0.2514 -0.7786
   66MOL   C38444714   1.854   7.500   6.078  0.2341  0.0405  0.3984
   66MOL   C38544715   1.988   7.445   6.019  0.5333  0.3972  0.5359
   66MOL   C38644716   2.119   7.523   6.057  0.0334 -0.4046 -0.0983
   66MOL   C38744717   2.170   7.515   6.203  0.2772  0.5339  0.7326
   66MOL   O38844718   2.171   7.405   6.257  0.2506 -0.4343 -0.1358
   66MOL   H38944719   1.054   7.565   6.570  1.1645  0.1126 -0.8874
   66MOL   H39044720   1.231   7.332   6.626 -0.4822  0.1986  0.2124
   66MOL   H39144721   1.218   7.418   6.479  2.2252 -0.6893 -0.1885
   66MOL   H39244722   1.330   7.528   6.744  1.4253 -2.5469  0.4727
   66MOL   H39344723   1.308   7.619   6.595  2.0623 -0.6336 -1.9143
   66MOL   H39444724   1.541   7.536   6.644  1.5661 -1.9380  0.1163
   66MOL   H39544725   1.491   7.375   6.616 -2.9878 -1.2607  0.8110
   66MOL   H39644726   1.458   7.588   6.409  3.6398  2.0966  1.3608
   66MOL   H39744727   1.442   7.423   6.370  1.6955  0.1109  0.1250
   66MOL   H39844728   1.676   7.364   6.426 -0.0470 -1.0931 -2.1383
   66MOL   H39944729   1.714   7.513   6.472  0.6313 -0.0318 -1.2614
   66MOL   H40044730   1.635   7.424   6.204  0.8944 -1.0945  0.0181
   66MOL   H40144731   1.637   7.580   6.216 -1.2563 -0.2668  0.8604
   66MOL   H40244732   1.861   7.380   6.264  1.6019  1.0875  2.0878
   66MOL   H40344733   1.885   7.546   6.294 -1.3751  1.0160 -0.5494
   66MOL   H40444734   1.782   7.437   6.027 -0.9158  1.0495  0.7636
   66MOL   H40544735   1.830   7.604   6.057 -1.4043 -0.2553  0.7499
   66MOL   H40644736   1.976   7.451   5.911  1.3071  0.0844  0.4290
   66MOL   H40744737   2.002   7.342   6.051 -0.4304  0.8361  2.4591
   66MOL   H40844738   2.107   7.628   6.031  0.6819  0.1541  1.8429
   66MOL   H40944739   2.191   7.484   5.985 -1.2621 -0.7581 -1.2471
   66MOL   N41044740   2.215   7.623   6.270 -0.4693 -0.9274  0.1450
   66MOL   C41144741   2.263   7.629   6.407 -0.6269  0.0149 -0.0636
   66MOL   C41244742   2.362   0.023   6.450  0.4971  0.2967  0.6177
   66MOL   C41344743   2.405   0.032   6.594  0.2549 -1.2513 -0.0509
   66MOL   C41444744   2.283   0.044   6.690  0.2068  0.0392  0.2774
   66MOL   C41544745   2.332   0.074   6.837 -0.4537 -0.4896 -0.5685
   66MOL   C41644746   2.235   0.050   6.950  0.1695  0.1307  0.5259
   66MOL   C41744747   2.220   7.621   6.991  0.0868  0.4357  0.4620
   66MOL   C41844748   2.114   7.591   7.093 -0.1346 -0.5330 -0.2162
   66MOL   C41944749   2.175   7.569   7.233 -0.4899  0.5280  0.2033
   66MOL   C42044750   2.225   7.692   7.303  0.4980 -0.0969  0.4528
   66MOL   C42144751   2.268   7.658   7.446 -0.3092 -0.4634  0.3862
   66MOL   O42244752   2.381   7.613   7.472  0.0044 -0.2211 -0.1895
   66MOL   H42344753   2.232   7.710   6.221  0.4527 -0.5853  1.0490
   66MOL   H42444754   2.183   7.605   6.477  0.7626 -1.8746  0.9213
   66MOL   H42544755   2.318   7.535   6.413  0.2701  0.5313 -0.0560
   66MOL   H42644756   2.307   0.112   6.421 -2.2892 -1.5809 -0.1082
   66MOL   H42744757   2.446   0.024   6.380  0.2369  0.3404  0.3029
   66MOL   H42844758   2.468   7.661   6.616  0.7215 -0.5942  1.2167
   66MOL   H42944759   2.471   0.118   6.597 -0.4461 -0.7264  0.3499
   66MOL   H43044760   2.224   7.668   6.683 -1.2411  0.9796 -0.1972
   66MOL   H43144761   2.223   0.131   6.663 -0.2559 -0.4552 -0.3036
   66MOL   H43244762   2.350   0.182   6.839 -0.3311 -0.5238  0.4950
   66MOL   H43344763   2.426   0.024   6.857 -0.1944  1.0448  2.3921
   66MOL   H43444764   2.265   0.100   7.042 -1.6169  0.3689  0.9947
   66MOL   H43544765   2.140   0.094   6.919  1.1734  1.2228 -1.0667
   66MOL   H43644766   2.318   7.576   7.008 -0.4690 -0.8968  0.2084
   66MOL   H43744767   2.177   7.569   6.905 -0.2873  1.0972  0.2434
   66MOL   H43844768   2.033   7.664   7.102  0.2979 -0.4172  3.3750
   66MOL   H43944769   2.056   7.509   7.051 -1.1919 -0.0885  0.3870
   66MOL   H44044770   2.256   7.500   7.212  0.9177  1.8231  1.2510
   66MOL   H44144771   2.116   7.511   7.304 -1.1983 -0.0546 -0.8507
   66MOL   H44244772   2.151   0.056   7.299  0.2421 -0.4232 -2.2313
   66MOL   H44344773   2.319   0.004   7.255  0.0806 -3.1646 -2.2727
   66MOL   N44444774   2.169   7.671   7.531  0.3886  0.8684  0.0252
   66MOL   C44544775   2.171   7.641   7.676  0.1884  0.1715 -0.4691
   66MOL   C44644776   2.075   0.024   0.029  0.2508  0.0109  0.2169
   66MOL   C44744777   2.051   7.695   0.176  0.2484  0.4120 -0.3992
   66MOL   C44844778   1.948   0.076   0.242 -0.3451 -0.2902  0.3116
   66MOL   C44944779   1.943   0.074   0.396  0.7229 -0.1292 -0.5183
   66MOL   C45044780   1.837   0.178   0.451 -0.2122 -0.2662  0.7936
   66MOL   C45144781   1.860   0.323   0.436 -0.0600 -0.2650 -0.0422
   66MOL   C45244782   1.753   0.409   0.499 -0.4969 -0.0367  0.4062
   66MOL   C45344783   1.792   0.556   0.480 -0.3683  0.3727  0.1802
   66MOL   C45444784   1.670   0.648   0.490 -0.9741  1.2482  0.5601
   66MOL   C45544785   1.701   0.796   0.489 -0.5248 -0.0936 -0.2500
   66MOL   O45644786   1.817   0.837   0.481 -0.2417 -0.1565  0.4345
   66MOL   H45744787   2.077   7.699   7.502 -1.4100 -2.7323  1.8021
   66MOL   H45844788   2.135   7.538   7.685 -0.4436  0.4693  0.4059
   66MOL   H45944789   2.273   7.641   7.714  0.0280 -2.5957  0.0609
   66MOL   H46044790   1.987   0.020   7.681 -0.7356 -1.5930  1.6593
   66MOL   H46144791   2.122   0.123   0.029  2.0171 -0.7896 -1.3925
   66MOL   H46244792   2.020   7.590   0.171  1.2684  0.1044 -0.3652
   66MOL   H46344793   2.147   7.682   0.226  1.5077 -0.6604 -3.0400
   66MOL   H46444794   1.850   0.062   0.194  0.0413  2.3846 -1.3734
   66MOL   H46544795   1.966   0.182   0.220 -1.8302  0.2451  1.5788
   66MOL   H46644796   2.036   0.098   0.447  1.1254 -1.1651 -0.7617
   66MOL   H46744797   1.903   7.691   0.421  0.2603 -0.2711 -1.7611
   66MOL   H46844798   1.742   0.149   0.407  0.0451 -0.2297  0.2012
   66MOL   H46944799   1.827   0.151   0.556  0.9134  0.6417  1.1390
   66MOL   H47044800   1.882   0.349   0.333 -0.3279 -1.5841 -0.4456
   66MOL   H47144801   1.959   0.341   0.479 -0.6246  1.0756  0.7411
   66MOL   H47244802   1.653   0.397   0.457 -1.0048 -0.5693  1.7345
   66MOL   H47344803   1.733   0.403   0.606 -1.1786 -0.4318  0.2586
   66MOL   H47444804   1.846   0.565   0.385  1.1702 -1.6584  0.8284
   66MOL   H47544805   1.859   0.592   0.558  1.2088  0.7192 -1.3013
   66MOL   H47644806   1.616   0.622   0.581 -1.5543  2.5676  0.6056
   66MOL   H47744807   1.607   0.632   0.403  1.0883  1.9145 -1.0842
   66MOL   N47844808   1.599   0.873   0.488  0.6337 -0.1503  0.9608
   66MOL   C47944809   1.598   1.017   0.475  0.2867 -0.5792  0.2731
   66MOL   C48044810   1.459   1.078   0.439  0.4345  0.2417  0.0367
   66MOL   C48144811   1.429   1.082   0.293 -0.7142 -0.0960  0.0236
   66MOL   C48244812   1.301   1.163   0.256 -0.9206  0.1729 -0.2455
   66MOL   C48344813   1.282   1.178   0.098  0.2358 -0.2734  0.2607
   66MOL   C48444814   1.168   1.270   0.061  0.5322  0.1026 -0.1103
   66MOL   C48544815   1.151   1.325   7.634 -0.0697  0.0624 -0.4594
   66MOL   C48644816   1.257   1.430   7.608  0.2329  0.1656 -0.2165
   66MOL   C48744817   1.254   1.496   7.470 -0.1773  0.3044  0.1668
   66MOL   C48844818   1.123   1.560   7.432 -0.2186 -0.0716 -0.2113
   66MOL   C48944819   1.130   1.671   7.330  0.4104  0.3334  0.6927
   66MOL   O49044820   1.229   1.679   7.256 -0.1635 -0.3897  0.0538
   66MOL   H49144821   1.514   0.822   0.505 -0.7566  1.4328 -1.0394
   66MOL   H49244822   1.603   1.051   0.578 -0.0633  0.3182 -0.0068
   66MOL   H49344823   1.693   1.050   0.433 -0.6525 -0.7183 -2.0286
   66MOL   H49444824   1.444   1.178   0.480  1.2471  0.3664  0.0297
   66MOL   H49544825   1.374   1.019   0.472  0.1252  1.8714  2.2349
   66MOL   H49644826   1.511   1.130   0.240 -0.0931 -0.9256  0.2217
   66MOL   H49744827   1.436   0.982   0.251 -2.8705 -0.4436  0.4393
   66MOL   H49844828   1.313   1.262   0.300 -2.5166 -0.2133  1.1677
   66MOL   H49944829   1.211   1.120   0.301 -0.6118  0.6726  0.8708
   66MOL   H50044830   1.275   1.080   0.052 -2.9974  0.6269 -1.2803
   66MOL   H50144831   1.371   1.231   0.064  0.1454 -1.5520 -2.1201
   66MOL   H50244832   1.079   1.218   0.097  2.3312 -2.5009  0.7720
   66MOL   H50344833   1.174   1.347   0.138 -0.4151  0.0531  0.0134
   66MOL   H50444834   1.054   1.373   7.629  0.8626  2.2499  1.4237
   66MOL   H50544835   1.158   1.245   7.561 -0.2235 -2.3031  2.0253
   66MOL   H50644836   1.236   1.509   7.681  2.0221  0.6876 -0.2386
   66MOL   H50744837   1.359   1.397   7.627 -0.4631 -1.3691  0.9246
   66MOL   H50844838   1.291   1.428   7.394 -0.4817 -0.5511  0.7719
   66MOL   H50944839   1.332   1.572   7.477  0.6542 -0.4956 -0.2473
   66MOL   H51044840   1.072   1.603   7.518  1.4917 -0.4955  1.0345
   66MOL   H51144841   1.057   1.474   7.414 -0.0377  0.1155 -1.8022
   66MOL   N51244842   1.024   1.749   7.318  0.0174 -0.2996  0.0188
   66MOL   C51344843   1.003   1.839   7.204  0.3970 -0.0774  0.4294
   66MOL   C51444844   0.967   1.769   7.071 -0.0564 -0.7336 -0.8079
   66MOL   C51544845   0.947   1.870   6.956  0.1226  0.3480  0.0103
   66MOL   C51644846   0.937   1.797   6.814 -0.1891 -0.6129 -0.5431
   66MOL   C51744847   1.071   1.736   6.773  0.6762 -0.5643  0.5626
   66MOL   C51844848   1.054   1.647   6.648  0.8536  0.0767 -0.4017
   66MOL   C51944849   0.999   1.502   6.688 -0.5448 -0.2149 -0.7205
   66MOL   C52044850   0.885   1.452   6.599  1.1611 -0.7807  0.9716
   66MOL   C52144851   0.847   1.310   6.655 -0.4329 -0.1156 -0.0046
   66MOL   C52244852   0.722   1.262   6.584 -0.2964 -0.3885 -0.4385
   66MOL   C52344853   0.762   1.180   6.462  0.0668  0.0688  0.7760
   66MOL   O52444854   0.803   1.230   6.361  0.8516 -0.1416  0.2303
   66MOL   H52544855   0.939   1.739   7.373 -0.1557  1.3653  0.0932
   66MOL   H52644856   0.928   1.907   7.244  1.0406 -0.3683  2.1756
   66MOL   H52744857   1.097   1.888   7.176  1.2502 -2.0318 -0.1635
   66MOL   H52844858   0.868   1.734   7.099 -0.0764 -0.4647 -0.5449
   66MOL   H52944859   1.042   1.692   7.054  2.2435  1.5338 -1.3551
   66MOL   H53044860   0.861   1.937   6.964 -0.3113 -0.2239  0.1552
   66MOL   H53144861   1.033   1.937   6.943 -0.7440  1.5078  0.1493
   66MOL   H53244862   0.902   1.867   6.739  0.3682  1.0785  0.7449
   66MOL   H53344863   0.858   1.723   6.824  0.1920 -1.1978 -1.6934
   66MOL   H53444864   1.113   1.672   6.850  1.3468 -0.5851  0.1829
   66MOL   H53544865   1.141   1.813   6.739 -2.5742  1.7894 -1.0943
   66MOL   H53644866   0.993   1.700   6.575 -0.7795 -0.8355  0.2843
   66MOL   H53744867   1.145   1.631   6.590  0.7187 -0.0692 -0.5763
   66MOL   H53844868   0.963   1.502   6.791 -2.1417 -1.1564 -1.2715
   66MOL   H53944869   1.082   1.431   6.680  0.0027  0.2685  0.5069
   66MOL   H54044870   0.805   1.525   6.613  0.6206 -0.5247 -2.8179
   66MOL   H54144871   0.904   1.443   6.492  1.2436 -0.6523  0.9749
   66MOL   H54244872   0.824   1.307   6.761  0.6899  0.2826  0.2552
   66MOL   H54344873   0.929   1.241   6.635  1.2420  2.0605 -0.8804
   66MOL   H54444874   0.659   1.345   6.553  0.0204 -0.8423 -2.3367
   66MOL   H54544875   0.661   1.203   6.654  0.6919 -0.6317  0.2296
   66MOL   N54644876   0.754   1.048   6.479 -0.1644  0.2411 -0.1778
   66MOL   C54744877   0.746   0.948   6.368 -0.1103  0.1095 -0.2062
   66MOL   C54844878   0.825   0.820   6.412 -0.3906 -0.1590 -0.1731
   66MOL   C54944879   0.841   0.717   6.300 -0.0737 -0.0180 -0.3912
   66MOL   C55044880   0.702   0.645   6.272 -0.9390 -0.3450  0.2666
   66MOL   C55144881   0.707   0.543   6.160 -0.2179 -0.6859 -0.2217
   66MOL   C55244882   0.587   0.455   6.166 -0.1021  0.7029  0.5129
   66MOL   C55344883   0.581   0.344   6.059  0.3253 -0.1215  0.2164
   66MOL   C55444884   0.614   0.391   5.910  0.2128 -0.5728  0.4097
   66MOL   C55544885   0.522   0.496   5.836 -0.4028 -0.1006  0.4177
   66MOL   C55644886   0.574   0.566   5.704  0.0025 -0.2751  0.0962
   66MOL   C55744887   0.607   0.471   5.590  0.4552 -0.6103  0.1006
   66MOL   O55844888   0.516   0.411   5.537  0.1930  0.1039  0.1862
   66MOL   H55944889   0.732   1.001   6.565  1.5642 -2.3980 -1.1143
   66MOL   H56044890   0.643   0.929   6.339  0.6302  0.0221 -2.9050
   66MOL   H56144891   0.807   0.980   6.283  2.1753 -3.2865  0.0308
   66MOL   H56244892   0.789   0.779   6.507  1.5724 -1.7791 -0.0847
   66MOL   H56344893   0.923   0.863   6.436 -1.3334  1.2560  1.1953
   66MOL   H56444894   0.868   0.768   6.208 -0.8528 -0.1656 -0.7019
   66MOL   H56544895   0.917   0.642   6.321 -0.3914  0.4577  2.7040
   66MOL   H56644896   0.638   0.728   6.241  2.0546  1.8874 -0.1727
   66MOL   H56744897   0.652   0.612   6.363 -1.9920 -0.9553 -0.5126
   66MOL   H56844898   0.796   0.481   6.174  0.6872  0.3850 -1.1514
   66MOL   H56944899   0.721   0.583   6.060 -2.6272  2.7349  0.7273
   66MOL   H57044900   0.580   0.409   6.264 -1.2311 -0.1736  0.0344
   66MOL   H57144901   0.503   0.524   6.166  1.6086  2.8493  1.7064
   66MOL   H57244902   0.480   0.301   6.062  1.0546 -1.8622  0.8171
   66MOL   H57344903   0.642   0.258   6.088 -0.4479 -1.0197 -0.7469
   66MOL   H57444904   0.717   0.424   5.920  0.6262 -1.9637  0.8272
   66MOL   H57544905   0.622   0.303   5.847  1.5879 -0.0256 -0.1934
   66MOL   H57644906   0.496   0.579   5.902  0.3403  0.6905 -0.2677
   66MOL   H57744907   0.425   0.449   5.824 -1.0906  1.1250  1.0082
   66MOL   H57844908   0.662   0.622   5.734 -0.1283  0.1700 -0.3538
   66MOL   H57944909   0.501   0.638   5.666  0.0850 -0.6631 -0.8136
   66MOL   N58044910   0.736   0.457   5.558  0.6427  0.1085 -0.7383
   66MOL   C58144911   0.776   0.365   5.452  0.7127  0.1726  0.6855
   66MOL   C58244912   0.903   0.284   5.490  0.3153  0.0872 -0.0307
   66MOL   C58344913   0.873   0.182   5.603  0.1294 -0.6786  0.7156
   66MOL   C58444914   0.993   0.083   5.612  0.2329 -0.2404  0.0890
   66MOL   C58544915   0.993   7.687   5.721 -1.0188 -0.2241  0.5667
   66MOL   C58644916   1.016   0.028   5.863  0.3322 -0.2324 -0.0276
   66MOL   C58744917   1.015   7.634   5.967 -0.3800 -0.2805 -0.2099
   66MOL   C58844918   1.064   7.668   6.104  0.4243 -0.2076  0.5223
   66MOL   C58944919   1.102   7.547   6.193 -0.1640  0.1847  0.3533
   66MOL   C59044920   0.994   7.448   6.242 -0.2251 -0.4313  0.6539
   66MOL   C59144921   0.886   7.515   6.336  0.6381 -0.5829  0.9163
   66MOL   O59244922   0.925   7.595   6.429 -0.3207 -0.7253 -0.4415
   66MOL   H59344923   0.805   0.511   5.608 -0.7959 -0.1132  1.5707
   66MOL   H59444924   0.697   0.294   5.429 -0.4829  1.0967  1.9148
   66MOL   H59544925   0.783   0.417   5.356 -1.5570  1.4865  1.1881
   66MOL   H59644926   0.984   0.351   5.517 -0.5231  1.3477 -0.5712
   66MOL   H59744927   0.947   0.233   5.404  0.1346  1.3477 -0.8942
   66MOL   H59844928   0.862   0.241   5.694  0.4855  0.7507 -0.1511
   66MOL   H59944929   0.782   0.123   5.590  0.5493 -1.0815 -0.4746
   66MOL   H60044930   1.089   0.132   5.629 -0.0826  0.3757  0.0850
   66MOL   H60144931   0.983   0.038   5.513 -1.6926  0.4551 -0.0540
   66MOL   H60244932   1.068   7.612   5.696 -2.1956 -0.9678 -0.7798
   66MOL   H60344933   0.891   7.651   5.706 -0.0632 -2.9262  0.1694
   66MOL   H60444934   1.112   0.079   5.867 -0.6095  1.4832  1.5364
   66MOL   H60544935   0.948   0.108   5.893  0.6600 -0.2705  0.8459
   66MOL   H60644936   1.066   7.548   5.924  0.1849  0.9382 -2.0272
   66MOL   H60744937   0.913   7.596   5.975 -0.0548 -1.3800 -1.1171
   66MOL   H60844938   1.158   0.007   6.099  1.8531 -2.4020  2.1017
   66MOL   H60944939   0.995   0.005   6.170  1.8704  1.0197  1.0636
   66MOL   H61044940   1.158   7.584   6.279  1.9363 -3.5724  0.7391
   66MOL   H61144941   1.173   7.495   6.129  1.2949  0.2209  1.9199
   66MOL   H61244942   1.029   7.362   6.300  0.1892 -1.1333 -0.6217
   66MOL   H61344943   0.938   7.406   6.158  0.5361 -2.7937  1.2715
   66MOL   N61444944   0.763   7.508   6.298 -0.1848 -0.1582  0.0445
   66MOL   C61544945   0.647   7.588   6.352  0.4393  0.0713 -0.5061
   66MOL   C61644946   0.598   7.699   6.262 -0.7257  0.6270 -0.0198
   66MOL   C61744947   0.494   0.073   6.320  0.1697  0.5657 -0.2594
   66MOL   C61844948   0.546   0.168   6.425 -0.0534 -0.2099 -0.3469
   66MOL   C61944949   0.437   0.263   6.478 -1.0975 -0.0039 -0.0823
   66MOL   C62044950   0.339   0.175   6.567 -0.2598 -0.6840  0.1005
   66MOL   C62144951   0.219   0.272   6.613 -0.4304  0.3021 -0.0840
   66MOL   C62244952   0.262   0.392   6.710  0.0902 -0.2647  0.3180
   66MOL   C62344953   0.139   0.472   6.746  0.8002 -0.1778  0.0262
   66MOL   C62444954   0.161   0.587   6.843 -0.2692 -0.4092  0.1990
   66MOL   C62544955   0.071   0.702   6.833 -0.6402  0.8427 -0.4523
   66MOL   O62644956   0.034   0.748   6.721 -0.2381  0.0657  0.7063
   66MOL   H62744957   0.739   7.446   6.222 -0.2413  1.5565 -1.3625
   66MOL   H62844958   0.667   7.635   6.449 -0.1758 -0.4728 -0.1138
   66MOL   H62944959   0.572   7.511   6.371  1.2342 -0.2318  1.4987
   66MOL   H63044960   0.550   7.634   6.189 -0.1533 -1.0220  1.0227
   66MOL   H63144961   0.686   0.036   6.226 -2.0437  2.0874 -1.1413
   66MOL   H63244962   0.450   0.136   6.243 -1.4498 -1.6605 -1.2298
   66MOL   H63344963   0.410   0.011   6.353  0.0244  1.7199  1.6003
   66MOL   H63444964   0.634   0.222   6.390 -0.0302 -1.3443 -2.0624
   66MOL   H63544965   0.569   0.118   6.519  1.4910 -0.8661 -1.0591
   66MOL   H63644966   0.379   0.312   6.399 -2.1040 -1.7252 -0.4279
   66MOL   H63744967   0.490   0.344   6.528 -2.3786  0.8891 -0.1469
   66MOL   H63844968   0.296   0.085   6.523 -0.9612  0.1188 -0.8533
   66MOL   H63944969   0.394   0.134   6.652  1.3723  2.0483  0.4175
   66MOL   H64044970   0.141   0.211   6.660  1.3628  0.1931  2.9231
   66MOL   H64144971   0.174   0.318   6.525  2.5494  1.0238 -1.2926
   66MOL   H64244972   0.323   0.355   6.792  2.9253  0.1331 -1.5110
   66MOL   H64344973   0.328   0.451   6.647 -1.4914  0.4773 -0.6814
   66MOL   H64444974   0.071   0.398   6.788 -0.4311  0.6690 -0.4417
   66MOL   H64544975   0.084   0.505   6.658  0.9612  1.4175  0.5148
   66MOL   H64644976   0.264   0.615   6.821  0.1634 -1.5623  0.6847
   66MOL   H64744977   0.156   0.543   6.942 -1.6287 -0.2092  0.2264
   66MOL   N64844978   0.021   0.749   6.949  0.3593  0.4967  0.3785
   66MOL   C64944979   7.657   0.861   6.968  0.2017  0.1063  0.5417
   66MOL   C65044980   7.647   0.910   7.113  0.5691 -0.5085  0.2498
   66MOL   C65144981   7.542   1.026   7.120  0.0321 -0.1906 -0.4928
   66MOL   C65244982   7.528   1.086   7.259 -0.1275 -0.1534  0.1779
   66MOL   C65344983   7.417   1.189   7.272 -0.0740 -0.3160 -0.3108
   66MOL   C65444984   7.355   1.190   7.416 -0.0521 -0.6345 -0.4703
   66MOL   C65544985   7.453   1.198   7.535 -0.5525  0.1409 -0.3188
   66MOL   C65644986   7.549   1.325   7.547  0.3945  0.0779 -0.2307
   66MOL   C65744987   7.468   1.458   7.550 -0.8692 -0.3283 -0.2312
   66MOL   C65844988   7.550   1.589   7.584  0.0356 -0.5372 -0.5171
   66MOL   C65944989   7.443   1.710   7.582  0.2132 -0.0038 -0.6318
   66MOL   O66044990   7.482   1.820   7.610  0.6679  0.5066  0.1201
   66MOL   H66144991   0.050   0.712   7.039  2.9679  0.1634 -0.5545
   66MOL   H66244992   7.556   0.837   6.935  0.7578 -1.8024  0.1948
   66MOL   H66344993   7.690   0.945   6.906  1.5876 -1.4962 -0.9385
   66MOL   H66444994   0.024   0.958   7.145  1.6259 -1.2054 -1.6849
   66MOL   H66544995   7.616   0.827   7.177 -0.3835 -1.6572 -1.6652
   66MOL   H66644996   7.567   1.103   7.047 -1.6108  0.0711 -0.7922
   66MOL   H66744997   7.440   1.000   7.091 -0.0484  0.5513 -0.9074
   66MOL   H66844998   7.619   1.140   7.286  0.2463 -1.5745  1.8790
   66MOL   H66944999   7.504   1.007   7.331  0.1842  0.2291  0.7009
   66MOL   H67045000   7.336   1.154   7.208 -0.3652 -2.1323  0.9897
   66MOL   H67145001   7.452   1.289   7.247 -1.1518  0.6796  2.0269
   66MOL   H67245002   7.295   1.281   7.416  1.7864  0.6568 -3.8407
   66MOL   H67345003   7.287   1.105   7.415 -0.0736 -0.6084 -1.1023
   66MOL   H67445004   7.507   1.104   7.548 -1.0383  0.2107  2.5249
   66MOL   H67545005   7.387   1.202   7.621  0.2074 -0.0486  0.2839
   66MOL   H67645006   7.611   1.320   7.636 -0.8153  1.7513  0.7142
   66MOL   H67745007   7.616   1.304   7.463  1.5648 -1.4523  1.0608
   66MOL   H67845008   7.385   1.446   7.620  1.5872  0.2311  2.9046
   66MOL   H67945009   7.415   1.472   7.456  0.6018  1.5765 -0.8100
   66MOL   H68045010   7.630   1.618   7.517  0.3544  1.2185  0.5855
   66MOL   H68145011   7.594   1.570   7.682 -1.1520  0.2502  0.1912
   66MOL   H68245012   7.341   1.687   7.553  0.0690  0.5701 -0.5907
   67MOL     N145013   4.312   3.687   0.352 -0.1702  0.2293 -0.1835
   67MOL     C245014   4.417   3.642   0.436 -0.0598 -0.1330 -0.4353
   67MOL     C345015   4.407   3.719   0.566 -0.1779 -0.2244  0.5656
   67MOL     C445016   4.292   3.675   0.659 -0.8411 -0.0480 -0.4074
   67MOL     C545017   4.276   3.748   0.785 -0.2533 -0.6071 -0.3820
   67MOL     C645018   4.162   3.692   0.881  0.6356  0.4153  0.8856
   67MOL     C745019   4.031   3.657   0.804  0.9967  0.2235  0.0633
   67MOL     C845020   3.956   3.784   0.751  0.7440  0.3213  0.4071
   67MOL     C945021   3.867   3.748   0.636  0.2662 -0.1313  0.5301
   67MOL    C1045022   3.795   3.865   0.577  0.3600 -0.0509  0.0576
   67MOL    C1145023   3.696   3.829   0.462 -0.0043  0.0368  0.0160
   67MOL    C1245024   3.771   3.809   0.335 -0.3894 -0.3782  0.5057
   67MOL    O1345025   3.790   3.699   0.289 -0.4229 -0.5018 -0.2544
   67MOL    H1445026   4.226   3.701   0.403  0.5464  1.2603  0.7726
   67MOL    H1545027   4.518   3.667   0.406 -0.1080 -0.4695 -0.8862
   67MOL    H1645028   4.408   3.535   0.454 -2.0497  0.0122 -0.4303
   67MOL    H1745029   4.417   3.826   0.551  1.5959 -0.3884  0.3841
   67MOL    H1845030   4.500   3.693   0.618  0.3611  0.1922 -0.1721
   67MOL    H1945031   4.201   3.679   0.599 -0.4473  1.5656 -0.9282
   67MOL    H2045032   4.313   3.573   0.690  0.6277  0.2801 -0.2719
   67MOL    H2145033   4.254   3.852   0.763 -0.3511 -0.3362  0.9407
   67MOL    H2245034   4.375   3.751   0.831 -1.1078  0.0268  1.4475
   67MOL    H2345035   4.137   3.760   0.963 -1.0738  0.1491  0.6084
   67MOL    H2445036   4.186   3.597   0.929  0.6270 -0.3682 -0.6209
   67MOL    H2545037   4.062   3.606   0.713 -1.1669  2.3745 -1.9649
   67MOL    H2645038   3.963   3.595   0.862  1.5884 -0.2829  0.2207
   67MOL    H2745039   4.029   3.854   0.710  1.3170 -0.7411 -0.4119
   67MOL    H2845040   3.902   3.835   0.831  1.1652 -0.0175  0.9081
   67MOL    H2945041   3.928   3.698   0.561 -2.5101  0.8526 -2.5380
   67MOL    H3045042   3.794   3.677   0.675 -0.1649  0.6635  1.1732
   67MOL    H3145043   3.868   3.940   0.545  1.4573 -0.3518  1.8028
   67MOL    H3245044   3.748   3.919   0.659  0.3777 -0.6844  0.4791
   67MOL    H3345045   3.616   3.901   0.447  1.8691  2.0560 -0.5164
   67MOL    H3445046   3.652   3.731   0.482 -0.2830 -0.0004 -0.7871
   67MOL    H3545047   4.334   3.781   0.321  0.0576  0.7508  1.5442
   67MOL    N3645048   3.803   3.920   0.264 -0.1908  0.4373 -0.2678
   67MOL    C3745049   3.898   3.920   0.153  0.2542  0.1479 -0.4201
   67MOL    C3845050   3.842   3.840   0.031  0.2962 -0.3421 -0.5228
   67MOL    C3945051   3.905   3.873   7.610  0.1579 -0.2006 -0.3918
   67MOL    C4045052   3.823   3.805   7.504 -0.4881  0.1187  0.4847
   67MOL    C4145053   3.685   3.867   7.472 -0.5157 -0.7722 -0.4409
   67MOL    C4245054   3.598   3.806   7.359  0.0914 -0.1111 -0.2787
   67MOL    C4345055   3.657   3.844   7.222  0.3351  0.6557  0.3407
   67MOL    C4445056   3.594   3.776   7.105  0.5696  0.4345 -0.2761
   67MOL    C4545057   3.633   3.625   7.106 -0.1531  0.0762 -0.8898
   67MOL    C4645058   3.518   3.523   7.091 -0.7031  0.5574 -0.0873
   67MOL    C4745059   3.420   3.523   7.211 -0.0480  0.3361  0.3763
   67MOL    O4845060   3.452   3.488   7.323 -0.1745  0.1731 -0.0305
   67MOL    H4945061   3.790   4.013   0.299 -1.0577  0.6971 -1.2546
   67MOL    H5045062   3.924   4.022   0.124  2.6730 -0.4530 -0.4811
   67MOL    H5145063   3.985   3.867   0.192 -1.6094 -1.8750  1.0707
   67MOL    H5245064   3.738   3.871   0.023  0.0475 -0.9686  0.2727
   67MOL    H5345065   3.839   3.732   0.046 -2.4449 -0.4300 -1.3880
   67MOL    H5445066   3.904   3.980   7.585 -1.5438 -0.2473 -0.5825
   67MOL    H5545067   4.010   3.848   7.598  0.6391  1.8770 -0.7756
   67MOL    H5645068   3.809   3.700   7.529  1.4559 -0.6088 -1.3311
   67MOL    H5745069   3.882   3.805   7.412 -0.4284 -1.1188  0.5075
   67MOL    H5845070   3.689   3.975   7.462  1.7871 -0.5268  2.4320
   67MOL    H5945071   3.626   3.854   7.563  1.0605  1.0107  0.8705
   67MOL    H6045072   3.581   3.699   7.371  0.7693 -0.2164 -0.2750
   67MOL    H6145073   3.498   3.850   7.364 -0.5222 -1.6209  1.3987
   67MOL    H6245074   3.764   3.822   7.223  0.3819  0.7415 -1.5086
   67MOL    H6345075   3.641   3.951   7.219 -1.0806  0.4558  0.4506
   67MOL    H6445076   3.487   3.787   7.121  0.7136 -0.5931  1.5304
   67MOL    H6545077   3.622   3.825   7.012  0.6359 -0.0882 -0.5353
   67MOL    H6645078   3.692   3.601   7.195 -0.4061  5.7749  0.9991
   67MOL    H6745079   3.704   3.615   7.024  0.3847  0.0057 -0.4232
   67MOL    H6845080   3.564   3.424   7.100  0.5499  1.0958 -0.3896
   67MOL    H6945081   3.486   3.515   6.987 -1.8739  0.0966  0.3065
   67MOL    N7045082   3.304   3.578   7.178 -0.3478  0.8415 -0.5117
   67MOL    C7145083   3.186   3.599   7.263  0.1251 -0.1273  0.1083
   67MOL    C7245084   3.191   3.721   7.361  0.3147 -0.1206  0.1144
   67MOL    C7345085   3.072   3.704   7.460  0.4059 -0.0337 -0.1170
   67MOL    C7445086   2.930   3.747   7.402 -0.0330  0.3221 -0.3346
   67MOL    C7545087   2.854   3.627   7.327 -0.7543 -0.0001  0.0620
   67MOL    C7645088   2.710   3.657   7.293  0.7267 -0.5034  0.4371
   67MOL    C7745089   2.648   3.540   7.212  0.2604 -0.8744  0.6941
   67MOL    C7845090   2.496   3.570   7.193  0.0728  0.0988 -0.0799
   67MOL    C7945091   2.432   3.441   7.131 -0.6473 -0.2202 -0.1419
   67MOL    C8045092   2.281   3.436   7.148  0.1529 -0.8810  0.1065
   67MOL    C8145093   2.237   3.402   7.289  0.0296 -0.3557 -0.2300
   67MOL    O8245094   2.156   3.477   7.346 -0.1561  0.5390 -0.8644
   67MOL    H8345095   3.287   3.612   7.084 -0.1859 -0.0185 -0.8556
   67MOL    H8445096   3.099   3.591   7.197  1.4101 -0.8753 -1.5260
   67MOL    H8545097   3.180   3.510   7.325  1.3612  0.2684  0.8084
   67MOL    H8645098   3.186   3.808   7.296 -3.1712 -0.5666 -0.3321
   67MOL    H8745099   3.285   3.706   7.414  0.9612 -0.0673 -0.9965
   67MOL    H8845100   3.074   3.603   7.501  1.1780  0.5878  1.4234
   67MOL    H8945101   3.094   3.767   7.546  1.4965 -1.8386  0.9707
   67MOL    H9045102   2.944   3.839   7.345 -1.3662  1.0919  0.5367
   67MOL    H9145103   2.861   3.766   7.484  0.6981  1.2260  0.0814
   67MOL    H9245104   2.870   3.535   7.384  0.2835  0.7396  0.9995
   67MOL    H9345105   2.918   3.609   7.241  0.7256  1.6207  0.7972
   67MOL    H9445106   2.647   3.666   7.382  2.4262 -0.9557  1.7036
   67MOL    H9545107   2.699   3.748   7.235  1.1608 -0.8273 -0.1506
   67MOL    H9645108   2.660   3.449   7.270 -1.5992  0.6628  3.6081
   67MOL    H9745109   2.695   3.536   7.114 -1.0399  1.3427 -0.0646
   67MOL    H9845110   2.460   3.585   7.295 -0.1022  0.5280 -0.2044
   67MOL    H9945111   2.489   3.661   7.133  1.4305  0.1540 -0.1663
   67MOL   H10045112   2.476   3.349   7.170 -2.0920 -0.5843  0.6228
   67MOL   H10145113   2.459   3.434   7.025  0.9697 -0.3715  0.2618
   67MOL   H10245114   2.235   3.360   7.085  0.9098 -0.5000 -0.9129
   67MOL   H10345115   2.248   3.530   7.102  2.1084 -0.1892  0.0730
   67MOL   N10445116   2.273   3.286   7.342 -0.2106 -0.1381  0.5791
   67MOL   C10545117   2.242   3.231   7.476  0.3455  0.4366 -0.1666
   67MOL   C10645118   2.237   3.083   7.472 -0.8468  0.3542 -0.4476
   67MOL   C10745119   2.380   3.031   7.443  0.0753  0.3026 -0.1657
   67MOL   C10845120   2.379   2.873   7.427  0.5459 -0.1877  0.0747
   67MOL   C10945121   2.514   2.816   7.379  0.4821  0.1321 -0.4562
   67MOL   C11045122   2.503   2.674   7.338 -0.1218 -0.2420  0.5447
   67MOL   C11145123   2.637   2.617   7.292 -0.6224 -0.0530  0.3902
   67MOL   C11245124   2.742   2.603   7.414  0.3230 -0.9039  0.7514
   67MOL   C11345125   2.869   2.521   7.365  1.0561  1.3777 -0.2503
   67MOL   C11445126   2.977   2.508   7.474 -0.3613 -0.1248  0.0157
   67MOL   C11545127   3.103   2.430   7.430  0.3580  0.4319  0.9022
   67MOL   O11645128   3.106   2.377   7.319 -0.4214 -0.4219  0.4628
   67MOL   H11745129   2.326   3.220   7.286  1.4433 -0.4601  2.4716
   67MOL   H11845130   2.314   3.274   7.546 -0.6569 -0.0697  1.2038
   67MOL   H11945131   2.147   3.276   7.506  0.9191  1.1805  0.5437
   67MOL   H12045132   2.175   3.040   7.393  1.5675 -2.8559 -0.6726
   67MOL   H12145133   2.198   3.036   7.563 -0.0135 -0.4531 -0.5101
   67MOL   H12245134   2.421   3.067   7.349 -1.2947 -1.1075 -1.3337
   67MOL   H12345135   2.442   3.056   7.529 -0.7216  3.3148 -0.4244
   67MOL   H12445136   2.311   2.840   7.348  1.4242  1.1225 -1.2627
   67MOL   H12545137   2.342   2.821   7.515  2.4372  0.6360  1.4008
   67MOL   H12645138   2.576   2.819   7.468 -1.1122 -0.1078  0.6943
   67MOL   H12745139   2.559   2.866   7.293  0.4945  0.0966 -0.4699
   67MOL   H12845140   2.456   2.621   7.420 -1.8984  0.4070 -0.0282
   67MOL   H12945141   2.440   2.662   7.250  2.8207 -1.1036 -1.5031
   67MOL   H13045142   2.685   2.675   7.214  0.0606  0.7434  1.3777
   67MOL   H13145143   2.623   2.521   7.242  1.2601 -0.0113 -0.2272
   67MOL   H13245144   2.780   2.702   7.438 -1.3350 -0.2522  0.7367
   67MOL   H13345145   2.697   2.570   7.508 -1.1004  1.0261  0.7819
   67MOL   H13445146   2.902   2.569   7.273  1.7994  0.4185 -0.4952
   67MOL   H13545147   2.837   2.419   7.341 -0.5498  1.8026  0.0437
   67MOL   H13645148   2.934   2.438   7.546 -0.6014 -1.0914 -1.0427
   67MOL   H13745149   3.004   2.600   7.525 -0.9928 -0.7713  1.5349
   67MOL   N13845150   3.201   2.425   7.519 -0.4848 -0.0752 -0.1933
   67MOL   C13945151   3.330   2.354   7.495 -0.1516 -0.1455 -0.4819
   67MOL   C14045152   3.411   2.456   7.404 -0.2786  0.1791 -0.0152
   67MOL   C14145153   3.567   2.433   7.399  0.1109 -0.6076 -0.0270
   67MOL   C14245154   3.613   2.314   7.323  0.1383  0.3316 -0.4133
   67MOL   C14345155   3.753   2.269   7.347  0.2823  0.2420  0.2278
   67MOL   C14445156   3.786   2.229   7.500  0.1340  0.0312 -0.2716
   67MOL   C14545157   3.673   2.141   7.571  0.1364  0.0358  0.5145
   67MOL   C14645158   3.650   2.000   7.514 -0.1317 -0.2620  0.2162
   67MOL   C14745159   3.525   1.939   7.578 -0.0732 -0.6873  0.3045
   67MOL   C14845160   3.514   1.790   7.542  0.2837  0.1107 -0.5966
   67MOL   C14945161   3.382   1.728   7.585  0.1521  0.2748 -0.0361
   67MOL   O15045162   3.313   1.788   7.665  0.4620  0.0592 -0.2384
   67MOL   H15145163   3.185   2.479   7.602  2.8976  1.1985 -0.2870
   67MOL   H15245164   3.380   2.336   7.590  0.3210  2.0272 -0.3056
   67MOL   H15345165   3.324   2.253   7.455  1.5564  0.1051 -1.3979
   67MOL   H15445166   3.389   2.548   7.457 -0.2299  0.2886 -0.1825
   67MOL   H15545167   3.372   2.452   7.302 -3.8180  1.6453  1.2001
   67MOL   H15645168   3.616   2.522   7.359 -0.2513  0.4841  1.9564
   67MOL   H15745169   3.601   2.427   7.502  0.7686 -0.4907 -0.2275
   67MOL   H15845170   3.596   2.324   7.216  1.5762 -0.9439 -0.7751
   67MOL   H15945171   3.555   2.224   7.345 -1.0016  1.2085  0.2426
   67MOL   H16045172   3.834   2.335   7.317 -0.0898  0.5802 -0.0244
   67MOL   H16145173   3.763   2.177   7.289  1.8097 -0.5184  1.6418
   67MOL   H16245174   3.882   2.179   7.494  0.0755 -0.0053 -0.9479
   67MOL   H16345175   3.817   2.317   7.557  2.2196  0.4818 -2.0265
   67MOL   H16445176   3.584   2.203   7.569  0.6979  0.8950  2.0849
   67MOL   H16545177   3.700   2.139   7.676 -1.2342  1.8577  0.9238
   67MOL   H16645178   3.642   2.007   7.405  0.6698 -1.1003  0.0963
   67MOL   H16745179   3.736   1.936   7.534  1.7803  1.9016 -0.8272
   67MOL   H16845180   3.437   2.000   7.557 -1.7213 -2.6871  1.1565
   67MOL   H16945181   3.532   1.942   7.687  2.2174  2.0721  0.1335
   67MOL   H17045182   3.594   1.741   7.598  1.2038 -0.4370 -2.3438
   67MOL   H17145183   3.531   1.787   7.434 -0.4774  1.6383 -0.7628
   67MOL   N17245184   3.356   1.610   7.535  0.6398  0.1812 -0.1429
   67MOL   C17345185   3.232   1.529   7.560 -0.0170  0.1729 -0.5568
   67MOL   C17445186   3.261   1.378   7.531 -1.3679 -0.1848  0.0986
   67MOL   C17545187   3.294   1.324   7.388 -0.2842  0.0603 -0.3208
   67MOL   C17645188   3.346   1.180   7.395 -0.0065 -0.6892 -0.3856
   67MOL   C17745189   3.251   1.076   7.454  0.0651 -0.4492  0.2127
   67MOL   C17845190   3.335   0.946   7.485  0.6757 -0.2457  0.7874
   67MOL   C17945191   3.274   0.837   7.573 -0.2899  0.8007  0.2486
   67MOL   C18045192   3.365   0.713   7.596 -0.2592 -0.4330  0.1258
   67MOL   C18145193   3.297   0.611   7.695  0.4789 -0.2574 -0.0760
   67MOL   C18245194   3.390   0.490   0.015 -0.5109  0.2193 -0.0791
   67MOL   C18345195   3.414   0.370   7.635  0.1513  0.4853  0.9385
   67MOL   O18445196   3.310   0.310   7.600  0.1574  0.3598  0.4391
   67MOL   H18545197   3.435   1.569   7.489 -0.6506 -1.6411 -0.7989
   67MOL   H18645198   3.209   1.543   7.666 -0.4304 -1.2227 -0.4491
   67MOL   H18745199   3.145   1.558   7.500  1.3895 -1.0951 -3.3037
   67MOL   H18845200   3.170   1.326   7.561 -0.1368 -2.1704  0.4265
   67MOL   H18945201   3.343   1.346   7.594 -0.1389  2.9723  0.1954
   67MOL   H19045202   3.201   1.333   7.332 -0.2401  3.2157  0.0169
   67MOL   H19145203   3.367   1.387   7.337  2.0107  0.2656  3.0839
   67MOL   H19245204   3.436   1.188   7.456  0.1512  0.5887 -0.7635
   67MOL   H19345205   3.382   1.142   7.300 -0.3296 -0.7211 -0.4951
   67MOL   H19445206   3.173   1.053   7.381  0.3078  2.1039 -0.9069
   67MOL   H19545207   3.202   1.108   7.545  0.2325 -1.3032  0.6115
   67MOL   H19645208   3.363   0.906   7.388 -2.3589 -0.1419 -0.2055
   67MOL   H19745209   3.431   0.967   7.532  0.2098  1.5299  0.9764
   67MOL   H19845210   3.176   0.807   7.535  0.3977 -0.3000 -0.6716
   67MOL   H19945211   3.267   0.884   7.671 -0.8507  1.7967 -0.2677
   67MOL   H20045212   3.380   0.657   7.504  1.8245 -2.3253  1.5523
   67MOL   H20145213   3.462   0.744   7.638  0.5436 -0.1801 -1.8877
   67MOL   H20245214   3.203   0.575   7.652  0.9700  1.0080 -2.2752
   67MOL   H20345215   3.269   0.652   0.077 -1.2796  0.7306 -0.9710
   67MOL   H20445216   3.339   0.443   0.099  0.7645  1.9201  1.7200
   67MOL   H20545217   3.486   0.520   0.057  0.9542 -1.8652 -1.8941
   67MOL   N20645218   3.538   0.350   7.578 -0.5822  0.0962 -0.1395
   67MOL   C20745219   3.567   0.257   7.473 -0.2641 -0.2019 -0.4120
   67MOL   C20845220   3.719   0.229   7.480 -0.6216  0.2675 -0.8761
   67MOL   C20945221   3.779   0.129   7.378  0.1949 -0.2951 -0.1605
   67MOL   C21045222   3.932   0.143   7.390 -0.0498 -0.3878 -0.3652
   67MOL   C21145223   4.007   0.016   7.343 -0.2834 -0.0750 -0.4652
   67MOL   C21245224   4.009   0.002   7.188  0.4455 -0.4156  0.1568
   67MOL   C21345225   4.120   0.083   7.129  0.4037  0.4548  0.6174
   67MOL   C21445226   4.106   0.089   6.979 -0.7030 -0.0106 -0.4797
   67MOL   C21545227   4.211   0.181   6.928 -0.0805 -0.1948  0.4714
   67MOL   C21645228   4.265   0.146   6.787 -0.9407  0.2966 -0.0038
   67MOL   C21745229   4.352   0.020   6.779  0.3661  0.2277  0.0588
   67MOL   O21845230   4.451   0.015   6.855  0.4020 -0.4905  0.4621
   67MOL   H21945231   3.598   0.425   7.608 -0.1450 -0.3750  0.1632
   67MOL   H22045232   3.542   0.300   7.376  1.6783 -1.3197 -1.4438
   67MOL   H22145233   3.510   0.168   7.502 -1.1354  1.3068  2.8271
   67MOL   H22245234   3.741   0.194   7.581 -0.2771  0.1689 -0.9853
   67MOL   H22345235   3.777   0.321   7.479  0.7914 -0.5356  1.5678
   67MOL   H22445236   3.742   0.028   7.395  1.4824 -0.7583 -0.0204
   67MOL   H22545237   3.747   0.151   7.276  1.8127 -0.7798 -0.7935
   67MOL   H22645238   3.956   0.164   7.494 -3.5480  1.9244  0.0533
   67MOL   H22745239   3.972   0.233   7.343  1.1644  0.2162  1.7640
   67MOL   H22845240   3.954   7.644   7.381 -0.0198  0.7335  1.8938
   67MOL   H22945241   4.111   0.013   7.375 -0.0643  0.1846 -1.1454
   67MOL   H23045242   4.026   7.616   7.153  1.4662  0.3212 -1.5869
   67MOL   H23145243   3.909   0.016   7.147  1.0406 -3.3244 -2.4904
   67MOL   H23245244   4.209   0.023   7.150  0.8971  1.0772  0.3619
   67MOL   H23345245   4.125   0.182   7.174  0.9784  1.3105 -1.2861
   67MOL   H23445246   4.120   7.704   6.940  1.4612  0.0122  0.1427
   67MOL   H23545247   4.009   0.133   6.955 -1.3423 -1.0154  0.2315
   67MOL   H23645248   4.293   0.181   7.000 -1.1020  0.0772  1.6476
   67MOL   H23745249   4.169   0.282   6.921  0.3912 -0.0972 -0.9846
   67MOL   H23845250   4.330   0.220   6.740  0.8170 -2.0741 -1.4057
   67MOL   H23945251   4.181   0.139   6.717 -1.3273 -1.1959  0.5931
   67MOL   N24045252   4.322   7.639   6.688  0.1641 -0.4551  0.3210
   67MOL   C24145253   4.391   7.514   6.675  0.0738  0.0339  0.4925
   67MOL   C24245254   4.489   7.511   6.558  0.0182 -0.4095 -1.0205
   67MOL   C24345255   4.429   7.533   6.410  0.3266 -0.0724 -0.1017
   67MOL   C24445256   4.535   7.534   6.299  0.2387 -0.0459  0.4770
   67MOL   C24545257   4.463   7.583   6.168 -0.4303  0.7005  0.3832
   67MOL   C24645258   4.558   7.595   6.047 -0.1445 -1.1443 -0.5597
   67MOL   C24745259   4.476   7.641   5.922 -0.3072  0.0180 -0.5967
   67MOL   C24845260   4.570   7.643   5.798 -0.2239  0.2474  0.5520
   67MOL   C24945261   4.517   0.009   5.673  0.3393  0.0869  0.2091
   67MOL   C25045262   4.616   0.030   5.555 -0.0353 -0.2003  0.1475
   67MOL   C25145263   4.569   0.139   5.463 -0.3343 -0.7271 -0.2397
   67MOL   O25245264   4.455   0.186   5.479 -0.1809 -0.1341  0.0989
   67MOL   H25345265   4.235   7.654   6.639  1.5307  2.3916 -1.4137
   67MOL   H25445266   4.324   7.428   6.675  2.3356 -1.8120 -1.2038
   67MOL   H25545267   4.445   7.492   6.767 -0.1577  0.8931  0.8348
   67MOL   H25645268   4.560   7.428   6.552  1.5835  0.9064 -1.3252
   67MOL   H25745269   4.565   7.586   6.584 -0.4879 -0.2901  0.1337
   67MOL   H25845270   4.353   7.461   6.381 -0.7415  1.3915 -0.9910
   67MOL   H25945271   4.363   7.620   6.410  1.4342  0.7898 -1.1847
   67MOL   H26045272   4.576   7.434   6.284 -0.8413 -0.3578 -0.4725
   67MOL   H26145273   4.617   7.602   6.321  0.4594 -0.4526  0.9226
   67MOL   H26245274   4.427   7.684   6.188 -2.6353 -0.4498  2.5848
   67MOL   H26345275   4.371   7.531   6.144  0.8267 -0.2251 -2.5930
   67MOL   H26445276   4.641   7.663   6.068 -2.1765  0.4532  2.8043
   67MOL   H26545277   4.600   7.497   6.024  0.3303 -0.8418 -0.9808
   67MOL   H26645278   4.427   0.020   5.948 -2.4461 -1.7412  2.1062
   67MOL   H26745279   4.390   7.576   5.914  0.8413 -1.6247  0.0896
   67MOL   H26845280   4.662   7.696   5.826  0.9216 -1.1307 -0.5060
   67MOL   H26945281   4.608   7.547   5.762 -1.5609 -1.0296  2.4647
   67MOL   H27045282   4.473   0.103   5.705 -0.0148 -0.1089  0.3092
   67MOL   H27145283   4.431   7.667   5.637  0.2617 -0.1976  0.8460
   67MOL   H27245284   4.620   7.653   5.498 -2.2675 -1.0744  1.3653
   67MOL   H27345285   4.715   0.051   5.597  0.2585 -0.2889 -0.4918
   67MOL   N27445286   4.655   0.196   5.382 -0.0230  0.1081  0.5088
   67MOL   C27545287   4.624   0.313   5.294 -0.1405  0.0467  0.4037
   67MOL   C27645288   4.567   0.273   5.159  0.2612  0.8337 -0.5700
   67MOL   C27745289   4.532   0.389   5.067  0.9437 -0.1204  0.7883
   67MOL   C27845290   4.470   0.358   4.932 -0.3174 -0.4970  0.7538
   67MOL   C27945291   4.465   0.481   4.844 -0.6539 -0.2704  0.5307
   67MOL   C28045292   4.388   0.447   4.716  0.0276 -0.1303  0.3735
   67MOL   C28145293   4.446   0.344   4.623  0.5651 -0.1192  0.1556
   67MOL   C28245294   4.386   0.329   4.484 -0.5424 -0.1030 -0.0776
   67MOL   C28345295   4.439   0.214   4.399  0.5480  0.3653  0.9731
   67MOL   C28445296   4.384   0.207   4.259  0.7582 -0.2299  0.4029
   67MOL   C28545297   4.419   0.068   4.196 -0.7004  0.0201 -0.7908
   67MOL   O28645298   4.447   7.688   4.268  0.0364  0.2759  0.2951
   67MOL   H28745299   4.752   0.168   5.382 -0.2348 -0.7577 -1.7848
   67MOL   H28845300   4.723   0.357   5.282 -0.2077 -0.2428 -1.3156
   67MOL   H28945301   4.551   0.379   5.341  0.9084  2.7840 -1.7030
   67MOL   H29045302   4.476   0.212   5.165  1.6185 -1.0165  2.4895
   67MOL   H29145303   4.641   0.208   5.112 -0.8102 -0.0415 -1.0823
   67MOL   H29245304   4.470   0.457   5.125 -0.0618  0.1657 -0.6067
   67MOL   H29345305   4.621   0.451   5.053  0.8602 -0.5653 -1.8553
   67MOL   H29445306   4.376   0.305   4.946 -2.0078  2.5184  1.0502
   67MOL   H29545307   4.540   0.295   4.877  0.4587  0.5885  0.4726
   67MOL   H29645308   4.562   0.526   4.820 -0.6085  0.5288  2.1317
   67MOL   H29745309   4.413   0.560   4.896 -0.4463  0.9455 -1.0659
   67MOL   H29845310   4.289   0.412   4.748 -0.8069  1.4624 -0.4518
   67MOL   H29945311   4.364   0.534   4.655 -2.4771  0.4899  2.1404
   67MOL   H30045312   4.430   0.255   4.685 -1.1191  2.1116  3.0755
   67MOL   H30145313   4.552   0.372   4.619  0.1809  1.2745 -0.4096
   67MOL   H30245314   4.278   0.320   4.490 -0.4441 -2.5621 -1.4851
   67MOL   H30345315   4.404   0.427   4.439 -2.8270  0.2926 -0.1922
   67MOL   H30445316   4.421   0.118   4.448  1.3553 -0.4770 -0.3528
   67MOL   H30545317   4.548   0.213   4.400  0.5683 -1.1864 -0.4683
   67MOL   H30645318   4.437   0.286   4.206  2.0563 -2.2058 -1.3243
   67MOL   H30745319   4.276   0.211   4.245  0.9751 -1.6266 -2.1081
   67MOL   N30845320   4.419   0.065   4.064 -0.4889  0.2804 -0.1447
   67MOL   C30945321   4.480   7.677   3.981  0.3772  0.2394  0.0596
   67MOL   C31045322   4.440   7.682   3.836  0.0118  0.0095 -0.2142
   67MOL   C31145323   4.295   7.668   3.804 -0.1828  0.0263  0.6836
   67MOL   C31245324   4.252   7.522   3.785  0.4706 -0.2034  0.7542
   67MOL   C31345325   4.104   7.519   3.801  0.0913  0.8133 -0.2628
   67MOL   C31445326   4.064   7.513   3.948  0.7641 -0.0434 -0.0182
   67MOL   C31545327   4.112   7.389   4.030  0.7698  0.0869 -0.4394
   67MOL   C31645328   4.043   7.384   4.164 -0.1320  0.1384  0.2261
   67MOL   C31745329   4.083   7.254   4.241 -0.6007 -0.9178  0.3479
   67MOL   C31845330   4.232   7.254   4.295 -0.6266 -0.4293 -0.5889
   67MOL   C31945331   4.264   7.349   4.416 -0.1244  0.1498  0.1141
   67MOL   O32045332   4.170   7.391   4.487  0.0386  0.2610 -0.4138
   67MOL   H32145333   4.379   0.144   4.016  0.6828  0.6249 -0.5754
   67MOL   H32245334   4.460   7.575   4.015  0.5737 -0.6575 -2.4104
   67MOL   H32345335   4.587   7.674   4.001 -0.2674 -1.6574  3.6995
   67MOL   H32445336   4.496   7.612   3.774 -0.5147  0.8573 -1.6684
   67MOL   H32545337   4.476   0.064   3.802  0.3318 -0.3228 -0.8247
   67MOL   H32645338   4.229   0.015   3.864 -1.7925 -0.3164 -0.6615
   67MOL   H32745339   4.281   0.002   3.707  2.8085 -1.6821 -0.7129
   67MOL   H32845340   4.309   7.450   3.844  0.5104  0.5387  1.6355
   67MOL   H32945341   4.282   7.489   3.686  0.1846 -1.2857  1.0249
   67MOL   H33045342   4.064   7.436   3.743 -3.3938 -0.0000  3.0958
   67MOL   H33145343   4.056   7.604   3.753 -1.6859  1.1718  2.0468
   67MOL   H33245344   4.107   7.594   4.006  0.5934  0.0078  0.0383
   67MOL   H33345345   3.955   7.526   3.951  0.8168  0.2775  0.5485
   67MOL   H33445346   4.221   7.394   4.037  0.7482 -0.7293  0.6313
   67MOL   H33545347   4.092   7.294   3.980 -0.6522  0.7070 -1.0641
   67MOL   H33645348   4.083   7.465   4.225 -0.3939  0.8078 -0.4754
   67MOL   H33745349   3.934   7.391   4.156 -0.1392 -0.1252  0.0938
   67MOL   H33845350   4.082   7.172   4.170  0.6749 -1.5559  1.0480
   67MOL   H33945351   4.007   7.231   4.316 -1.2978  2.7286  0.8489
   67MOL   H34045352   4.313   7.271   4.223 -0.5110 -1.3846 -0.6846
   67MOL   H34145353   4.257   7.158   4.339 -0.2627 -0.3960 -0.7129
   67MOL   N34245354   4.389   7.389   4.444  0.0424  0.0308  0.2874
   67MOL   C34345355   4.424   7.492   4.548  0.9318  0.1991 -0.5245
   67MOL   C34445356   4.467   7.421   4.676  0.1195  0.0386  0.3771
   67MOL   C34545357   4.502   7.522   4.791  0.1846  0.2427 -0.5566
   67MOL   C34645358   4.509   7.458   4.924 -0.3791  0.0955 -0.3516
   67MOL   C34745359   4.542   7.561   5.035 -0.1559 -0.1575 -0.7224
   67MOL   C34845360   4.547   7.505   5.175  0.1758  0.2135 -0.7794
   67MOL   C34945361   4.409   7.449   5.211  0.1198  0.4936 -0.2908
   67MOL   C35045362   4.397   7.409   5.359  0.4568 -0.4544  0.2122
   67MOL   C35145363   4.273   7.319   5.357 -0.4998 -0.4547 -0.3126
   67MOL   C35245364   4.254   7.241   5.488 -0.5692  0.2626  0.2114
   67MOL   C35345365   4.274   7.323   5.619 -0.5595 -0.0861 -0.5391
   67MOL   O35445366   4.253   7.441   5.628  0.2396  0.3462  0.1835
   67MOL   H35545367   4.464   7.367   4.380 -0.1995 -0.3411  0.1245
   67MOL   H35645368   4.513   7.544   4.511  0.8839  1.3612  0.9135
   67MOL   H35745369   4.345   7.567   4.560 -0.8545 -1.8762  1.1841
   67MOL   H35845370   4.553   7.356   4.660 -1.2417 -2.0962  1.5057
   67MOL   H35945371   4.389   7.348   4.698 -0.2981 -0.0119 -1.2112
   67MOL   H36045372   4.579   7.592   4.759 -0.7690  1.5393 -0.0656
   67MOL   H36145373   4.416   7.589   4.785  0.1179  0.0101 -2.7759
   67MOL   H36245374   4.580   7.375   4.931 -0.8963 -0.4111 -1.0543
   67MOL   H36345375   4.413   7.411   4.944 -0.2551  0.4356  1.0914
   67MOL   H36445376   4.472   7.645   5.028  1.3185  1.1404 -0.0529
   67MOL   H36545377   4.636   7.607   5.006 -0.1895 -0.0396 -0.6475
   67MOL   H36645378   4.608   7.418   5.200 -2.0917 -1.1702 -0.0058
   67MOL   H36745379   4.568   7.584   5.247  0.2641 -0.0556 -0.5139
   67MOL   H36845380   4.376   7.371   5.142 -1.9661  1.0219  0.0945
   67MOL   H36945381   4.335   7.527   5.194  1.8294  1.8165 -1.8346
   67MOL   H37045382   4.482   7.351   5.394  0.2976 -0.5441  0.4493
   67MOL   H37145383   4.389   7.487   5.435  0.6647  1.1789 -1.4189
   67MOL   H37245384   4.276   7.251   5.272  0.1338 -0.0145 -0.6533
   67MOL   H37345385   4.183   7.375   5.332 -1.3435 -1.2987  0.7724
   67MOL   H37445386   4.318   7.153   5.493 -1.9864 -0.7155  1.9701
   67MOL   H37545387   4.151   7.205   5.492 -0.9754  1.5059  1.2357
   67MOL   N37645388   4.317   7.248   5.722  0.1802 -0.1750 -0.0593
   67MOL   C37745389   4.357   7.292   5.856 -0.5987 -0.3108  0.1122
   67MOL   C37845390   4.371   7.174   5.959  0.6062  0.1722 -0.9469
   67MOL   C37945391   4.416   7.202   6.106  0.3007  0.1400 -0.4837
   67MOL   C38045392   4.431   7.071   6.177  0.2512  0.0440  0.4904
   67MOL   C38145393   4.423   7.099   6.332  0.0922 -0.3184  1.1896
   67MOL   C38245394   4.290   7.072   6.397 -0.3774  0.4444  0.3409
   67MOL   C38345395   4.258   6.920   6.385  0.3888 -0.0152 -0.1300
   67MOL   C38445396   4.119   6.891   6.446  0.2737 -0.3473  0.1152
   67MOL   C38545397   4.081   6.745   6.440 -0.1206 -0.1967 -0.1408
   67MOL   C38645398   3.941   6.713   6.491  0.3439 -0.6048 -0.4206
   67MOL   C38745399   3.908   6.564   6.505 -0.0876 -0.5090 -0.4313
   67MOL   O38845400   3.986   6.483   6.454  0.0817 -0.8002  0.2185
   67MOL   H38945401   4.322   7.148   5.715  1.1651 -0.0676 -1.1804
   67MOL   H39045402   4.451   7.344   5.837 -0.4375 -0.6597 -0.0563
   67MOL   H39145403   4.281   7.361   5.893 -0.2799  0.5780 -0.8557
   67MOL   H39245404   4.443   7.115   5.902  0.9572 -2.1948  1.8523
   67MOL   H39345405   4.287   7.105   5.967  0.0479  0.7839 -1.4214
   67MOL   H39445406   4.509   7.259   6.104  0.9492 -0.7295  2.6155
   67MOL   H39545407   4.339   7.264   6.152  0.9923  0.6057  0.0612
   67MOL   H39645408   4.521   7.020   6.144 -0.2373 -1.2179  1.0820
   67MOL   H39745409   4.359   6.996   6.144 -1.4945  1.9847 -0.2522
   67MOL   H39845410   4.462   7.197   6.357  0.9607 -0.6515  1.1707
   67MOL   H39945411   4.485   7.027   6.386  1.4516 -0.5378 -0.5969
   67MOL   H40045412   4.296   7.096   6.504  0.3923 -1.6203  0.7876
   67MOL   H40145413   4.213   7.136   6.354 -0.9305 -0.5962 -0.2317
   67MOL   H40245414   4.330   6.853   6.432 -1.2778 -0.2266  2.2004
   67MOL   H40345415   4.251   6.892   6.280  1.2514  2.8202 -0.9879
   67MOL   H40445416   4.123   6.904   6.554  1.9690 -2.5344  0.3600
   67MOL   H40545417   4.041   6.952   6.401 -0.5242 -1.2510  0.2473
   67MOL   H40645418   4.152   6.696   6.507  0.3251 -0.1667 -0.5893
   67MOL   H40745419   4.098   6.706   6.340 -2.0657  0.0396 -0.5884
   67MOL   H40845420   3.857   6.763   6.441  0.2945 -1.6125 -1.3541
   67MOL   H40945421   3.943   6.748   6.594 -0.2076 -0.6680 -0.3857
   67MOL   N41045422   3.797   6.534   6.575  0.2309  0.4134 -0.1129
   67MOL   C41145423   3.755   6.398   6.606 -0.2665  0.2526  0.0196
   67MOL   C41245424   3.607   6.387   6.614 -0.0418  0.0361  0.5221
   67MOL   C41345425   3.566   6.245   6.665 -0.3384 -0.4323  0.1899
   67MOL   C41445426   3.424   6.212   6.640  0.1742  0.0055  0.1260
   67MOL   C41545427   3.367   6.076   6.700 -0.8867 -0.6356  0.6997
   67MOL   C41645428   3.215   6.077   6.696 -0.4671  0.3847 -0.3886
   67MOL   C41745429   3.148   5.943   6.739 -0.2601 -0.1075 -0.1323
   67MOL   C41845430   3.003   5.918   6.709 -0.0452 -0.3733  0.0640
   67MOL   C41945431   2.965   5.768   6.731 -0.8311 -0.2881  0.0593
   67MOL   C42045432   2.809   5.742   6.743 -0.8686  0.5039  0.2737
   67MOL   C42145433   2.757   5.758   6.891  0.5299  0.1402 -0.1942
   67MOL   O42245434   2.812   5.702   6.983 -0.1258  0.1809  0.2332
   67MOL   H42345435   3.740   6.610   6.607 -2.2457  0.0928 -3.5235
   67MOL   H42445436   3.792   6.330   6.529  0.2997 -2.7988  2.8827
   67MOL   H42545437   3.811   6.362   6.692 -0.5719  0.2372  0.2135
   67MOL   H42645438   3.572   6.408   6.513 -0.0665  1.4596  0.8052
   67MOL   H42745439   3.556   6.463   6.674 -1.0320  1.7577 -2.3829
   67MOL   H42845440   3.629   6.164   6.627 -1.3847 -1.6547  0.9972
   67MOL   H42945441   3.587   6.250   6.772 -1.9007 -2.1368  0.6066
   67MOL   H43045442   3.404   6.214   6.532  0.0204  1.9175  0.1833
   67MOL   H43145443   3.377   6.306   6.669  2.4171  0.6814  1.7290
   67MOL   H43245444   3.386   6.086   6.807  0.8264  0.9054  0.2722
   67MOL   H43345445   3.419   5.993   6.653 -1.5890 -0.0273 -1.1846
   67MOL   H43445446   3.177   6.150   6.767 -0.5129 -1.0468  1.0914
   67MOL   H43545447   3.182   6.106   6.596  0.4635 -0.3169 -0.9057
   67MOL   H43645448   3.174   5.938   6.845  1.2156  0.6496 -0.4540
   67MOL   H43745449   3.207   5.863   6.693  0.5731  0.1239  0.5249
   67MOL   H43845450   2.937   5.981   6.769 -0.7533  0.3894 -1.4892
   67MOL   H43945451   2.998   5.944   6.603 -1.4836 -1.4474 -0.1580
   67MOL   H44045452   3.014   5.736   6.823 -0.8948  0.1496  0.2437
   67MOL   H44145453   3.008   5.714   6.647 -2.2213 -2.1637  0.5054
   67MOL   H44245454   2.784   5.637   6.722  0.5138  0.1058  0.5612
   67MOL   H44345455   2.761   5.804   6.667 -0.4553 -0.2166 -0.5901
   67MOL   N44445456   2.656   5.850   6.913  0.7564 -0.2343  0.0096
   67MOL   C44545457   2.633   5.910   7.043  0.8499 -0.7643 -0.1018
   67MOL   C44645458   2.518   6.009   7.033 -0.4455 -0.2577  0.3037
   67MOL   C44745459   2.439   6.022   7.164  0.5422 -1.0311 -0.5260
   67MOL   C44845460   2.519   6.031   7.291  0.3531 -0.2352  0.3188
   67MOL   C44945461   2.448   6.066   7.417  0.1722  0.0097 -0.1109
   67MOL   C45045462   2.553   6.062   7.535  0.4276  0.4431 -0.3347
   67MOL   C45145463   2.517   6.152   7.655 -0.9236  0.2921 -0.4508
   67MOL   C45245464   2.562   6.121   0.083 -0.8739 -0.4026  0.7014
   67MOL   C45345465   2.477   6.180   0.197  0.3659 -0.4042 -0.0111
   67MOL   C45445466   2.532   6.178   0.340 -0.2762 -1.1739 -0.0161
   67MOL   C45545467   2.581   6.046   0.393  0.1825 -0.0852 -0.0036
   67MOL   O45645468   2.563   5.935   0.333 -0.1201 -0.2909 -0.1912
   67MOL   H45745469   2.601   5.877   6.833 -1.2172 -1.9235  0.7643
   67MOL   H45845470   2.622   5.832   7.118  0.4041 -0.8311 -0.2400
   67MOL   H45945471   2.723   5.964   7.073  0.1288  0.7143 -0.5611
   67MOL   H46045472   2.443   5.985   6.957 -1.2678  2.6844  0.1300
   67MOL   H46145473   2.553   6.106   6.999 -1.9365 -0.0119 -0.5734
   67MOL   H46245474   2.386   6.117   7.158 -0.4193 -1.5496 -0.3966
   67MOL   H46345475   2.365   5.943   7.174  0.9692 -1.1945  1.6168
   67MOL   H46445476   2.590   6.111   7.272 -1.7295  1.5245 -0.2344
   67MOL   H46545477   2.569   5.935   7.302 -0.2232 -0.3745  1.8291
   67MOL   H46645478   2.367   5.992   7.421  1.7333 -1.6589  1.8535
   67MOL   H46745479   2.398   6.162   7.407  1.2072  0.6981  1.1538
   67MOL   H46845480   2.575   5.960   7.566 -1.5918  0.3110  0.7082
   67MOL   H46945481   2.639   6.117   7.496  0.2874  3.0507  2.8027
   67MOL   H47045482   2.409   6.162   7.653 -1.1680 -1.9841  0.1706
   67MOL   H47145483   2.555   6.254   7.643  2.2483 -0.5497  1.5540
   67MOL   H47245484   2.564   6.012   0.094 -1.6105 -0.4235  0.6149
   67MOL   H47345485   2.665   6.154   0.096 -0.1675 -2.4380  0.4385
   67MOL   H47445486   2.377   6.137   0.191 -0.0452  0.4300  0.8251
   67MOL   H47545487   2.446   6.282   0.176 -0.7080 -1.0936 -1.8959
   67MOL   H47645488   2.449   6.203   0.407  0.3037 -0.8162  0.5820
   67MOL   H47745489   2.618   6.245   0.348 -0.5038 -0.7560 -0.9884
   67MOL   N47845490   2.642   6.047   0.510 -0.6626 -0.2709  0.1580
   67MOL   C47945491   2.680   5.927   0.588 -0.9495 -0.2033  0.7267
   67MOL   C48045492   2.832   5.907   0.579 -0.6380  0.5552  0.4069
   67MOL   C48145493   2.888   5.870   0.441  0.3151 -0.1334 -0.1400
   67MOL   C48245494   3.031   5.816   0.447  1.0101  0.6473 -0.3857
   67MOL   C48345495   3.134   5.934   0.443 -0.0108 -0.3532 -0.1052
   67MOL   C48445496   3.279   5.886   0.428 -0.2047  0.3627  0.0863
   67MOL   C48545497   3.380   6.004   0.431  0.4365 -0.6497 -0.2595
   67MOL   C48645498   3.403   6.060   0.569 -0.0127  0.2291 -0.6804
   67MOL   C48745499   3.498   6.184   0.584 -0.2112  0.1583 -0.2230
   67MOL   C48845500   3.536   6.217   0.729 -0.2614  0.3610  0.5378
   67MOL   C48945501   3.657   6.134   0.780  0.4250  0.1437 -0.7771
   67MOL   O49045502   3.635   6.032   0.852 -0.3582  0.4129 -0.7423
   67MOL   H49145503   2.649   6.137   0.555 -0.9802 -1.1562  2.0357
   67MOL   H49245504   2.650   5.942   0.692 -2.9796  0.1481  0.1075
   67MOL   H49345505   2.627   5.841   0.547 -2.2510  1.0237 -0.2302
   67MOL   H49445506   2.847   5.823   0.648 -0.6433 -0.0095 -0.2746
   67MOL   H49545507   2.892   5.986   0.624 -0.7525  1.0427 -0.2930
   67MOL   H49645508   2.831   5.797   0.383  2.0169  1.2407 -3.6828
   67MOL   H49745509   2.884   5.964   0.387 -1.4937 -0.3914 -0.4846
   67MOL   H49845510   3.041   5.751   0.360 -2.6506  0.3105 -0.6118
   67MOL   H49945511   3.035   5.759   0.540 -0.0887 -0.2345 -0.8816
   67MOL   H50045512   3.118   5.993   0.533  0.7105  0.4182 -0.4778
   67MOL   H50145513   3.119   5.993   0.352 -0.7049  0.6703  0.6674
   67MOL   H50245514   3.320   5.817   0.501  1.6076 -1.2851 -2.3899
   67MOL   H50345515   3.289   5.830   0.335  3.3794  1.3224 -0.1849
   67MOL   H50445516   3.339   6.079   0.363 -3.2288 -1.6421  0.7481
   67MOL   H50545517   3.477   5.971   0.393  0.8584 -1.0559  1.1433
   67MOL   H50645518   3.308   6.093   0.610  0.6660  0.4111  0.7768
   67MOL   H50745519   3.437   5.978   0.632  0.1274  0.9865  0.2339
   67MOL   H50845520   3.451   6.264   0.527 -0.7299  0.1614  0.2039
   67MOL   H50945521   3.585   6.157   0.524  1.1476 -0.1730  1.8327
   67MOL   H51045522   3.460   6.214   0.808  1.3562 -2.5532  2.0436
   67MOL   H51145523   3.581   6.316   0.733  1.0158 -0.0258 -2.9792
   67MOL   N51245524   3.780   6.173   0.743  0.0392 -0.6103 -0.0902
   67MOL   C51345525   3.907   6.106   0.776 -0.0733 -0.2529  0.5257
   67MOL   C51445526   4.023   6.174   0.702  0.0159  0.1105 -0.8446
   67MOL   C51545527   4.012   6.183   0.550  0.1042 -0.1850 -0.4202
   67MOL   C51645528   3.925   6.296   0.492 -0.6083 -0.1383  0.8689
   67MOL   C51745529   3.901   6.278   0.341  0.4062 -0.2303  0.5005
   67MOL   C51845530   3.815   6.391   0.287 -0.6264  0.0078  0.2489
   67MOL   C51945531   3.795   6.373   0.136  0.5623 -0.2266  0.6864
   67MOL   C52045532   3.725   6.491   0.070  0.3144  0.9176 -0.2425
   67MOL   C52145533   3.706   6.462   7.637  0.0301  0.2852  0.0791
   67MOL   C52245534   3.600   6.558   7.573  0.1122  0.2504  0.2492
   67MOL   C52345535   3.644   6.701   7.546 -0.0440  0.8867 -0.4643
   67MOL   O52445536   3.757   6.717   7.497 -0.0393  0.4782  0.7278
   67MOL   H52545537   3.783   6.253   0.681  0.2016 -0.8715 -0.4221
   67MOL   H52645538   3.927   6.127   0.881  1.0712 -2.0799  0.7139
   67MOL   H52745539   3.906   5.997   0.778  1.6733 -0.2445  2.3977
   67MOL   H52845540   4.108   6.109   0.722 -1.8168 -1.4305  2.5031
   67MOL   H52945541   4.044   6.270   0.749 -1.4804  0.2054 -0.3356
   67MOL   H53045542   4.113   6.193   0.510 -0.4344  0.5112 -1.6497
   67MOL   H53145543   3.966   6.092   0.509 -0.3892  0.1971 -0.7303
   67MOL   H53245544   3.981   6.388   0.502 -2.8050  1.7104 -2.5461
   67MOL   H53345545   3.831   6.297   0.547 -1.0579 -1.2322  0.1513
   67MOL   H53445546   3.843   6.186   0.331 -1.0177  0.9518 -2.7902
   67MOL   H53545547   3.992   6.251   0.289 -0.9857 -1.1637 -1.5135
   67MOL   H53645548   3.717   6.384   0.333  0.1687 -1.2189  1.8105
   67MOL   H53745549   3.860   6.485   0.318 -1.4761  1.0648 -1.6598
   67MOL   H53845550   3.740   6.282   0.109  0.9736 -0.5568  0.9603
   67MOL   H53945551   3.892   6.356   0.090 -0.0590 -0.5974 -0.5368
   67MOL   H54045552   3.624   6.514   0.107  1.3033  2.4880  1.5881
   67MOL   H54145553   3.777   6.587   0.077  0.1352  0.9795  0.2805
   67MOL   H54245554   3.682   6.358   7.614 -1.6437  0.3895  1.2442
   67MOL   H54345555   3.804   6.470   7.590 -0.1105 -0.3433 -0.3225
   67MOL   H54445556   3.509   6.557   7.634 -0.5280  0.1492 -0.7089
   67MOL   H54545557   3.575   6.517   7.476 -0.4542 -0.3289  0.6334
   67MOL   N54645558   3.559   6.803   7.578  0.3063 -0.0984 -0.1396
   67MOL   C54745559   3.608   6.938   7.574 -0.2369 -0.7719  0.0477
   67MOL   C54845560   3.547   7.023   7.690  0.5975  0.0422 -0.0171
   67MOL   C54945561   3.567   6.956   0.109  0.5663 -0.2689  0.1639
   67MOL   C55045562   3.708   6.967   0.156 -0.1794 -0.4156  0.1400
   67MOL   C55145563   3.726   6.895   0.288  0.8152  1.5623 -0.1789
   67MOL   C55245564   3.871   6.880   0.332  0.2585  0.0771 -0.9433
   67MOL   C55345565   3.898   6.860   0.488 -0.0259  0.2308  0.1421
   67MOL   C55445566   3.858   6.987   0.562 -0.5201  0.1716  0.4312
   67MOL   C55545567   3.910   6.980   0.701 -0.1132 -0.0341 -0.1838
   67MOL   C55645568   3.855   7.088   0.799  0.2695  0.6450  0.6764
   67MOL   C55745569   3.889   7.056   0.948  0.1576 -0.1603  0.0625
   67MOL   O55845570   3.827   6.969   1.004  0.1865  0.1915 -0.4183
   67MOL   H55945571   3.464   6.799   7.610  0.2070 -0.7576 -0.5041
   67MOL   H56045572   3.716   6.937   7.583 -0.1552 -0.7984 -0.8865
   67MOL   H56145573   3.581   6.983   7.478  1.2111 -0.9712 -0.4644
   67MOL   H56245574   3.440   7.034   7.668  0.3625  0.4772  1.2924
   67MOL   H56345575   3.578   7.127   7.697  0.0233  0.1992  0.2687
   67MOL   H56445576   3.507   7.009   0.183 -1.0781 -3.0472  0.9118
   67MOL   H56545577   3.523   6.856   0.114  1.4859 -0.7691 -1.3491
   67MOL   H56645578   3.753   7.065   0.173  0.3301 -0.6245  0.0110
   67MOL   H56745579   3.780   6.930   0.084 -0.1316  0.1716 -0.1145
   67MOL   H56845580   3.680   6.797   0.277  3.3824  0.3074 -0.1205
   67MOL   H56945581   3.663   6.950   0.358  1.3112  3.3928 -1.1399
   67MOL   H57045582   3.935   6.803   0.287 -1.3671 -0.4804 -2.3569
   67MOL   H57145583   3.921   6.969   0.295 -1.2851  0.8769 -1.0959
   67MOL   H57245584   4.001   6.830   0.508 -0.0394 -0.0643 -0.2219
   67MOL   H57345585   3.847   6.771   0.526  0.0956 -0.1052 -0.4566
   67MOL   H57445586   3.911   7.070   0.514 -1.3228  0.6515  0.3580
   67MOL   H57545587   3.755   7.022   0.557 -1.0382 -1.3172  0.5676
   67MOL   H57645588   4.017   7.000   0.699  0.3053 -2.1335  0.3211
   67MOL   H57745589   3.895   6.880   0.742  2.3415  0.1588  1.2722
   67MOL   H57845590   3.746   7.089   0.786  0.5718  0.4611 -2.3554
   67MOL   H57945591   3.887   7.187   0.768  0.4675  0.1285 -0.8064
   67MOL   N58045592   3.972   7.143   1.009  0.6445 -0.1307 -0.0667
   67MOL   C58145593   3.990   7.158   1.155 -0.7600 -0.6651 -0.1211
   67MOL   C58245594   4.007   7.309   1.183 -0.0532 -0.2864 -0.5705
   67MOL   C58345595   4.045   7.336   1.330 -0.0304  0.0017 -0.2964
   67MOL   C58445596   4.060   7.482   1.366 -0.0735  0.3701 -0.4923
   67MOL   C58545597   4.084   7.506   1.519  0.4630 -0.2925  0.1348
   67MOL   C58645598   3.960   7.499   1.612  0.3981  0.0203  0.6024
   67MOL   C58745599   3.971   7.522   1.760  0.1569  0.2836 -0.0456
   67MOL   C58845600   4.098   7.448   1.815 -1.2260  0.4969 -0.1794
   67MOL   C58945601   4.111   7.455   1.969 -0.2792  0.7949 -0.5225
   67MOL   C59045602   4.259   7.428   2.006 -0.6513 -0.0439  0.0261
   67MOL   C59145603   4.300   7.455   2.154  0.0891  0.3685  1.1528
   67MOL   O59245604   4.217   7.487   2.238  0.0709 -0.6635 -0.6367
   67MOL   H59345605   4.037   7.187   0.946 -0.1999 -0.1472 -0.9706
   67MOL   H59445606   3.901   7.124   1.207 -1.4206 -0.5693 -1.1664
   67MOL   H59545607   4.071   7.097   1.195  0.4662  0.3567 -0.9913
   67MOL   H59645608   3.907   7.350   1.172  0.1659  1.3527  3.0123
   67MOL   H59745609   4.083   7.365   1.129  0.4884  0.0667  0.5400
   67MOL   H59845610   3.981   7.286   1.403  0.5437  0.5193  0.5719
   67MOL   H59945611   4.142   7.293   1.353 -0.3132  0.2273  1.3836
   67MOL   H60045612   3.978   7.548   1.336 -0.6171 -1.4689 -3.2644
   67MOL   H60145613   4.144   7.526   1.313  2.1904 -2.9206  0.1828
   67MOL   H60245614   4.124   7.606   1.538 -1.7549  0.7427 -0.4904
   67MOL   H60345615   4.163   7.434   1.543  0.6084 -0.9492 -2.1917
   67MOL   H60445616   3.888   7.571   1.572 -0.2118 -1.3384 -0.8017
   67MOL   H60545617   3.914   7.400   1.603 -1.6771  0.9423  0.7515
   67MOL   H60645618   3.887   7.481   1.816  1.3316 -0.5209  1.1648
   67MOL   H60745619   3.968   7.629   1.782 -2.3028 -0.2003  2.2632
   67MOL   H60845620   4.103   7.343   1.786 -2.3531  0.3634  0.1197
   67MOL   H60945621   4.185   7.494   1.768 -1.7520 -0.7592 -2.4683
   67MOL   H61045622   4.044   7.388   2.024  1.1357  1.3818  2.0043
   67MOL   H61145623   4.076   7.555   1.992 -0.9569  0.2088  1.1324
   67MOL   H61245624   4.327   7.496   1.954 -0.5357 -1.1763 -1.3286
   67MOL   H61345625   4.293   7.334   1.963  0.4318  0.7954 -0.9895
   67MOL   N61445626   4.426   7.436   2.188 -0.1643 -0.4725  0.3969
   67MOL   C61545627   4.468   7.415   2.323  0.3059  0.0152  0.6492
   67MOL   C61645628   4.463   7.271   2.370 -0.2319 -0.5791 -0.2623
   67MOL   C61745629   4.543   7.177   2.275  0.2132 -0.3150  0.2186
   67MOL   C61845630   4.566   7.034   2.339  0.5684 -0.2012  0.2741
   67MOL   C61945631   4.457   6.933   2.301  0.1869  0.3951  0.5096
   67MOL   C62045632   4.482   6.789   2.347  0.4101 -0.0395 -0.3928
   67MOL   C62145633   4.432   6.685   2.247 -0.0555  0.1079 -0.3818
   67MOL   C62245634   4.284   6.662   2.250 -0.1865 -0.2042 -0.1938
   67MOL   C62345635   4.242   6.587   2.122  0.0884 -0.3803  0.0427
   67MOL   C62445636   4.087   6.581   2.112  0.5397  0.1141 -0.4442
   67MOL   C62545637   4.036   6.506   1.992  0.2349  0.0654  0.5791
   67MOL   O62645638   4.096   6.519   1.880  0.4315  0.4220  0.0753
   67MOL   H62745639   4.491   7.419   2.113  0.0543  0.8826  0.2713
   67MOL   H62845640   4.400   7.472   2.387  1.6038  0.9057  1.2472
   67MOL   H62945641   4.569   7.445   2.351 -0.4056  0.4038  2.8387
   67MOL   H63045642   4.360   7.238   2.375 -0.7983  1.2388  0.9276
   67MOL   H63145643   4.499   7.269   2.473  0.4818 -1.3506 -0.5201
   67MOL   H63245644   4.498   7.164   2.177  1.3877 -1.1031 -0.2246
   67MOL   H63345645   4.639   7.227   2.257  1.5394 -3.1058 -0.6793
   67MOL   H63445646   4.559   7.043   2.447 -0.3804  0.4350  0.1641
   67MOL   H63545647   4.664   7.003   2.302  0.3037  0.0993 -0.7005
   67MOL   H63645648   4.475   6.923   2.194 -3.9791 -0.5222 -0.1982
   67MOL   H63745649   4.361   6.975   2.331  1.5178  1.8198  2.8845
   67MOL   H63845650   4.588   6.776   2.370  0.0801 -1.8867  0.1408
   67MOL   H63945651   4.436   6.775   2.445  0.5536 -1.8528 -0.5665
   67MOL   H64045652   4.474   6.587   2.271 -0.5755 -0.5502 -2.0863
   67MOL   H64145653   4.479   6.693   2.149  1.5804 -5.0244 -0.2022
   67MOL   H64245654   4.242   6.608   2.334  0.9064 -0.8130 -0.0352
   67MOL   H64345655   4.226   6.755   2.242  0.0844  0.0181  0.4025
   67MOL   H64445656   4.294   6.492   2.118  2.5323  0.8959  0.6441
   67MOL   H64545657   4.272   6.632   2.027  0.0500 -2.7593 -1.1161
   67MOL   H64645658   4.050   6.683   2.104 -1.3917 -0.4288  1.2514
   67MOL   H64745659   4.043   6.536   2.201 -0.8632  0.0421 -1.1528
   67MOL   N64845660   3.915   6.448   2.005  0.1660  0.8942  0.5468
   67MOL   C64945661   3.826   6.398   1.899 -0.0467  0.0820 -0.3777
   67MOL   C65045662   3.827   6.243   1.898  0.0690 -0.0713  0.5396
   67MOL   C65145663   3.961   6.183   1.851 -0.3495 -0.7161 -1.0736
   67MOL   C65245664   3.956   6.028   1.839  0.3419  0.1849 -0.3322
   67MOL   C65345665   4.093   5.956   1.810  0.5056 -0.0691  0.5207
   67MOL   C65445666   4.201   5.961   1.922  0.0584 -0.0786  0.0786
   67MOL   C65545667   4.332   5.882   1.898  0.3519  0.2857  0.1682
   67MOL   C65645668   4.413   5.866   2.033  0.4471  0.3557  0.1589
   67MOL   C65745669   4.551   5.800   2.002  0.8826 -0.0543  0.3286
   67MOL   C65845670   4.624   5.758   2.133 -0.1938  0.5995 -0.3663
   67MOL   C65945671   4.665   5.871   2.225 -0.2955  0.3699  0.3459
   67MOL   O66045672   4.728   5.847   2.330  0.3161 -0.0323  0.4692
   67MOL   H66145673   3.870   6.437   2.095  0.9925  0.7242  0.9451
   67MOL   H66245674   3.851   6.454   1.809  0.5010 -0.2040 -0.4045
   67MOL   H66345675   3.728   6.432   1.933  0.0757  0.0892 -0.0294
   67MOL   H66445676   3.745   6.209   1.833  0.7967  1.6210 -1.3121
   67MOL   H66545677   3.799   6.190   1.989 -0.8623  1.7498  1.3412
   67MOL   H66645678   4.001   6.234   1.764  0.7520  1.8999  0.8787
   67MOL   H66745679   4.031   6.210   1.931 -0.0512 -0.4066 -1.4377
   67MOL   H66845680   3.880   5.994   1.768 -2.5031 -0.2214  2.7696
   67MOL   H66945681   3.925   6.002   1.940 -1.3763  2.4035 -0.2582
   67MOL   H67045682   4.130   6.002   1.718 -0.2806  0.3676  0.4232
   67MOL   H67145683   4.076   5.855   1.773  2.7605 -0.9863  1.8486
   67MOL   H67245684   4.210   6.065   1.954 -1.0673  0.4209 -1.1500
   67MOL   H67345685   4.162   5.934   2.020  0.7053 -0.0054  0.3591
   67MOL   H67445686   4.387   5.939   1.823 -0.6501  0.0326 -0.7792
   67MOL   H67545687   4.318   5.782   1.856 -2.6870 -0.3892  2.5830
   67MOL   H67645688   4.421   5.962   2.084 -0.6033 -0.1134  1.2365
   67MOL   H67745689   4.366   5.794   2.100  0.2842  0.8008  0.5275
   67MOL   H67845690   4.610   5.876   1.951  0.1815  0.3456  0.0976
   67MOL   H67945691   4.531   5.721   1.930  0.8300  0.6477 -0.4382
   67MOL   H68045692   4.714   5.700   2.111 -0.1799  0.6207 -0.3612
   67MOL   H68145693   4.558   5.693   2.189 -0.8774  1.3694 -0.2678
   67MOL   H68245694   4.640   5.970   2.188  0.0674 -0.1841 -1.4162
   68MOL     N145695   3.565   0.523   5.475 -0.2316  0.2742  0.8455
   68MOL     C245696   3.518   0.577   5.346  0.1639  0.2002  0.6274
   68MOL     C345697   3.596   0.704   5.305 -0.1084 -0.0994  0.2713
   68MOL     C445698   3.544   0.771   5.179 -0.6221  0.2111  0.8729
   68MOL     C545699   3.604   0.908   5.151  0.1229  0.0840 -0.1089
   68MOL     C645700   3.753   0.912   5.112  0.7651  0.3022  0.7195
   68MOL     C745701   3.812   1.040   5.051  0.2851  0.0280 -0.3135
   68MOL     C845702   3.959   1.052   5.074 -0.4368  0.6057  0.6835
   68MOL     C945703   4.022   1.180   5.006 -0.2349 -0.4771 -0.0884
   68MOL    C1045704   4.181   1.183   5.034  0.3013  1.0577  0.0141
   68MOL    C1145705   4.258   1.286   4.955  0.1513 -0.0436  0.0184
   68MOL    C1245706   4.195   1.425   4.962 -0.9298  0.0565 -0.5250
   68MOL    O1345707   4.185   1.481   5.072  0.6023 -0.0327 -0.4103
   68MOL    H1445708   3.652   0.478   5.449 -0.5222 -0.6261  1.4027
   68MOL    H1545709   3.413   0.604   5.359  0.3142  0.7067  0.7843
   68MOL    H1645710   3.526   0.504   5.265  0.2070  0.8348  0.0576
   68MOL    H1745711   3.697   0.669   5.285 -0.7045 -0.4934 -2.3084
   68MOL    H1845712   3.597   0.774   5.387 -0.1888  0.3394 -0.1006
   68MOL    H1945713   3.552   0.701   5.096  1.6142 -1.2067  2.2341
   68MOL    H2045714   3.439   0.794   5.199 -1.2648 -2.0141  0.2675
   68MOL    H2145715   3.578   0.973   5.234 -0.2379  1.8725 -1.5844
   68MOL    H2245716   3.550   0.944   5.063  0.4954 -0.5881 -0.6220
   68MOL    H2345717   3.775   0.822   5.055 -0.7285  0.7943 -0.6560
   68MOL    H2445718   3.806   0.880   5.202 -1.3168  0.2262  1.9368
   68MOL    H2545719   3.793   1.051   4.945 -1.0937  1.7970  0.0924
   68MOL    H2645720   3.762   1.123   5.101  3.4661  1.4474  0.6954
   68MOL    H2745721   4.000   0.958   5.036 -2.6755 -1.2399  2.6774
   68MOL    H2845722   3.979   1.039   5.181 -2.8141 -1.5734  0.9122
   68MOL    H2945723   4.009   1.176   4.898 -0.5007  1.6972 -0.1593
   68MOL    H3045724   3.973   1.270   5.040  0.5480  0.1441 -0.5844
   68MOL    H3145725   4.225   1.087   5.006 -0.9584  0.7851 -1.0698
   68MOL    H3245726   4.210   1.186   5.139  1.4246  0.7102 -0.2732
   68MOL    H3345727   4.265   1.253   4.851  0.0539 -0.6630  0.2068
   68MOL    H3445728   4.358   1.291   4.997 -0.1459 -0.0878  0.7385
   68MOL    H3545729   3.497   0.450   5.491 -0.7123  1.0096  2.1937
   68MOL    N3645730   4.156   1.478   4.847  0.2557 -0.3460 -0.4084
   68MOL    C3745731   4.088   1.611   4.831 -0.5740 -0.5664 -0.6670
   68MOL    C3845732   3.988   1.589   4.717 -0.1368  0.1325  0.2964
   68MOL    C3945733   3.886   1.477   4.751  0.3357 -0.7060  0.3624
   68MOL    C4045734   3.771   1.467   4.647  0.0116 -0.6199  0.2555
   68MOL    C4145735   3.647   1.370   4.680  0.2600 -0.1281 -0.6579
   68MOL    C4245736   3.605   1.355   4.829 -0.3114 -0.1491 -0.5380
   68MOL    C4345737   3.472   1.283   4.847 -0.2253 -0.0809 -1.0440
   68MOL    C4445738   3.490   1.131   4.849 -0.4002 -0.2942  0.1814
   68MOL    C4545739   3.365   1.053   4.906 -0.4976 -0.9700  0.5055
   68MOL    C4645740   3.224   1.094   4.839  0.4240  0.3108 -0.5879
   68MOL    C4745741   3.159   1.229   4.880 -0.3549 -0.2226  0.1740
   68MOL    O4845742   3.189   1.300   4.977 -0.8972  0.4271 -0.4641
   68MOL    H4945743   4.150   1.430   4.758  0.0400 -0.5601 -0.2782
   68MOL    H5045744   4.030   1.647   4.916 -1.5890  0.6658 -1.8740
   68MOL    H5145745   4.162   1.685   4.800  0.4162 -1.0131  0.5609
   68MOL    H5245746   4.041   1.563   4.626 -1.4987 -1.1618 -0.1487
   68MOL    H5345747   3.934   1.681   4.693  1.7850  0.9453 -1.0317
   68MOL    H5445748   3.935   1.379   4.753 -0.4752 -1.1198  0.3556
   68MOL    H5545749   3.851   1.494   4.853  0.4330 -0.2801  0.3237
   68MOL    H5645750   3.803   1.448   4.545  1.2920  0.2089  0.4820
   68MOL    H5745751   3.719   1.563   4.638  0.2960 -0.3363  1.4742
   68MOL    H5845752   3.679   1.273   4.643 -4.2187 -1.6381 -0.8795
   68MOL    H5945753   3.555   1.390   4.626  0.1286  0.0801 -0.3583
   68MOL    H6045754   3.685   1.318   4.894  0.2637  1.6141 -0.2228
   68MOL    H6145755   3.581   1.455   4.862 -1.4968 -0.5029 -0.2842
   68MOL    H6245756   3.391   1.323   4.786 -1.9978 -1.6176  0.2254
   68MOL    H6345757   3.444   1.310   4.950  0.7791 -0.0704 -0.7659
   68MOL    H6445758   3.515   1.102   4.747  1.4928 -0.7303  0.7445
   68MOL    H6545759   3.576   1.100   4.909  2.0615  0.4137 -2.8652
   68MOL    H6645760   3.358   1.083   5.011  2.6991  0.2251  0.4329
   68MOL    H6745761   3.370   0.945   4.913  1.6070 -0.9631 -0.5077
   68MOL    H6845762   3.158   1.012   4.865 -0.9525  2.0421  1.5866
   68MOL    H6945763   3.223   1.090   4.730 -0.2460  2.0194 -0.6648
   68MOL    N7045764   3.052   1.262   4.802 -0.4538 -0.0240 -0.2010
   68MOL    C7145765   2.949   1.366   4.827  1.0600  0.3044 -0.3918
   68MOL    C7245766   2.983   1.498   4.752  0.8136 -0.2611  0.0961
   68MOL    C7345767   2.856   1.597   4.747 -0.4459 -0.3758 -0.5679
   68MOL    C7445768   2.892   1.740   4.706 -0.6590  0.5318 -0.0630
   68MOL    C7545769   2.958   1.762   4.569 -0.7533 -0.0425  0.2046
   68MOL    C7645770   2.865   1.749   4.450  0.2768  0.2135 -0.2610
   68MOL    C7745771   2.961   1.744   4.324 -0.3978  0.0062 -0.3294
   68MOL    C7845772   2.879   1.719   4.191 -0.0517 -0.0470 -0.7166
   68MOL    C7945773   2.803   1.588   4.194  0.5304 -0.7572 -0.2793
   68MOL    C8045774   2.716   1.582   4.062 -0.5841  0.1273  0.2036
   68MOL    C8145775   2.601   1.682   4.054 -0.1390  0.4773  0.5077
   68MOL    O8245776   2.499   1.666   4.111 -0.2694 -0.0377 -0.2650
   68MOL    H8345777   3.034   1.202   4.723  0.0166  0.7568 -0.9060
   68MOL    H8445778   2.850   1.333   4.796  0.8870 -0.2671  0.7439
   68MOL    H8545779   2.931   1.382   4.934 -0.8184 -2.1765 -0.2936
   68MOL    H8645780   3.017   1.472   4.652 -0.4696 -0.4922 -0.2868
   68MOL    H8745781   3.072   1.552   4.784 -0.1035  1.5784 -0.3542
   68MOL    H8845782   2.782   1.549   4.683 -0.8153  0.1947 -0.5735
   68MOL    H8945783   2.810   1.594   4.847  1.8388 -1.1049  0.4886
   68MOL    H9045784   2.959   1.780   4.782 -0.4449 -2.1664  1.2320
   68MOL    H9145785   2.802   1.802   4.715 -1.5959 -0.8020 -0.1815
   68MOL    H9245786   3.045   1.696   4.559 -0.9688 -1.0800  4.2443
   68MOL    H9345787   2.993   1.865   4.560 -0.9351  0.1987  2.1176
   68MOL    H9445788   2.805   1.658   4.457 -1.9734  1.6243 -0.6087
   68MOL    H9545789   2.799   1.835   4.445  0.7035  0.5731  0.1850
   68MOL    H9645790   3.034   1.666   4.345  1.0511  1.7490  1.2460
   68MOL    H9745791   3.024   1.832   4.319 -1.3078  0.6260 -1.0593
   68MOL    H9845792   2.813   1.804   4.172  1.8257  1.4051 -0.9117
   68MOL    H9945793   2.956   1.724   4.114  0.9515  0.3086  0.2891
   68MOL   H10045794   2.733   1.590   4.278 -0.9053  0.9753 -1.4992
   68MOL   H10145795   2.867   1.500   4.201  1.9568  0.2398 -0.5917
   68MOL   H10245796   2.667   1.485   4.047 -0.7455  0.3381 -0.6902
   68MOL   H10345797   2.781   1.599   3.976  0.0454  2.1672  1.0641
   68MOL   N10445798   2.623   1.783   3.972 -0.1366  0.1655  0.6250
   68MOL   C10545799   2.533   1.895   3.979 -0.7337 -0.6831 -0.0487
   68MOL   C10645800   2.601   2.025   4.038  0.1902 -0.2086 -0.3004
   68MOL   C10745801   2.498   2.143   4.057 -1.1020  0.7786  0.9445
   68MOL   C10845802   2.380   2.121   4.145 -0.2265  0.3848 -0.5270
   68MOL   C10945803   2.318   2.257   4.186  0.1856  0.1542  0.4084
   68MOL   C11045804   2.204   2.252   4.289 -0.3594 -0.4746  0.3192
   68MOL   C11145805   2.063   2.227   4.219 -0.6750 -0.6561  0.0523
   68MOL   C11245806   1.949   2.203   4.315  0.1657  0.3513  0.6990
   68MOL   C11345807   1.933   2.306   4.425 -0.5354 -0.2121 -0.7385
   68MOL   C11445808   1.896   2.446   4.376  0.0239 -0.6069 -0.3598
   68MOL   C11545809   1.748   2.485   4.363  0.6105 -0.4682 -0.2710
   68MOL   O11645810   1.665   2.396   4.365 -0.4298 -0.8738 -0.9315
   68MOL   H11745811   2.714   1.803   3.932  0.8616 -1.5939  1.9199
   68MOL   H11845812   2.517   1.921   3.874 -0.5616 -0.5404 -0.0406
   68MOL   H11945813   2.436   1.878   4.026 -1.1812 -0.1491 -0.7478
   68MOL   H12045814   2.685   2.060   3.978  1.7446  0.0667  1.9673
   68MOL   H12145815   2.650   1.994   4.130 -1.5633 -0.4852  0.5696
   68MOL   H12245816   2.556   2.230   4.087  1.1982 -0.6249  0.7187
   68MOL   H12345817   2.469   2.156   3.952  0.0433  1.1752  0.6648
   68MOL   H12445818   2.403   2.070   4.239 -0.1949  0.2056 -0.6327
   68MOL   H12545819   2.292   2.068   4.109  0.3950 -3.2880  2.9372
   68MOL   H12645820   2.299   2.315   4.095  0.8529  0.5188  0.4962
   68MOL   H12745821   2.389   2.314   4.245  0.3318 -1.0433  1.4013
   68MOL   H12845822   2.232   2.175   4.361  0.5991 -1.8475 -1.4756
   68MOL   H12945823   2.210   2.349   4.337  1.2715 -0.3810 -0.0625
   68MOL   H13045824   2.060   2.135   4.161  2.1634 -1.5963  1.3055
   68MOL   H13145825   2.046   2.318   4.161  0.7745 -0.4907 -0.1496
   68MOL   H13245826   1.851   2.207   4.267  0.2731  2.4071  0.6178
   68MOL   H13345827   1.944   2.099   4.345 -3.1542 -0.3867 -2.0204
   68MOL   H13445828   2.021   2.319   4.488 -1.9696 -1.3229  1.5662
   68MOL   H13545829   1.863   2.269   4.500 -0.9047 -0.3186 -1.1374
   68MOL   H13645830   1.941   2.470   4.280 -1.7460  0.3186 -0.9978
   68MOL   H13745831   1.936   2.520   4.445 -2.1791  1.8778 -1.6675
   68MOL   N13845832   1.723   2.614   4.361 -0.2917  0.0813 -0.1873
   68MOL   C13945833   1.590   2.669   4.395 -0.6371 -0.1100 -0.5461
   68MOL   C14045834   1.623   2.820   4.429 -0.5841 -0.3202 -0.2766
   68MOL   C14145835   1.499   2.883   4.500  0.4892  0.0412  0.0317
   68MOL   C14245836   1.484   3.037   4.481 -0.0047  0.1044  0.1212
   68MOL   C14345837   1.612   3.116   4.527 -0.5639 -0.7034 -0.2156
   68MOL   C14445838   1.638   3.115   4.676  0.3800  0.4802 -0.2081
   68MOL   C14545839   1.762   3.190   4.721  0.0874 -0.0206  0.3208
   68MOL   C14645840   1.741   3.343   4.736 -0.2300 -0.3425  0.1047
   68MOL   C14745841   1.855   3.410   4.816  0.0835 -0.3407  0.8061
   68MOL   C14845842   1.851   3.564   4.828  0.5097  0.0419  1.0635
   68MOL   C14945843   1.973   3.639   4.864 -0.4385  0.5647 -0.0627
   68MOL   O15045844   2.058   3.591   4.937  0.4144  0.3143  0.3695
   68MOL   H15145845   1.805   2.662   4.397 -0.8922 -0.6680  2.2546
   68MOL   H15245846   1.518   2.652   4.314 -2.4616  2.1228  0.5534
   68MOL   H15345847   1.547   2.627   4.486 -4.3453  0.2452 -2.0200
   68MOL   H15445848   1.642   2.885   4.343  3.1055 -0.4421  0.3536
   68MOL   H15545849   1.712   2.822   4.492 -1.2554  0.3855  0.6561
   68MOL   H15645850   1.409   2.836   4.460  0.3999 -1.6679  2.1650
   68MOL   H15745851   1.506   2.857   4.605  0.0277  0.6323  0.2121
   68MOL   H15845852   1.401   3.080   4.538  1.0024  0.0695  1.6335
   68MOL   H15945853   1.452   3.066   4.380 -2.0846 -3.2236 -0.2426
   68MOL   H16045854   1.594   3.220   4.500  2.7967 -0.1118 -0.4207
   68MOL   H16145855   1.704   3.083   4.478 -1.2838 -3.7032  0.3172
   68MOL   H16245856   1.552   3.136   4.739  0.3061 -1.7081  0.4436
   68MOL   H16345857   1.657   3.011   4.701  0.4265 -0.0644 -2.4027
   68MOL   H16445858   1.846   3.179   4.652 -0.4452  1.0231 -0.5170
   68MOL   H16545859   1.792   3.151   4.818  0.2724  1.6258  0.9496
   68MOL   H16645860   1.741   3.377   4.632 -1.2518 -1.1867 -0.1795
   68MOL   H16745861   1.646   3.354   4.787  0.1259 -1.7133  1.0833
   68MOL   H16845862   1.947   3.388   4.762  0.1160 -0.7129  1.0073
   68MOL   H16945863   1.878   3.362   4.911  0.5681  0.1080  0.9183
   68MOL   H17045864   1.767   3.586   4.893 -1.0337 -1.7568 -0.2610
   68MOL   H17145865   1.823   3.594   4.727 -0.0469 -0.5765  1.0372
   68MOL   N17245866   1.991   3.756   4.802  0.2222 -0.0833  0.1156
   68MOL   C17345867   2.107   3.829   4.819 -0.1439  0.4769 -0.6937
   68MOL   C17445868   2.186   3.837   4.681  0.0305 -1.2096 -0.4238
   68MOL   C17545869   2.298   3.934   4.666  0.3571 -0.1598  0.1316
   68MOL   C17645870   2.342   3.939   4.519  0.1741 -0.2056 -0.1833
   68MOL   C17745871   2.412   3.809   4.464  0.9680  0.0545 -0.6785
   68MOL   C17845872   2.460   3.808   4.324 -0.4805  0.0230 -0.7704
   68MOL   C17945873   2.559   3.927   4.292  0.4886  0.6410  0.2900
   68MOL   C18045874   2.586   3.928   4.138 -0.3677 -0.1818  0.1486
   68MOL   C18145875   2.698   4.022   4.097  0.3013  0.1977  0.1682
   68MOL   C18245876   2.687   4.069   3.951 -0.0753 -0.3594  0.2903
   68MOL   C18345877   2.792   4.176   3.920 -0.1069  0.1917 -0.2266
   68MOL   O18445878   2.887   4.185   3.997 -0.7149  0.3274 -0.3292
   68MOL   H18545879   1.922   3.800   4.742 -0.7286  1.2528  2.1375
   68MOL   H18645880   2.079   3.931   4.847 -2.3190 -0.3447  0.1899
   68MOL   H18745881   2.177   3.795   4.894  2.6753  1.1430 -2.9351
   68MOL   H18845882   2.116   3.846   4.598 -0.7335 -0.7348  0.2664
   68MOL   H18945883   2.219   3.733   4.671  1.1596 -0.9055  0.0848
   68MOL   H19045884   2.272   4.036   4.694  0.6062 -0.7858  2.7865
   68MOL   H19145885   2.382   3.902   4.728  0.9886 -0.8144 -1.0336
   68MOL   H19245886   2.412   4.023   4.519  0.5711 -0.4633 -3.3239
   68MOL   H19345887   2.254   3.957   4.457 -0.4858 -1.6893  0.3142
   68MOL   H19445888   2.349   3.720   4.458  1.2168 -0.0793 -1.2556
   68MOL   H19545889   2.486   3.774   4.536  0.4936  0.8862  0.2388
   68MOL   H19645890   2.514   3.716   4.304  0.4502  0.4092 -0.0698
   68MOL   H19745891   2.373   3.813   4.258 -1.0361  1.8912  0.0685
   68MOL   H19845892   2.661   3.911   4.324  0.2971 -1.2544 -0.0123
   68MOL   H19945893   2.534   4.028   4.325  0.1631  1.2144 -1.6486
   68MOL   H20045894   2.608   3.829   4.100  0.4225 -0.6999  1.9043
   68MOL   H20145895   2.495   3.967   4.091  0.4167  1.6944  0.1581
   68MOL   H20245896   2.795   3.973   4.099  0.5688  0.4245 -3.5016
   68MOL   H20345897   2.708   4.103   4.169  1.4488 -0.7515  1.1036
   68MOL   H20445898   2.586   4.109   3.938  0.0849  0.2193  0.7991
   68MOL   H20545899   2.691   3.983   3.884 -1.9695  0.6065 -1.1073
   68MOL   N20645900   2.782   4.245   3.803 -0.5177 -0.2996  0.1094
   68MOL   C20745901   2.883   4.335   3.746  0.0530 -0.2493 -0.7150
   68MOL   C20845902   2.838   4.403   3.612  0.6715 -0.3245 -0.8466
   68MOL   C20945903   2.946   4.503   3.565  0.8168  0.0556 -0.3036
   68MOL   C21045904   2.893   4.574   3.432 -0.4972 -0.5436  0.5601
   68MOL   C21145905   2.978   4.688   3.375  0.7091  0.1235  0.1136
   68MOL   C21245906   2.909   4.763   3.261  0.4334 -0.0995 -0.9524
   68MOL   C21345907   2.994   4.878   3.205 -0.1174 -0.5588 -0.0729
   68MOL   C21445908   3.027   4.979   3.313  0.6120 -0.1711  0.3818
   68MOL   C21545909   3.118   5.095   3.267  0.5414 -0.5594 -0.2565
   68MOL   C21645910   3.155   5.190   3.379 -0.3458  0.3311 -0.2206
   68MOL   C21745911   3.250   5.297   3.333 -0.4382  0.2147 -0.2908
   68MOL   O21845912   3.296   5.295   3.217  0.1193  0.3113  0.0144
   68MOL   H21945913   2.708   4.229   3.737  0.7971 -0.0808 -1.4694
   68MOL   H22045914   2.980   4.288   3.728  0.7958  0.5381  1.0925
   68MOL   H22145915   2.904   4.406   3.826  0.7180  0.4977 -1.5473
   68MOL   H22245916   2.744   4.455   3.627  2.4544  3.2470 -1.5095
   68MOL   H22345917   2.813   4.339   3.528  0.2427  0.3777 -1.2592
   68MOL   H22445918   2.958   4.578   3.643  0.5269 -1.9608  1.7041
   68MOL   H22545919   3.040   4.451   3.548  0.3314 -0.4064 -1.6664
   68MOL   H22645920   2.798   4.625   3.444 -0.3146  0.2453 -1.1422
   68MOL   H22745921   2.885   4.495   3.357 -1.7778  1.5617 -1.5771
   68MOL   H22845922   3.073   4.641   3.351  1.4530  1.5831  0.1480
   68MOL   H22945923   3.002   4.743   3.466 -2.0531 -1.0649  1.6153
   68MOL   H23045924   2.871   4.689   3.192  0.6825 -2.2353  1.1404
   68MOL   H23145925   2.818   4.812   3.297  0.3378 -1.5336  0.8173
   68MOL   H23245926   2.934   4.931   3.131 -1.6182 -1.7944  0.2300
   68MOL   H23345927   3.085   4.838   3.160  0.2923 -0.6842  0.8495
   68MOL   H23445928   2.934   5.025   3.346 -1.1370 -2.1107 -1.7358
   68MOL   H23545929   3.077   4.932   3.398  0.0276  1.6646  1.7914
   68MOL   H23645930   3.060   5.154   3.195 -1.3711 -1.7905  0.2270
   68MOL   H23745931   3.203   5.060   3.209  1.6230  0.7146  0.5523
   68MOL   H23845932   3.192   5.141   3.470 -0.1920  1.0285  0.0991
   68MOL   H23945933   3.065   5.245   3.407 -0.2140 -0.9282  2.9577
   68MOL   N24045934   3.279   5.394   3.420  0.4841 -0.3012 -0.1534
   68MOL   C24145935   3.373   5.505   3.414 -0.4406 -0.4297  0.6813
   68MOL   C24245936   3.511   5.448   3.442  1.5010 -0.0847 -0.3816
   68MOL   C24345937   3.542   5.400   3.582  0.6370  0.9237  0.9020
   68MOL   C24445938   3.483   5.262   3.615 -1.1692 -0.1084 -0.3019
   68MOL   C24545939   3.563   5.202   3.728  0.4654 -0.1425  0.2266
   68MOL   C24645940   3.509   5.062   3.776 -0.0765  0.3269  0.2147
   68MOL   C24745941   3.377   5.064   3.853  0.0597  0.0526 -0.0156
   68MOL   C24845942   3.333   4.924   3.881  0.2334  0.8220  0.2046
   68MOL   C24945943   3.203   4.923   3.974  0.5656 -0.1129  0.7955
   68MOL   C25045944   3.184   4.799   4.062 -0.0745  0.4518 -0.3991
   68MOL   C25145945   3.135   4.677   3.981 -0.0182 -0.1177  0.4901
   68MOL   O25245946   3.043   4.693   3.899 -0.4612  0.4747 -0.0323
   68MOL   H25345947   3.224   5.387   3.505  0.6850 -0.8302 -0.0675
   68MOL   H25445948   3.350   5.588   3.482 -0.8459  1.0926 -1.2704
   68MOL   H25545949   3.373   5.550   3.315  1.7844 -0.2640  0.7317
   68MOL   H25645950   3.586   5.520   3.411  1.5295  0.8764  1.8165
   68MOL   H25745951   3.530   5.364   3.375 -0.5466  0.1358 -1.2642
   68MOL   H25845952   3.650   5.409   3.594  0.8767 -1.5615  0.9181
   68MOL   H25945953   3.501   5.477   3.647  0.5099  0.3975  1.4456
   68MOL   H26045954   3.487   5.202   3.523 -1.4291 -0.7545  0.1041
   68MOL   H26145955   3.375   5.270   3.633 -1.3371 -0.3449 -1.1456
   68MOL   H26245956   3.557   5.266   3.816 -1.7945  0.6508 -0.4523
   68MOL   H26345957   3.667   5.180   3.706  0.3860 -0.3079  0.0215
   68MOL   H26445958   3.497   5.003   3.685  1.3057  2.0655 -1.1241
   68MOL   H26545959   3.586   5.011   3.833 -1.2764 -1.5586  0.2116
   68MOL   H26645960   3.297   5.114   3.799  1.6566  1.9555 -0.6994
   68MOL   H26745961   3.381   5.125   3.944 -1.4268  0.0998  0.0313
   68MOL   H26845962   3.316   4.875   3.785  0.7470 -0.3030  0.6730
   68MOL   H26945963   3.410   4.869   3.936 -0.1657  0.1324  0.0750
   68MOL   H27045964   3.115   4.938   3.912 -0.7746 -0.9703  2.4634
   68MOL   H27145965   3.204   5.010   4.040  2.6925  0.6235 -0.1335
   68MOL   H27245966   3.100   4.822   4.128 -0.3758  0.3276 -0.7383
   68MOL   H27345967   3.274   4.773   4.118 -0.3710 -2.0365 -1.0167
   68MOL   N27445968   3.204   4.564   3.991 -0.0184 -0.0636 -0.1765
   68MOL   C27545969   3.181   4.441   3.920  0.4473 -0.3478 -0.8834
   68MOL   C27645970   3.258   4.327   3.974  0.2299  0.1012 -0.3005
   68MOL   C27745971   3.266   4.201   3.879  0.1911  0.0921  0.4655
   68MOL   C27845972   3.358   4.093   3.927  0.0958  0.2032  0.0405
   68MOL   C27945973   3.320   3.961   3.866 -0.7850 -0.7027 -0.1179
   68MOL   C28045974   3.437   3.863   3.905  0.7552  0.5840 -0.0645
   68MOL   C28145975   3.388   3.718   3.885  0.5502 -0.0620 -0.0637
   68MOL   C28245976   3.391   3.672   3.738 -0.0144  0.0896 -0.5543
   68MOL   C28345977   3.358   3.523   3.724  0.4874 -0.9905  0.1148
   68MOL   C28445978   3.430   3.423   3.818  0.1976 -0.2564  0.7000
   68MOL   C28545979   3.414   3.277   3.779  0.7285 -0.2239  0.2906
   68MOL   O28645980   3.350   3.239   3.683 -0.0474 -0.2262  0.1093
   68MOL   H28745981   3.274   4.549   4.062  0.3213  1.8321 -0.0788
   68MOL   H28845982   3.201   4.453   3.813  1.8419 -1.0133 -0.7092
   68MOL   H28945983   3.076   4.424   3.943  0.4342  0.4216 -0.3544
   68MOL   H29045984   3.212   4.295   4.068 -0.2046  1.6540  0.0338
   68MOL   H29145985   3.360   4.363   3.984 -0.6344  2.7869 -0.6887
   68MOL   H29245986   3.168   4.155   3.873  0.9346 -1.4299 -0.2711
   68MOL   H29345987   3.286   4.236   3.778  1.4690  3.3530  1.7982
   68MOL   H29445988   3.376   4.101   4.034  0.0209 -0.0670  0.0731
   68MOL   H29545989   3.458   4.105   3.886  0.0472  0.1855 -0.0830
   68MOL   H29645990   3.312   3.967   3.757 -2.2527 -0.1460  0.0101
   68MOL   H29745991   3.225   3.931   3.909 -0.4051  1.0912  2.0892
   68MOL   H29845992   3.530   3.886   3.852  0.2567 -0.2943 -1.3363
   68MOL   H29945993   3.460   3.877   4.010  3.2631 -1.1168 -0.3348
   68MOL   H30045994   3.290   3.705   3.931  0.6250 -1.0078 -0.1622
   68MOL   H30145995   3.456   3.647   3.933  0.7808  0.4593  0.3927
   68MOL   H30245996   3.328   3.730   3.671  0.2842  0.5985 -0.3964
   68MOL   H30345997   3.494   3.679   3.703 -0.5753  2.9899 -1.7627
   68MOL   H30445998   3.372   3.498   3.619 -0.7820 -0.1616 -0.2621
   68MOL   H30545999   3.252   3.509   3.744  0.2211  0.1807 -0.4088
   68MOL   H30646000   3.402   3.439   3.922  1.5070  1.7992  0.7671
   68MOL   H30746001   3.538   3.436   3.803 -0.4661  1.9438 -2.5199
   68MOL   N30846002   3.471   3.185   3.859  0.3832 -0.4339  0.2779
   68MOL   C30946003   3.451   3.042   3.844 -0.0461  0.3274  0.3793
   68MOL   C31046004   3.548   2.981   3.744 -0.5451 -0.3629  0.1346
   68MOL   C31146005   3.528   2.833   3.704  0.1473  0.4199 -0.0858
   68MOL   C31246006   3.612   2.781   3.592  0.1514  0.5118  0.2036
   68MOL   C31346007   3.574   2.651   3.532 -0.2779  0.2096 -0.2402
   68MOL   C31446008   3.681   2.606   3.429  0.5748  0.0239 -0.2915
   68MOL   C31546009   3.645   2.500   3.329  0.2976  0.3980 -0.2742
   68MOL   C31646010   3.763   2.484   3.234 -1.0541  0.1426 -0.4309
   68MOL   C31746011   3.746   2.368   3.128  0.0513  0.5727  0.5261
   68MOL   C31846012   3.607   2.339   3.072  0.4020  0.4845 -0.0287
   68MOL   C31946013   3.561   2.437   2.967 -0.1710  0.5064 -0.2983
   68MOL   O32046014   3.597   2.432   2.850  0.6424 -0.2121  1.0182
   68MOL   H32146015   3.548   3.219   3.915  0.7249 -0.2817 -0.2818
   68MOL   H32246016   3.347   3.017   3.824 -0.0755  0.3145  0.5439
   68MOL   H32346017   3.472   3.001   3.943 -0.3054 -0.8840 -0.0543
   68MOL   H32446018   3.646   2.974   3.791 -0.3390 -3.1167 -0.6035
   68MOL   H32546019   3.537   3.050   3.660 -0.7157 -0.7339 -0.1504
   68MOL   H32646020   3.526   2.757   3.783 -0.5741 -1.4602 -1.8593
   68MOL   H32746021   3.425   2.848   3.670 -0.1802 -0.0034  0.6936
   68MOL   H32846022   3.713   2.769   3.630  0.9475 -1.3852 -2.4130
   68MOL   H32946023   3.600   2.865   3.525 -2.8318 -0.5871 -0.7195
   68MOL   H33046024   3.476   2.672   3.489 -1.0722  0.5667  1.7141
   68MOL   H33146025   3.555   2.581   3.613  0.4474 -1.5206 -1.5247
   68MOL   H33246026   3.703   2.703   3.384 -2.4758  1.1034  0.4078
   68MOL   H33346027   3.773   2.573   3.476 -0.3421 -0.9284  0.8642
   68MOL   H33446028   3.561   2.545   3.276  0.3953  2.6925  1.4415
   68MOL   H33546029   3.609   2.406   3.370 -3.0597  1.0954 -1.4205
   68MOL   H33646030   3.762   2.574   3.173  0.0852 -0.3110 -1.1324
   68MOL   H33746031   3.861   2.478   3.281 -1.1523  0.5924 -0.1721
   68MOL   H33846032   3.771   2.268   3.162 -1.3513  0.1654  0.3602
   68MOL   H33946033   3.813   2.391   3.045 -2.0114  1.8507 -0.8083
   68MOL   H34046034   3.538   2.339   3.157  4.0096  2.5573  3.0581
   68MOL   H34146035   3.592   2.245   3.019  0.1238  0.5836 -0.1274
   68MOL   N34246036   3.478   2.537   3.011 -0.4631  0.3765 -0.2147
   68MOL   C34346037   3.401   2.625   2.925 -0.2090  0.8388 -0.0199
   68MOL   C34446038   3.301   2.707   3.010 -0.0300  0.2117  0.5880
   68MOL   C34546039   3.369   2.801   3.109  0.8645 -0.3473 -0.4823
   68MOL   C34646040   3.266   2.888   3.178 -0.0797  0.1250 -0.1485
   68MOL   C34746041   3.324   2.978   3.287 -0.2685  0.8099 -0.8294
   68MOL   C34846042   3.381   3.114   3.234 -0.6345 -0.5408 -0.1346
   68MOL   C34946043   3.452   3.209   3.336  0.6106  0.2546  1.0510
   68MOL   C35046044   3.498   3.335   3.261  0.2425 -0.4536 -0.6364
   68MOL   C35146045   3.554   3.437   3.363  0.1463 -0.7565 -0.2073
   68MOL   C35246046   3.605   3.571   3.303 -0.6609  0.3941 -0.1451
   68MOL   C35346047   3.746   3.553   3.246  0.2870 -0.2801  0.5024
   68MOL   O35446048   3.791   3.447   3.197 -0.5725  0.3133 -0.2906
   68MOL   H35546049   3.433   2.513   3.099 -1.2077  0.0940 -0.6718
   68MOL   H35646050   3.468   2.685   2.864 -0.8500  0.1026 -1.4874
   68MOL   H35746051   3.339   2.566   2.858  0.1858  0.8155 -0.3667
   68MOL   H35846052   3.221   2.653   3.059 -2.1648  1.8866 -0.9702
   68MOL   H35946053   3.244   2.763   2.935 -2.3989 -3.1988 -0.2492
   68MOL   H36046054   3.427   2.741   3.180  2.0635  0.6500 -0.6037
   68MOL   H36146055   3.446   2.860   3.060 -1.0178  3.5266  1.0148
   68MOL   H36246056   3.189   2.825   3.221  0.0450  1.2594  1.8035
   68MOL   H36346057   3.223   2.958   3.106 -0.4233  0.4347  0.3553
   68MOL   H36446058   3.407   2.929   3.338 -0.8374 -1.0020 -1.6233
   68MOL   H36546059   3.242   3.002   3.354  0.2855 -2.3135  1.0246
   68MOL   H36646060   3.449   3.091   3.153  2.7675  0.6827  2.2763
   68MOL   H36746061   3.292   3.167   3.198  1.6912  0.4913 -4.7134
   68MOL   H36846062   3.532   3.152   3.382  1.6510  0.2414 -0.7183
   68MOL   H36946063   3.366   3.232   3.399 -0.3716 -1.1339  0.2605
   68MOL   H37046064   3.570   3.309   3.183  0.2694 -5.5183  0.9671
   68MOL   H37146065   3.416   3.388   3.210  0.8307  2.4051  1.2491
   68MOL   H37246066   3.633   3.393   3.424 -0.6303 -0.3327  1.1243
   68MOL   H37346067   3.474   3.457   3.434 -0.1297 -0.4575 -0.5980
   68MOL   H37446068   3.606   3.636   3.391 -1.1598  1.6672 -1.0607
   68MOL   H37546069   3.533   3.625   3.242  0.1622  1.9932  0.2628
   68MOL   N37646070   3.834   3.653   3.250  0.1826  0.1591  0.1476
   68MOL   C37746071   3.966   3.668   3.189  0.2646  0.3397 -0.7844
   68MOL   C37846072   4.021   3.811   3.205 -0.4302 -0.0584  0.5789
   68MOL   C37946073   4.073   3.826   3.355 -0.4602  0.2729  0.0027
   68MOL   C38046074   4.138   3.962   3.377 -0.1430  0.7548 -0.0313
   68MOL   C38146075   4.196   3.974   3.511 -0.2548  0.4667 -0.2036
   68MOL   C38246076   4.334   3.899   3.533  0.7407 -0.3267  0.9462
   68MOL   C38346077   4.374   3.844   3.675  0.7638  0.2154  0.1475
   68MOL   C38446078   4.443   3.952   3.763  0.5505  0.8838 -0.2922
   68MOL   C38546079   4.589   3.985   3.741 -0.3704  0.5019 -0.1575
   68MOL   C38646080   4.623   4.130   3.776 -0.5475 -0.5067  0.4534
   68MOL   C38746081   4.612   4.146   3.929 -0.9883 -0.5929 -0.7289
   68MOL   O38846082   4.680   4.074   4.003 -0.4366  0.2245 -0.2321
   68MOL   H38946083   3.780   3.738   3.256 -0.2479  0.0853 -2.2074
   68MOL   H39046084   4.036   3.598   3.234  0.5391 -0.3163 -2.1828
   68MOL   H39146085   3.959   3.631   3.087 -1.0937 -2.8952  0.4354
   68MOL   H39246086   3.941   3.881   3.181  0.2754  0.3178 -0.7411
   68MOL   H39346087   4.101   3.836   3.136 -1.5835  0.3369 -0.6386
   68MOL   H39446088   3.992   3.807   3.425 -1.5401 -1.1326 -1.5666
   68MOL   H39546089   4.152   3.755   3.378 -0.2248  0.3172 -0.6546
   68MOL   H39646090   4.065   4.041   3.360 -0.1773  0.1892 -2.7157
   68MOL   H39746091   4.222   3.956   3.308  0.8657 -0.1268  1.2289
   68MOL   H39846092   4.128   3.940   3.590 -0.4073 -1.4569 -1.1292
   68MOL   H39946093   4.206   4.077   3.545 -0.4541 -0.2590  2.1412
   68MOL   H40046094   4.328   3.807   3.474 -2.4416 -0.9499  2.1015
   68MOL   H40146095   4.425   3.944   3.493  0.6676 -1.3652 -0.4375
   68MOL   H40246096   4.435   3.755   3.665  0.6464 -0.2659  3.3454
   68MOL   H40346097   4.286   3.816   3.733  1.5816  1.5105  2.0676
   68MOL   H40446098   4.385   4.037   3.727  0.9567  1.4686  0.4373
   68MOL   H40546099   4.420   3.947   3.869  0.2143  0.1146 -0.3932
   68MOL   H40646100   4.613   3.975   3.635 -1.2590 -0.1260 -0.3099
   68MOL   H40746101   4.655   3.911   3.784 -2.6111 -2.3132 -1.3854
   68MOL   H40846102   4.552   4.201   3.734 -2.4727 -1.0613  2.6827
   68MOL   H40946103   4.725   4.154   3.744 -0.9473  0.6385  0.0144
   68MOL   N41046104   4.527   4.239   3.972  0.2937  0.2720 -0.1556
   68MOL   C41146105   4.493   4.266   4.111 -0.2565 -0.2005  0.7024
   68MOL   C41246106   4.356   4.212   4.140 -0.1414 -0.0469  0.0378
   68MOL   C41346107   4.309   4.245   4.286 -0.1052 -0.0159  1.0126
   68MOL   C41446108   4.182   4.173   4.343  0.2111 -0.2544  0.5921
   68MOL   C41546109   4.054   4.233   4.289 -0.4492 -0.1633 -0.2385
   68MOL   C41646110   3.923   4.163   4.333  0.0067 -0.7828 -0.2423
   68MOL   C41746111   3.793   4.237   4.306 -0.4077  0.1897 -0.3673
   68MOL   C41846112   3.670   4.154   4.347 -0.3970 -1.0969  0.0159
   68MOL   C41946113   3.537   4.212   4.300 -0.8720 -0.2524  0.3944
   68MOL   C42046114   3.505   4.329   4.397  0.4008 -0.4368 -0.3939
   68MOL   C42146115   3.417   4.444   4.344 -0.0806 -0.2586 -0.3451
   68MOL   O42246116   3.394   4.453   4.221  0.0186  0.4857 -0.1760
   68MOL   H42346117   4.502   4.308   3.903 -1.2773 -1.5904 -1.5184
   68MOL   H42446118   4.551   4.207   4.182 -0.7222 -2.2616 -0.5679
   68MOL   H42546119   4.476   4.371   4.131  1.5619  0.3286 -0.4723
   68MOL   H42646120   4.357   4.103   4.129 -1.4151 -0.1118  0.3985
   68MOL   H42746121   4.289   4.255   4.065  0.5002  1.4909  0.3357
   68MOL   H42846122   4.397   4.235   4.350  1.8590 -0.3153 -1.6109
   68MOL   H42946123   4.288   4.351   4.300 -1.3630 -0.4670  2.6358
   68MOL   H43046124   4.189   4.186   4.451  2.0031  1.4458  0.3029
   68MOL   H43146125   4.189   4.068   4.315 -2.9551 -0.5359  0.6393
   68MOL   H43246126   4.057   4.257   4.182  1.6525  1.6875  0.2161
   68MOL   H43346127   4.054   4.336   4.326  1.8423 -0.9375  2.0444
   68MOL   H43446128   3.912   4.066   4.285 -0.5034 -1.1842  0.6828
   68MOL   H43546129   3.926   4.154   4.441  0.2077 -0.5767 -0.2309
   68MOL   H43646130   3.800   4.265   4.200 -0.4552 -2.5509 -1.1231
   68MOL   H43746131   3.806   4.333   4.356 -2.3638  0.0023  0.5086
   68MOL   H43846132   3.680   4.051   4.311  1.3474 -1.4355  1.3736
   68MOL   H43946133   3.659   4.142   4.455  1.9687  0.0671  0.4318
   68MOL   H44046134   3.457   4.139   4.293 -0.2328 -0.6809 -4.3217
   68MOL   H44146135   3.543   4.251   4.198  0.7396  1.3582  1.0769
   68MOL   H44246136   3.595   4.386   4.422 -0.2367  0.1982  0.5038
   68MOL   H44346137   3.448   4.297   4.484  0.5389  0.7569  0.1507
   68MOL   N44446138   3.366   4.527   4.432 -0.4026 -0.6322  0.2197
   68MOL   C44546139   3.281   4.649   4.407 -0.3985 -0.0561 -0.1505
   68MOL   C44646140   3.207   4.690   4.544 -0.3827 -0.0671  0.3626
   68MOL   C44746141   3.109   4.806   4.535  0.0743 -0.4353  0.4767
   68MOL   C44846142   3.156   4.935   4.470 -0.4347 -0.0253  0.5116
   68MOL   C44946143   3.040   5.037   4.453  0.0659  0.0521 -0.1830
   68MOL   C45046144   3.049   5.135   4.335  0.3439 -0.2687  0.7032
   68MOL   C45146145   2.943   5.251   4.340 -0.3370  0.4517  0.3530
   68MOL   C45246146   2.948   5.351   4.459  0.7656 -0.3611  0.3181
   68MOL   C45346147   2.827   5.459   4.436  0.0930  1.0790  0.3862
   68MOL   C45446148   2.824   5.569   4.539 -0.5819 -0.2906  0.1848
   68MOL   C45546149   2.820   5.511   4.682  0.3520  1.0319 -0.2381
   68MOL   O45646150   2.707   5.484   4.732  0.9929  1.1270 -0.5688
   68MOL   H45746151   3.396   4.510   4.527  0.3772 -2.7334 -0.3767
   68MOL   H45846152   3.349   4.725   4.367  0.9389 -2.5503 -2.7781
   68MOL   H45946153   3.208   4.634   4.327 -0.6715 -1.2177  0.3053
   68MOL   H46046154   3.281   4.715   4.620 -1.4186 -1.5696  1.9103
   68MOL   H46146155   3.152   4.600   4.573  1.2815 -1.5239 -0.8971
   68MOL   H46246156   3.026   4.764   4.479 -0.3003  0.8534  0.0288
   68MOL   H46346157   3.072   4.822   4.637 -0.8485 -0.8102  0.1982
   68MOL   H46446158   3.186   4.902   4.370 -0.4776 -1.8093  1.0760
   68MOL   H46546159   3.245   4.984   4.510 -0.4142 -0.0548  0.5021
   68MOL   H46646160   3.037   5.105   4.538  1.1835  2.2603 -1.8489
   68MOL   H46746161   2.941   4.990   4.453  1.8660 -3.9381  0.2565
   68MOL   H46846162   3.145   5.186   4.336 -0.6732  1.7095  0.8110
   68MOL   H46946163   3.064   5.077   4.244  0.7594  2.3042 -0.9192
   68MOL   H47046164   2.844   5.205   4.338  0.7265 -1.9103 -0.6392
   68MOL   H47146165   2.938   5.302   4.244 -0.3688  0.7642  0.5202
   68MOL   H47246166   2.937   5.292   4.549  1.3623  2.0179  1.9966
   68MOL   H47346167   3.049   5.390   4.473  0.7044  0.0786 -0.4252
   68MOL   H47446168   2.734   5.401   4.432  0.4977  0.5406 -2.6634
   68MOL   H47546169   2.832   5.496   4.334 -2.1752  0.3882 -0.0240
   68MOL   H47646170   2.732   5.627   4.539 -1.3885 -1.4625 -3.5216
   68MOL   H47746171   2.908   5.639   4.527 -0.4512 -0.3975  0.4752
   68MOL   N47846172   2.930   5.499   4.762  0.5508 -0.0709  0.0044
   68MOL   C47946173   2.935   5.456   4.901 -0.4704  0.2782 -0.4892
   68MOL   C48046174   3.016   5.566   4.978 -0.6462  0.2806 -0.1890
   68MOL   C48146175   2.964   5.710   4.958  0.5251  0.5940 -0.3038
   68MOL   C48246176   3.019   5.812   5.062 -0.2100 -0.2424  1.0017
   68MOL   C48346177   3.002   5.962   5.016  0.1899  0.5141 -0.1286
   68MOL   C48446178   2.848   5.996   5.028  1.2658  0.1011  0.2854
   68MOL   C48546179   2.825   6.144   5.041  0.3959 -0.2447  0.3871
   68MOL   C48646180   2.674   6.185   5.005 -0.6208  0.2344 -0.5913
   68MOL   C48746181   2.562   6.115   5.088 -1.1292 -0.7424 -0.0799
   68MOL   C48846182   2.426   6.138   5.030  1.0628  0.7479 -0.0833
   68MOL   C48946183   2.309   6.105   5.127 -0.2711 -0.1002  0.4879
   68MOL   O49046184   2.264   6.197   5.192 -0.0348 -0.0095  0.8329
   68MOL   H49146185   3.020   5.514   4.719  0.7386  0.6663  0.6466
   68MOL   H49246186   2.836   5.440   4.944  0.2525  0.8993  1.4329
   68MOL   H49346187   2.992   5.364   4.915  0.2174  0.5084 -1.7501
   68MOL   H49446188   3.122   5.553   4.957 -0.8797 -2.4818  0.1736
   68MOL   H49546189   3.001   5.542   5.083  1.6155 -0.4357 -0.0117
   68MOL   H49646190   2.974   5.745   4.855 -0.0070  1.6260 -0.0135
   68MOL   H49746191   2.857   5.716   4.975  0.4269 -0.8560 -0.3336
   68MOL   H49846192   3.122   5.786   5.087 -0.6904 -0.5021  2.7490
   68MOL   H49946193   2.969   5.789   5.156 -2.0703 -0.4292 -0.0140
   68MOL   H50046194   3.041   5.993   4.919 -1.7589  2.6140 -0.2855
   68MOL   H50146195   3.060   6.018   5.089 -0.4026  0.4591  0.3877
   68MOL   H50246196   2.788   5.955   4.947  3.9595 -0.6357 -1.3976
   68MOL   H50346197   2.804   5.960   5.121  0.7464  1.6369  0.6555
   68MOL   H50446198   2.889   6.199   4.972 -1.8826 -0.3301 -1.8180
   68MOL   H50546199   2.852   6.189   5.137 -1.9089 -0.7736  1.3136
   68MOL   H50646200   2.661   6.293   5.017  1.5080  0.5322 -0.6467
   68MOL   H50746201   2.662   6.162   4.899 -0.8279 -1.0570 -0.2902
   68MOL   H50846202   2.555   6.162   5.186  1.2791 -0.2362 -0.1036
   68MOL   H50946203   2.577   6.013   5.122  1.4153 -0.7264 -1.0218
   68MOL   H51046204   2.415   6.082   4.937  0.6769  2.3041 -1.0000
   68MOL   H51146205   2.421   6.246   5.015 -0.3599  0.4223 -2.1384
   68MOL   N51246206   2.263   5.976   5.129  0.7826 -0.0931 -0.2761
   68MOL   C51346207   2.171   5.925   5.237 -0.4325  0.1758  0.5398
   68MOL   C51446208   2.218   5.788   5.277 -0.2315 -0.1554  0.1961
   68MOL   C51546209   2.148   5.744   5.409  0.6989  0.0309 -0.1444
   68MOL   C51646210   2.130   5.600   5.427 -0.0770  0.0879 -0.7067
   68MOL   C51746211   2.070   5.567   5.562  0.5064  0.5039 -0.5165
   68MOL   C51846212   2.069   5.413   5.587  0.1826  0.0380  0.2845
   68MOL   C51946213   1.987   5.351   5.705  0.6773  0.3063  0.1674
   68MOL   C52046214   1.975   5.201   5.723 -0.1247  0.4672  0.0182
   68MOL   C52146215   1.897   5.124   5.615  0.1684 -0.0215 -0.1709
   68MOL   C52246216   1.755   5.169   5.587  0.3382 -0.4557 -0.1595
   68MOL   C52346217   1.666   5.187   5.711  0.5014 -0.6708  0.4220
   68MOL   O52446218   1.669   5.100   5.800 -0.1935 -0.0263  0.1113
   68MOL   H52546219   2.308   5.901   5.079 -1.5800 -3.0545  1.8674
   68MOL   H52646220   2.162   5.999   5.317 -1.8029 -1.0234  1.5225
   68MOL   H52746221   2.069   5.913   5.201  0.2917 -1.6835 -0.9707
   68MOL   H52846222   2.326   5.777   5.269 -0.1898 -0.0366  0.5968
   68MOL   H52946223   2.183   5.728   5.193 -2.5713  1.0551  0.2530
   68MOL   H53046224   2.197   5.785   5.497  1.3358  1.4463 -1.1423
   68MOL   H53146225   2.049   5.790   5.409  1.7884  2.4318  1.0849
   68MOL   H53246226   2.231   5.558   5.424 -0.2859 -0.3911 -1.1538
   68MOL   H53346227   2.072   5.551   5.349  2.1625 -0.3910 -2.1361
   68MOL   H53446228   1.969   5.606   5.564  0.3382  0.1606 -2.1289
   68MOL   H53546229   2.122   5.614   5.646 -0.6998 -0.0149  0.5289
   68MOL   H53646230   2.039   5.366   5.493  0.3625  1.7402 -0.6401
   68MOL   H53746231   2.175   5.391   5.605  0.5528  1.3287 -0.2964
   68MOL   H53846232   1.887   5.393   5.706  0.5051 -0.0887 -0.3483
   68MOL   H53946233   2.035   5.388   5.796  2.2422  2.5722 -1.5093
   68MOL   H54046234   2.074   5.154   5.730 -0.2329  0.2519  0.1206
   68MOL   H54146235   1.932   5.176   5.820  1.7254 -0.5193  0.6134
   68MOL   H54246236   1.897   5.021   5.650 -1.2078  0.1735  0.4343
   68MOL   H54346237   1.946   5.125   5.518 -0.8276 -0.2883 -0.6846
   68MOL   H54446238   1.708   5.101   5.515  0.6546 -0.0825 -0.7286
   68MOL   H54546239   1.775   5.262   5.535 -2.8504 -0.9756 -2.4478
   68MOL   N54646240   1.590   5.301   5.717  0.3690 -0.4131 -0.0576
   68MOL   C54746241   1.499   5.333   5.828 -0.4694  0.1808  0.1573
   68MOL   C54846242   1.357   5.304   5.798 -0.3855  0.2772  0.2356
   68MOL   C54946243   1.266   5.363   5.904 -0.1508 -0.2459  0.3963
   68MOL   C55046244   1.114   5.337   5.889 -0.2865 -0.2864  0.2560
   68MOL   C55146245   1.053   5.429   5.774 -0.4648  0.1084  0.3388
   68MOL   C55246246   0.903   5.435   5.780 -0.1897 -0.3819  0.1276
   68MOL   C55346247   0.846   5.490   5.655  0.0573  0.4395  0.4854
   68MOL   C55446248   0.699   5.540   5.677 -0.6051  0.6228  0.0675
   68MOL   C55546249   0.598   5.419   5.701 -0.1715 -0.2068 -0.0527
   68MOL   C55646250   0.456   5.471   5.738 -0.8556  0.0816  0.8621
   68MOL   C55746251   0.357   5.353   5.763  0.0612  0.2948  0.2418
   68MOL   O55846252   0.392   5.240   5.755  0.1829  0.2458  0.4408
   68MOL   H55946253   1.594   5.364   5.638  2.2291  0.0108  0.3662
   68MOL   H56046254   1.532   5.292   5.923 -1.6576 -0.0117  0.4909
   68MOL   H56146255   1.509   5.442   5.825  0.3779  0.0875 -0.6854
   68MOL   H56246256   1.337   5.197   5.796  1.3036 -0.1759  3.4959
   68MOL   H56346257   1.324   5.362   5.712  1.2492 -0.8036 -1.1586
   68MOL   H56446258   1.300   5.314   5.996 -0.0224 -0.3975  0.2682
   68MOL   H56546259   1.286   5.470   5.906 -0.3355 -0.1863 -0.6877
   68MOL   H56646260   1.067   5.373   5.980 -1.6618 -0.7501 -0.2529
   68MOL   H56746261   1.089   5.231   5.879 -3.1067  0.3807 -0.1966
   68MOL   H56846262   1.097   5.399   5.679  0.0002  0.6307  0.3873
   68MOL   H56946263   1.093   5.529   5.787 -0.6332  0.4912 -1.8726
   68MOL   H57046264   0.866   5.333   5.790 -2.2559  0.2865 -0.3486
   68MOL   H57146265   0.866   5.489   5.867  1.2613 -1.3404  1.3679
   68MOL   H57246266   0.857   5.414   5.578  2.6949  2.3971 -1.1768
   68MOL   H57346267   0.902   5.576   5.618  0.2210  0.3711  0.5734
   68MOL   H57446268   0.698   5.614   5.757 -1.0007 -0.3851  1.0075
   68MOL   H57546269   0.654   5.599   5.598 -0.5511  2.0823  1.0976
   68MOL   H57646270   0.630   5.356   5.783  0.5682 -0.0156 -0.1824
   68MOL   H57746271   0.605   5.360   5.610 -0.1485  0.8839 -0.7684
   68MOL   H57846272   0.406   5.513   5.650  0.0460 -0.7417 -0.0590
   68MOL   H57946273   0.458   5.555   5.808 -1.4239  0.4975  0.3932
   68MOL   N58046274   0.224   5.375   5.780 -0.1331  0.1056  0.1364
   68MOL   C58146275   0.127   5.271   5.786  0.2255  0.2642 -0.1574
   68MOL   C58246276   7.699   5.330   5.831  0.2685  0.2091 -0.5595
   68MOL   C58346277   7.658   5.448   5.742 -0.8601 -0.2196  0.2370
   68MOL   C58446278   7.669   5.431   5.585  0.2599 -0.1456  0.2711
   68MOL   C58546279   7.584   5.528   5.510 -0.3632  0.2503 -0.2535
   68MOL   C58646280   7.613   5.547   5.363 -0.1193  0.6670  0.3551
   68MOL   C58746281   7.536   5.667   5.298  0.2948 -0.3179 -0.5520
   68MOL   C58846282   7.618   5.753   5.201  0.7552  0.2008  0.4561
   68MOL   C58946283   7.520   5.855   5.129  0.4238 -0.0972 -0.3760
   68MOL   C59046284   7.597   5.953   5.047 -0.2537 -0.8823 -0.4839
   68MOL   C59146285   7.663   6.074   5.120  0.3383  0.0402  0.0737
   68MOL   O59246286   7.604   6.145   5.207 -0.0438  0.3018 -1.0587
   68MOL   H59346287   0.183   5.468   5.774 -1.7960 -0.6285 -0.2106
   68MOL   H59446288   0.119   5.228   5.686  0.3108 -1.4661  0.5611
   68MOL   H59546289   0.163   5.192   5.852 -0.2414 -1.4266 -1.9015
   68MOL   H59646290   7.692   5.361   5.935  1.9313 -0.8711 -0.1078
   68MOL   H59746291   7.625   5.255   5.805 -0.6606  1.3672 -1.3101
   68MOL   H59846292   7.552   5.464   5.764 -0.9878 -3.5093  2.3998
   68MOL   H59946293   0.007   5.530   5.775  0.0611  0.3314 -2.7731
   68MOL   H60046294   7.635   5.334   5.550  1.7876 -0.8915  0.7672
   68MOL   H60146295   0.056   5.443   5.550  0.6319  0.0917  1.4228
   68MOL   H60246296   7.618   5.624   5.550 -2.3959  0.8890  0.0060
   68MOL   H60346297   7.478   5.520   5.532 -0.3615  0.7880 -0.0304
   68MOL   H60446298   0.003   5.555   5.338 -0.1451  0.0514  0.0397
   68MOL   H60546299   7.560   5.463   5.317 -0.0219  1.2679 -0.8658
   68MOL   H60646300   7.497   5.737   5.373  1.6607  0.2264 -0.3484
   68MOL   H60746301   7.447   5.641   5.240  0.4307  1.1698 -1.4564
   68MOL   H60846302   7.688   5.809   5.262  2.2444 -1.0497 -0.0895
   68MOL   H60946303   7.678   5.689   5.137  0.1285 -0.5017  0.5611
   68MOL   H61046304   7.452   5.901   5.201 -0.1813  0.0700 -1.0498
   68MOL   H61146305   7.441   5.800   5.079  0.3635 -0.8330  0.5173
   68MOL   H61246306   7.527   5.997   4.976 -3.3726 -1.9017  1.8975
   68MOL   H61346307   7.667   5.900   4.982  0.8807 -0.9378  0.7562
   68MOL   N61446308   0.066   6.116   5.075 -0.1912  0.0651  0.4230
   68MOL   C61546309   0.142   6.223   5.129  0.4028 -0.0223 -0.0815
   68MOL   C61646310   0.216   6.314   5.024  0.1855 -0.3412  0.8464
   68MOL   C61746311   0.290   6.432   5.089 -0.1131  0.3832 -0.1726
   68MOL   C61846312   0.399   6.494   5.001 -0.3331 -0.8876 -0.1605
   68MOL   C61946313   0.337   6.573   4.889 -0.1407 -0.0579  0.1923
   68MOL   C62046314   0.440   6.650   4.814  0.3058 -1.0774  0.6208
   68MOL   C62146315   0.490   6.775   4.882 -0.7699 -0.2317 -0.4494
   68MOL   C62246316   0.579   6.854   4.798 -0.3293 -0.1802  0.8988
   68MOL   C62346317   0.605   6.993   4.868  0.6202 -0.0961  0.3346
   68MOL   C62446318   0.663   7.108   4.788 -0.5509  0.6954 -0.1392
   68MOL   C62546319   0.810   7.083   4.746  1.4930  0.7754 -0.7388
   68MOL   O62646320   0.885   7.042   4.826  0.1772 -0.5988 -0.0214
   68MOL   H62746321   0.115   6.057   5.008  0.7352  2.2650 -0.8937
   68MOL   H62846322   0.219   6.179   5.193 -0.8761 -1.0632  0.7597
   68MOL   H62946323   0.094   6.291   5.198 -0.7223 -1.0132  0.1266
   68MOL   H63046324   0.148   6.354   4.948 -0.1473 -1.2330  0.6690
   68MOL   H63146325   0.294   6.264   4.966 -0.4766  0.9679 -1.2334
   68MOL   H63246326   0.215   6.506   5.115 -1.4128 -1.9951  3.2073
   68MOL   H63346327   0.322   6.401   5.189 -0.6001  0.8541  0.1318
   68MOL   H63446328   0.456   6.408   4.967 -1.8629 -1.3878 -1.4507
   68MOL   H63546329   0.474   6.550   5.057 -1.2274  0.8094 -0.6264
   68MOL   H63646330   0.272   6.641   4.945 -1.6235 -2.2426  1.2076
   68MOL   H63746331   0.287   6.502   4.822 -0.7503  0.7127 -0.1797
   68MOL   H63846332   0.529   6.589   4.799  0.6776 -1.0399  2.4732
   68MOL   H63946333   0.400   6.670   4.715  3.3812 -0.6184 -0.5977
   68MOL   H64046334   0.541   6.755   4.976  0.0951  0.4336 -0.7766
   68MOL   H64146335   0.396   6.824   4.906 -0.8481 -0.5056 -0.1931
   68MOL   H64246336   0.674   6.801   4.784 -0.8111 -1.0268  0.7626
   68MOL   H64346337   0.537   6.876   4.700  0.2005 -1.2804  0.4081
   68MOL   H64446338   0.673   6.967   4.949  1.3939  1.0538  0.0499
   68MOL   H64546339   0.507   7.026   4.903  0.7659 -0.5375  1.1764
   68MOL   H64646340   0.664   7.189   4.861 -0.5072  1.7983 -1.3389
   68MOL   H64746341   0.597   7.137   4.706  1.0909  1.9180 -1.0589
   68MOL   N64846342   0.845   7.115   4.623 -0.2928  0.0176  0.2703
   68MOL   C64946343   0.978   7.134   4.569 -0.6599 -0.0313  0.2713
   68MOL   C65046344   1.057   7.008   4.544  0.4313  0.4318 -0.4930
   68MOL   C65146345   1.195   7.032   4.483  0.2722  0.1221  0.5399
   68MOL   C65246346   1.279   6.918   4.428  0.2331  0.5691  0.2986
   68MOL   C65346347   1.367   6.838   4.531 -0.1417  0.2576 -1.3669
   68MOL   C65446348   1.445   6.724   4.470  0.7365  0.0531 -0.7243
   68MOL   C65546349   1.545   6.659   4.565  0.5571 -0.3757  0.1251
   68MOL   C65646350   1.608   6.530   4.513  0.6323  0.1283 -0.3694
   68MOL   C65746351   1.741   6.548   4.441 -0.3376  1.0029 -0.3880
   68MOL   C65846352   1.774   6.428   4.350  0.0829 -0.2536  0.3676
   68MOL   C65946353   1.780   6.292   4.411 -0.7788  0.5376 -0.1324
   68MOL   O66046354   1.702   6.203   4.379  0.5032  0.4055 -0.6262
   68MOL   H66146355   0.771   7.143   4.560 -0.1568 -3.5366 -1.5934
   68MOL   H66246356   1.039   7.199   4.631 -1.6228  1.9784 -0.8383
   68MOL   H66346357   0.956   7.189   4.477  0.7482 -1.6466 -1.0784
   68MOL   H66446358   1.004   6.942   4.474  1.6878 -1.2371  0.1024
   68MOL   H66546359   1.073   6.958   4.639  1.0382  0.5123 -0.5491
   68MOL   H66646360   1.178   7.117   4.417 -0.4314 -0.7665 -0.4331
   68MOL   H66746361   1.261   7.073   4.560  1.5691 -4.9042  2.2880
   68MOL   H66846362   1.342   6.951   4.346  0.3390 -0.5967 -0.1018
   68MOL   H66946363   1.206   6.852   4.381 -0.6681  2.8939 -1.6531
   68MOL   H67046364   1.304   6.810   4.615  0.2069  0.7056 -0.9536
   68MOL   H67146365   1.434   6.901   4.590 -2.1025  0.4034  0.7469
   68MOL   H67246366   1.381   6.649   4.423  0.5856 -1.1902  1.3895
   68MOL   H67346367   1.507   6.765   4.390 -1.4946  0.3365 -2.3641
   68MOL   H67446368   1.496   6.641   4.661 -1.0174  0.1717 -0.5589
   68MOL   H67546369   1.632   6.721   4.583  0.2882  0.5207 -1.5739
   68MOL   H67646370   1.620   6.469   4.603 -2.2602  2.9357  2.0499
   68MOL   H67746371   1.546   6.473   4.444  1.5521  0.6660 -1.6550
   68MOL   H67846372   1.824   6.568   4.509 -0.1739  1.3206 -0.6821
   68MOL   H67946373   1.734   6.632   4.372 -0.6674  0.1882 -1.3719
   68MOL   H68046374   1.873   6.445   4.306  0.3820 -0.0980  1.1046
   68MOL   H68146375   1.704   6.435   4.267 -1.7177  0.4743  1.9122
   68MOL   H68246376   1.847   6.280   4.496 -1.8070 -1.4620  0.4100
   69MOL     N146377   2.998   0.387   2.071 -0.3157  0.1108  0.5880
   69MOL     C246378   2.979   0.467   1.948 -0.1244  0.2827 -0.0675
   69MOL     C346379   3.077   0.582   1.951  0.5605  0.9549  0.6287
   69MOL     C446380   3.054   0.677   1.829  0.4398  0.9328  0.1009
   69MOL     C546381   3.135   0.799   1.839  1.4297 -0.5189 -0.6361
   69MOL     C646382   3.111   0.899   1.720 -0.1591  0.0483  0.8350
   69MOL     C746383   3.167   1.040   1.737  0.1207  0.6552 -0.1753
   69MOL     C846384   3.082   1.133   1.825  0.1276  0.6919 -0.9835
   69MOL     C946385   2.934   1.154   1.788 -0.6853 -0.4951 -0.1584
   69MOL    C1046386   2.923   1.202   1.643  0.9954 -0.4863 -0.0883
   69MOL    C1146387   2.789   1.207   1.577 -0.2181 -0.2257  1.0371
   69MOL    C1246388   2.802   1.254   1.438 -0.3741 -0.2265  0.4945
   69MOL    O1346389   2.904   1.246   1.375  0.3244 -0.4556 -0.2462
   69MOL    H1446390   2.931   0.407   2.145 -1.9534 -2.4294 -0.1476
   69MOL    H1546391   2.876   0.502   1.940 -0.1426 -0.3400 -2.8241
   69MOL    H1646392   3.007   0.410   1.860  1.2453  2.1151 -0.8379
   69MOL    H1746393   3.173   0.532   1.939  0.4262  0.7236  0.5053
   69MOL    H1846394   3.071   0.640   2.043 -0.4349  0.0350  1.1597
   69MOL    H1946395   3.084   0.617   1.744 -0.1215 -0.0304  0.5693
   69MOL    H2046396   2.948   0.701   1.819  0.4463  0.1578 -2.1430
   69MOL    H2146397   3.242   0.789   1.858  1.0434 -0.0950  1.9479
   69MOL    H2246398   3.116   0.847   1.935 -0.3792 -0.5992 -0.9418
   69MOL    H2346399   3.004   0.892   1.701  0.2796 -1.8733 -1.0076
   69MOL    H2446400   3.151   0.839   1.638  1.4016  1.8531  0.2466
   69MOL    H2546401   3.267   1.024   1.778 -0.4232  0.9499  1.2790
   69MOL    H2646402   3.188   1.086   1.640  1.3119 -0.7051 -0.5811
   69MOL    H2746403   3.137   1.228   1.825  2.2159 -0.4768  0.4918
   69MOL    H2846404   3.081   1.105   1.931  0.0109  1.0789 -0.8794
   69MOL    H2946405   2.890   1.054   1.793 -0.4765 -0.5918 -0.2555
   69MOL    H3046406   2.880   1.210   1.864 -1.4245 -0.8176 -0.4457
   69MOL    H3146407   2.982   1.135   1.582  1.3320 -1.5723  1.3959
   69MOL    H3246408   2.964   1.303   1.634 -1.6126  0.6932  0.5385
   69MOL    H3346409   2.726   1.275   1.634  0.4227  0.9194  0.3931
   69MOL    H3446410   2.750   1.105   1.575 -2.9067  0.7509  1.2312
   69MOL    H3546411   3.004   0.286   2.071  0.9031  0.1769 -0.2732
   69MOL    N3646412   2.699   1.320   1.380 -0.3914  0.6283  0.5727
   69MOL    C3746413   2.690   1.403   1.260 -0.6062 -0.3680  0.0275
   69MOL    C3846414   2.629   1.325   1.140  0.1174 -0.0628 -0.1744
   69MOL    C3946415   2.584   1.429   1.035 -0.0142  0.5701  0.6993
   69MOL    C4046416   2.519   1.366   0.917  0.1133 -0.0905  0.8582
   69MOL    C4146417   2.471   1.468   0.803  1.0812  0.7495 -0.3096
   69MOL    C4246418   2.415   1.402   0.672  0.2723 -0.3740 -1.0288
   69MOL    C4346419   2.275   1.346   0.696  0.2298 -0.4142 -0.0287
   69MOL    C4446420   2.225   1.267   0.574  0.1264 -0.2690  0.0380
   69MOL    C4546421   2.094   1.188   0.588 -0.4201  0.4151 -0.2965
   69MOL    C4646422   2.094   1.064   0.507 -0.1898 -0.3019  0.3572
   69MOL    C4746423   2.169   0.942   0.563  0.0128  0.2578 -0.2805
   69MOL    O4846424   2.290   0.931   0.559 -0.8296  0.2038  0.1938
   69MOL    H4946425   2.622   1.313   1.445  1.3807 -2.0991  2.4641
   69MOL    H5046426   2.637   1.497   1.278  1.3418  0.9648 -0.9828
   69MOL    H5146427   2.791   1.434   1.231 -1.1531  0.8476 -0.6149
   69MOL    H5246428   2.549   1.269   1.189  1.8478 -0.3186  2.4239
   69MOL    H5346429   2.706   1.262   1.097 -0.7012  1.2245 -3.7411
   69MOL    H5446430   2.516   1.501   1.081 -0.0901  0.6177  0.5125
   69MOL    H5546431   2.669   1.491   1.006  0.1790 -1.1363 -2.7183
   69MOL    H5646432   2.436   1.304   0.951 -0.2210  0.6394  1.3738
   69MOL    H5746433   2.591   1.295   0.876 -0.9014 -2.5356  3.1783
   69MOL    H5846434   2.548   1.540   0.778  1.1314  0.3733 -1.2714
   69MOL    H5946435   2.393   1.530   0.846 -1.2055 -2.1743 -0.0318
   69MOL    H6046436   2.407   1.482   0.598 -2.6567  2.6398  2.3219
   69MOL    H6146437   2.479   1.321   0.637 -0.2191 -1.8797  1.4487
   69MOL    H6246438   2.205   1.426   0.718  0.4018 -0.5648  1.1155
   69MOL    H6346439   2.288   1.276   0.779 -0.4796 -0.2119  0.2557
   69MOL    H6446440   2.223   1.328   0.483  0.8913  1.6037  1.2331
   69MOL    H6546441   2.300   1.190   0.557 -1.1333 -1.7835  1.2404
   69MOL    H6646442   2.019   1.259   0.552  0.5291  1.0918 -0.9463
   69MOL    H6746443   2.060   1.154   0.686  1.6472  0.1700  0.3608
   69MOL    H6846444   2.149   1.075   0.413 -1.4687  4.8225  0.0227
   69MOL    H6946445   1.996   1.023   0.483  0.3589 -1.2187 -0.3846
   69MOL    N7046446   2.092   0.850   0.627 -0.0118 -0.0328 -1.1067
   69MOL    C7146447   2.139   0.765   0.736 -0.2834  0.2391  1.0246
   69MOL    C7246448   2.023   0.743   0.832  0.3852 -0.1014 -0.2571
   69MOL    C7346449   2.054   0.639   0.943  0.4584 -0.6572 -0.1102
   69MOL    C7446450   2.067   0.496   0.892 -0.4800  0.0333  0.0593
   69MOL    C7546451   1.941   0.439   0.827  0.9392  0.0105 -0.2700
   69MOL    C7646452   1.832   0.413   0.928  0.8755 -0.5700  0.2891
   69MOL    C7746453   1.695   0.387   0.861 -0.1231  0.3560 -0.0834
   69MOL    C7846454   1.579   0.371   0.955  0.2847 -0.2302 -0.1373
   69MOL    C7946455   1.455   0.337   0.881 -0.0616  0.2025 -0.0932
   69MOL    C8046456   1.329   0.317   0.967 -0.3446  0.1826  0.3403
   69MOL    C8146457   1.207   0.262   0.892 -0.1656 -0.6041  0.2472
   69MOL    O8246458   1.177   0.314   0.780  0.6099 -0.1046  0.4305
   69MOL    H8346459   1.991   0.855   0.626 -0.0584 -0.7970 -0.3890
   69MOL    H8446460   2.166   0.664   0.705  1.0995  1.2973 -1.2708
   69MOL    H8546461   2.214   0.807   0.803  0.7416 -2.2630  1.4925
   69MOL    H8646462   1.938   0.710   0.773  1.6130 -1.3345 -1.3444
   69MOL    H8746463   1.981   0.830   0.882 -0.2649 -1.2820  1.2913
   69MOL    H8846464   2.152   0.666   0.983  0.9688 -3.4003  0.6082
   69MOL    H8946465   1.977   0.638   1.020 -0.4314 -0.1762 -0.9814
   69MOL    H9046466   2.108   0.440   0.976  2.6097  1.3995 -0.4510
   69MOL    H9146467   2.154   0.496   0.826  0.5866  2.4246  1.3984
   69MOL    H9246468   1.965   0.340   0.790  0.6819  0.4089 -1.5556
   69MOL    H9346469   1.915   0.503   0.742  1.9377  0.3148 -0.3530
   69MOL    H9446470   1.847   0.320   0.984 -0.5145  0.1563  1.9258
   69MOL    H9546471   1.821   0.489   1.006 -2.5742 -2.6314  1.9612
   69MOL    H9646472   1.696   0.291   0.809 -2.0244  0.0536  0.3669
   69MOL    H9746473   1.664   0.459   0.786 -0.9373 -0.1952 -0.2900
   69MOL    H9846474   1.610   0.289   1.021  1.1187 -0.9177 -1.3733
   69MOL    H9946475   1.553   0.460   1.012  0.4193 -0.2438 -0.0534
   69MOL   H10046476   1.469   0.249   0.819 -2.1836  0.1267 -0.4898
   69MOL   H10146477   1.437   0.421   0.814  1.6458  0.1497 -0.6392
   69MOL   H10246478   1.285   0.410   1.004  0.7269  0.6703  0.4070
   69MOL   H10346479   1.349   0.258   1.056  0.3379 -0.7956 -0.4534
   69MOL   N10446480   1.140   0.160   0.946 -0.9735 -0.5564  0.4989
   69MOL   C10546481   1.030   0.090   0.875  0.0575  0.2949 -0.7422
   69MOL   C10646482   0.936   0.037   0.979  0.1898  0.1427 -0.0288
   69MOL   C10746483   0.830   7.673   0.906  0.1747 -0.1210  0.1526
   69MOL   C10846484   0.741   7.592   0.994  0.3636  0.9255  0.2580
   69MOL   C10946485   0.691   7.465   0.933  0.6128 -0.1821  0.2981
   69MOL   C11046486   0.571   7.397   0.987  0.1930 -0.0073 -0.9129
   69MOL   C11146487   0.507   7.287   0.903 -0.5621 -0.0126  1.0871
   69MOL   C11246488   0.394   7.211   0.973  0.6011  0.0513  0.4787
   69MOL   C11346489   0.311   7.115   0.887  0.4688 -0.0290  0.3884
   69MOL   C11446490   0.389   7.003   0.812  0.0955 -0.0355  0.1521
   69MOL   C11546491   0.437   6.891   0.902 -0.4330  0.4976 -0.6655
   69MOL   O11646492   0.361   6.822   0.965 -0.2164  0.3477  0.2686
   69MOL   H11746493   1.173   0.114   1.029  1.1341 -0.6327 -0.3430
   69MOL   H11846494   0.975   0.162   0.814 -0.9005  0.5499  0.4032
   69MOL   H11946495   1.069   0.018   0.803 -0.1557  1.0325 -1.6108
   69MOL   H12046496   0.879   0.113   1.032  0.8507 -1.1031  2.4982
   69MOL   H12146497   0.987   7.690   1.051 -0.4653 -0.8328 -0.3956
   69MOL   H12246498   0.775   0.014   0.830 -0.1545  1.5721  1.6403
   69MOL   H12346499   0.892   7.606   0.846 -2.2355 -0.8399 -1.6162
   69MOL   H12446500   0.653   7.648   1.022  0.6305  1.2126  0.5297
   69MOL   H12546501   0.780   7.569   1.093  0.1661  0.4817  0.2338
   69MOL   H12646502   0.777   7.398   0.934  0.8885  0.1083 -1.5307
   69MOL   H12746503   0.660   7.483   0.830 -0.7770 -0.0488  0.7217
   69MOL   H12846504   0.593   7.348   1.082 -4.0613  0.7146  0.5733
   69MOL   H12946505   0.502   7.475   1.020  0.8724  0.3156 -0.2565
   69MOL   H13046506   0.576   7.210   0.867 -0.6783 -0.7570  2.4072
   69MOL   H13146507   0.471   7.337   0.813  0.4556  2.8082  2.2215
   69MOL   H13246508   0.438   7.155   1.056  0.5327 -1.8518 -0.7343
   69MOL   H13346509   0.327   7.283   1.020 -0.3614 -0.7695  0.3886
   69MOL   H13446510   0.260   7.170   0.809  0.6035  0.6649  0.7864
   69MOL   H13546511   0.238   7.062   0.949  0.0224 -1.1599 -1.0727
   69MOL   H13646512   0.475   7.050   0.764 -1.3617  1.9329 -0.5717
   69MOL   H13746513   0.339   6.958   0.726 -1.1760 -1.8107  1.7821
   69MOL   N13846514   0.570   6.879   0.910 -0.0391 -0.1939 -0.5307
   69MOL   C13946515   0.643   6.795   0.999  0.4360  0.3937 -0.4665
   69MOL   C14046516   0.688   6.876   1.129 -0.0718 -0.8838  0.4139
   69MOL   C14146517   0.746   6.782   1.234 -0.9907 -0.2383  0.0206
   69MOL   C14246518   0.766   6.851   1.370 -0.7294 -0.4240 -0.1212
   69MOL   C14346519   0.838   6.758   1.470  0.2710  0.3376  0.1294
   69MOL   C14446520   0.873   6.829   1.604 -0.7823 -0.3156 -0.5578
   69MOL   C14546521   0.975   6.756   1.691  0.6043 -0.0951 -0.2580
   69MOL   C14646522   0.998   6.820   1.827 -0.0349 -0.5922  0.5744
   69MOL   C14746523   1.125   6.759   1.891 -0.3353 -0.2614 -0.8837
   69MOL   C14846524   1.163   6.820   2.022  0.4441 -0.0006  0.1587
   69MOL   C14946525   1.212   6.961   2.020  0.5674 -0.0341  0.2325
   69MOL   O15046526   1.270   7.011   1.925  0.4522 -0.2045 -0.2016
   69MOL   H15146527   0.611   6.957   0.861 -2.9798  1.1162 -1.0330
   69MOL   H15246528   0.582   6.713   1.034  0.8918  0.1646 -0.2092
   69MOL   H15346529   0.731   6.753   0.950 -0.5611 -1.9331 -0.3090
   69MOL   H15446530   0.596   6.915   1.172 -0.9661 -2.6597  0.1486
   69MOL   H15546531   0.757   6.955   1.101 -1.7219  0.4257 -0.0617
   69MOL   H15646532   0.677   6.697   1.241  0.1309 -1.0195  1.9913
   69MOL   H15746533   0.836   6.730   1.201 -1.6324 -2.0926  1.0562
   69MOL   H15846534   0.673   6.887   1.414  0.1207 -0.3391  1.6723
   69MOL   H15946535   0.842   6.928   1.353 -1.9628  0.8631  0.0906
   69MOL   H16046536   0.933   6.732   1.423 -0.0034 -1.1430  0.3916
   69MOL   H16146537   0.792   6.661   1.485 -0.9724  0.8226 -0.4968
   69MOL   H16246538   0.901   6.931   1.578 -2.4984  0.2020 -0.4600
   69MOL   H16346539   0.786   6.851   1.666 -1.1684 -0.3380 -1.0855
   69MOL   H16446540   1.075   6.759   1.649  0.9201 -1.0224  0.4201
   69MOL   H16546541   0.938   6.656   1.717 -0.3734  0.1986 -0.5004
   69MOL   H16646542   1.010   6.928   1.817  2.9468 -1.0199 -1.0504
   69MOL   H16746543   0.912   6.789   1.885  1.1997 -1.2858  2.0928
   69MOL   H16846544   1.211   6.768   1.825  0.2294 -0.5448 -0.1884
   69MOL   H16946545   1.116   6.651   1.906 -0.3110  0.0370  1.3787
   69MOL   H17046546   1.245   6.767   2.069 -1.0610  0.3090  3.2562
   69MOL   H17146547   1.078   6.807   2.089  1.0213 -1.0970  0.6896
   69MOL   N17246548   1.172   7.032   2.119  0.1368 -0.2849  0.1348
   69MOL   C17346549   1.194   7.174   2.131  0.0678  0.5795 -0.4067
   69MOL   C17446550   1.061   7.258   2.110 -0.0889  0.2286  0.0476
   69MOL   C17546551   0.980   7.217   1.990  0.2780  0.4012 -0.1889
   69MOL   C17646552   0.851   7.300   1.970 -0.5680  0.3225  0.2054
   69MOL   C17746553   0.781   7.250   1.840 -0.8154  1.2254  0.0855
   69MOL   C17846554   0.662   7.331   1.798 -0.2034  0.3095  0.0041
   69MOL   C17946555   0.530   7.278   1.855  0.3524  1.0160  0.0561
   69MOL   C18046556   0.413   7.365   1.802  0.5365 -0.0538 -0.1200
   69MOL   C18146557   0.405   7.521   1.836  0.0936 -0.3311  0.0132
   69MOL   C18246558   0.271   7.588   1.779  0.0414  0.4103 -0.3091
   69MOL   C18346559   0.232   0.003   1.846  0.3236  0.0443 -0.0118
   69MOL   O18446560   0.285   0.106   1.806 -0.1051 -0.4276 -0.4224
   69MOL   H18546561   1.152   6.974   2.199 -2.1769 -0.1952 -0.3213
   69MOL   H18646562   1.235   7.182   2.232  3.6148 -2.1713 -1.5338
   69MOL   H18746563   1.272   7.198   2.059  1.3305 -0.5335  0.5713
   69MOL   H18846564   1.092   7.363   2.111 -1.3508  0.6163 -0.8120
   69MOL   H18946565   0.993   7.247   2.195 -1.6096  1.8155 -0.9128
   69MOL   H19046566   1.041   7.210   1.900 -1.0315  0.1984 -1.0789
   69MOL   H19146567   0.950   7.118   2.026 -1.0237  2.6202  5.3246
   69MOL   H19246568   0.883   7.404   1.961  1.7250 -0.1782  1.9562
   69MOL   H19346569   0.785   7.294   2.056 -0.2378 -2.2826  0.3057
   69MOL   H19446570   0.745   7.148   1.852  0.5462  0.1641 -3.8905
   69MOL   H19546571   0.854   7.258   1.759  0.3882  4.8608  1.4576
   69MOL   H19646572   0.668   7.435   1.830  1.6639  0.3812 -0.5567
   69MOL   H19746573   0.663   7.358   1.693 -2.6573  0.4904 -0.0169
   69MOL   H19846574   0.527   7.282   1.964  0.9383  0.0965  0.1157
   69MOL   H19946575   0.517   7.178   1.813  0.0914  1.6255 -1.3367
   69MOL   H20046576   0.415   7.347   1.694 -0.3208 -2.3015  0.2121
   69MOL   H20146577   0.331   7.310   1.848  0.5260  1.1548  1.3473
   69MOL   H20246578   0.485   7.585   1.798  0.7284 -1.7916 -1.1494
   69MOL   H20346579   0.399   7.531   1.944  0.0262  0.1921 -0.0378
   69MOL   H20446580   0.189   7.518   1.795  0.8201  0.2497  3.6233
   69MOL   H20546581   0.273   7.616   1.674  1.4721  0.0281 -0.3954
   69MOL   N20646582   0.133   7.714   1.935  0.1677  0.2269  0.6014
   69MOL   C20746583   0.059   0.118   1.977 -0.1038  0.7206  0.1235
   69MOL   C20846584   7.674   0.157   1.875 -0.3569  0.2803 -0.1812
   69MOL   C20946585   7.594   0.283   1.921 -0.5238 -0.0116 -0.1655
   69MOL   C21046586   7.545   0.365   1.800  0.4410  0.4547  0.1080
   69MOL   C21146587   7.421   0.466   1.816 -0.9888 -0.8344  1.0858
   69MOL   C21246588   7.459   0.590   1.899 -0.3244 -0.1838  0.1268
   69MOL   C21346589   7.335   0.684   1.901  0.1702 -0.5026  0.1710
   69MOL   C21446590   7.351   0.810   1.981 -0.1421 -0.4010 -0.2314
   69MOL   C21546591   7.218   0.889   2.004  0.3399 -0.2596  0.4452
   69MOL   C21646592   7.235   1.013   2.094  0.1303 -0.3307 -0.7005
   69MOL   C21746593   7.132   1.120   2.077 -0.0934 -0.4381  0.4030
   69MOL   O21846594   7.012   1.086   2.057  0.0217 -0.7106 -0.1828
   69MOL   H21946595   0.088   7.625   1.954 -1.2041  0.5993 -0.8312
   69MOL   H22046596   0.139   0.184   2.009  0.5718  0.8423 -1.7992
   69MOL   H22146597   7.712   0.087   2.060 -2.2427  0.1843 -1.6510
   69MOL   H22246598   7.608   0.071   1.876 -0.9142  0.6658 -1.7731
   69MOL   H22346599   0.006   0.172   1.778  1.4413 -0.2279  0.5961
   69MOL   H22446600   7.501   0.258   1.972  0.5091  0.5188  2.0473
   69MOL   H22546601   7.639   0.351   1.993  1.6026  0.8592 -2.2505
   69MOL   H22646602   7.502   0.287   1.736  1.7370 -0.8755  0.8137
   69MOL   H22746603   7.634   0.411   1.758  0.2728 -0.7380 -1.6280
   69MOL   H22846604   7.333   0.407   1.841 -1.9376  0.3975  0.7144
   69MOL   H22946605   7.401   0.507   1.717  0.6113 -1.5318  0.4521
   69MOL   H23046606   7.492   0.565   2.000  0.9958  0.2644 -0.1920
   69MOL   H23146607   7.544   0.644   1.859 -1.9283  4.2010  2.2282
   69MOL   H23246608   7.250   0.627   1.937  0.8340 -0.8599  1.1815
   69MOL   H23346609   7.308   0.713   1.799  1.3810  0.8319  0.2079
   69MOL   H23446610   7.388   0.781   2.079 -2.2501  1.7107  1.2363
   69MOL   H23546611   7.436   0.867   1.944 -1.3979  1.9386  0.4299
   69MOL   H23646612   7.157   0.806   2.036 -1.2232  0.1410 -1.4238
   69MOL   H23746613   7.183   0.915   1.904  1.5293 -0.8082 -0.1289
   69MOL   H23846614   7.331   1.063   2.084  0.2379 -0.3271  0.3651
   69MOL   H23946615   7.245   0.991   2.200  0.6063  0.5703 -0.5530
   69MOL   N24046616   7.163   1.251   2.089  0.1094  0.0926  0.1872
   69MOL   C24146617   7.074   1.370   2.093  0.2119 -0.8609 -0.3528
   69MOL   C24246618   7.147   1.507   2.067  0.2094  0.0758 -0.4174
   69MOL   C24346619   7.305   1.497   2.072  0.1119 -0.0724 -0.3196
   69MOL   C24446620   7.369   1.451   2.205  0.1043  0.3979 -0.2721
   69MOL   C24546621   7.524   1.456   2.214  0.5310 -0.0596 -0.1062
   69MOL   C24646622   7.581   1.462   2.359  0.2536 -0.2249 -0.3708
   69MOL   C24746623   0.014   1.462   2.362 -0.1972  0.7985 -0.5605
   69MOL   C24846624   0.063   1.476   2.503  0.2032  0.1212 -0.6351
   69MOL   C24946625   0.220   1.487   2.516 -0.2153  0.3989  0.5452
   69MOL   C25046626   0.307   1.375   2.465 -0.2745  0.1187  0.2101
   69MOL   C25146627   0.315   1.244   2.548  0.4419 -0.3293 -0.1898
   69MOL   O25246628   0.225   1.221   2.626 -0.1327  0.3221  0.1479
   69MOL   H25346629   7.259   1.276   2.107  0.4734 -1.6448  0.7082
   69MOL   H25446630   7.040   1.362   2.196  0.3256 -0.3143 -0.2691
   69MOL   H25546631   6.997   1.373   2.017 -0.8870  2.4449  0.7873
   69MOL   H25646632   7.107   1.593   2.120  3.1177  0.5465  1.1050
   69MOL   H25746633   7.127   1.530   1.963  1.7702  0.2358 -0.6843
   69MOL   H25846634   7.344   1.422   2.003  1.3726  0.7366 -0.5112
   69MOL   H25946635   7.356   1.584   2.031 -0.1549 -0.7191 -2.0455
   69MOL   H26046636   7.339   1.348   2.222  0.0882  0.3645 -0.4952
   69MOL   H26146637   7.324   1.499   2.291  1.2616  0.6863  0.1836
   69MOL   H26246638   7.555   1.551   2.169  0.2661 -0.6004 -1.4635
   69MOL   H26346639   7.567   1.379   2.150 -0.3570 -0.1842 -0.5622
   69MOL   H26446640   7.535   1.542   2.417 -1.7404 -2.4780  1.3068
   69MOL   H26546641   7.554   1.373   2.417 -1.0219  0.3923  0.0009
   69MOL   H26646642   0.057   1.535   2.294  1.1827 -1.2984 -1.9961
   69MOL   H26746643   0.051   1.365   2.327  3.3804  1.2391  1.7078
   69MOL   H26846644   0.013   1.566   2.538  1.8273  0.8656 -0.1995
   69MOL   H26946645   0.042   1.389   2.566 -0.3730 -0.0880 -1.1078
   69MOL   H27046646   0.244   1.508   2.620 -2.2270 -1.1489  1.3570
   69MOL   H27146647   0.243   1.583   2.469  0.7054 -0.6576 -1.2198
   69MOL   H27246648   0.410   1.411   2.454  0.1144 -1.2622 -0.7323
   69MOL   H27346649   0.288   1.341   2.363  0.5779 -0.7438  0.3278
   69MOL   N27446650   0.418   1.165   2.529 -0.0280 -0.0393  0.4681
   69MOL   C27546651   0.435   1.030   2.596  0.5130  0.5045  0.0653
   69MOL   C27646652   0.425   0.917   2.488 -0.6816  0.3068  0.2178
   69MOL   C27746653   0.565   0.881   2.424 -0.6468  0.1885  0.2348
   69MOL   C27846654   0.552   0.791   2.304  0.1358 -0.6874  0.0167
   69MOL   C27946655   0.682   0.782   2.226 -0.4492 -0.3283 -0.8026
   69MOL   C28046656   0.686   0.681   2.108  0.0363  0.4887  0.3618
   69MOL   C28146657   0.829   0.657   2.050 -0.4768 -0.0480  0.1176
   69MOL   C28246658   0.841   0.561   1.928 -0.0564  0.7429 -0.0438
   69MOL   C28346659   0.989   0.551   1.882 -0.3859  0.1939  0.2465
   69MOL   C28446660   1.006   0.504   1.741 -0.2511  0.6960  0.1824
   69MOL   C28546661   0.925   0.579   1.636 -0.8358 -0.4282 -0.2686
   69MOL   O28646662   0.945   0.698   1.617 -0.3568 -0.9585 -0.2677
   69MOL   H28746663   0.489   1.193   2.463 -1.7357  0.3944 -1.2250
   69MOL   H28846664   0.363   1.007   2.674  2.5662  0.9006  2.1137
   69MOL   H28946665   0.530   1.009   2.645  0.9234 -2.2201 -1.7967
   69MOL   H29046666   0.359   0.949   2.407 -1.8593 -1.2738  0.5301
   69MOL   H29146667   0.375   0.828   2.526  3.1594 -2.5294 -0.9778
   69MOL   H29246668   0.617   0.972   2.393  0.1575 -0.4579 -0.3422
   69MOL   H29346669   0.632   0.827   2.490 -1.0779 -0.7430 -0.0832
   69MOL   H29446670   0.472   0.831   2.242 -0.2418 -1.6792 -0.1466
   69MOL   H29546671   0.518   0.693   2.338 -2.4693  0.1847  0.0271
   69MOL   H29646672   0.752   0.743   2.300 -2.4617  0.4716  1.5749
   69MOL   H29746673   0.713   0.881   2.193 -0.8738 -0.0063 -0.2434
   69MOL   H29846674   0.650   0.582   2.137  0.6826  0.4782  1.1528
   69MOL   H29946675   0.617   0.718   2.032  0.4501  0.0734 -0.2219
   69MOL   H30046676   0.887   0.619   2.135 -0.8135 -0.1249  0.3108
   69MOL   H30146677   0.872   0.747   2.005 -0.3261 -1.2266 -2.1885
   69MOL   H30246678   0.808   0.460   1.953  3.9287  0.0904  3.1536
   69MOL   H30346679   0.775   0.596   1.849 -1.3323  1.7298  1.4238
   69MOL   H30446680   1.043   0.492   1.957 -0.3899 -2.3775 -1.7134
   69MOL   H30546681   1.026   0.653   1.877 -3.0136  1.2613  1.3859
   69MOL   H30646682   0.989   0.397   1.726 -2.4267  0.8701  1.1421
   69MOL   H30746683   1.109   0.519   1.712 -0.3654 -0.9247 -1.1408
   69MOL   N30846684   0.823   0.512   1.579  0.0425 -0.3870 -0.3111
   69MOL   C30946685   0.718   0.570   1.494 -0.5741 -0.2776  0.3542
   69MOL   C31046686   0.772   0.602   1.346 -0.9342 -0.6898 -0.0374
   69MOL   C31146687   0.663   0.659   1.259 -0.0977 -0.1717 -0.3343
   69MOL   C31246688   0.641   0.805   1.296 -0.2423 -0.2211  0.5496
   69MOL   C31346689   0.768   0.898   1.262 -0.0132 -0.3727  0.2120
   69MOL   C31446690   0.737   1.049   1.254  0.1516 -0.3658  0.6032
   69MOL   C31546691   0.802   1.124   1.131  0.2232  0.5785 -0.0890
   69MOL   C31646692   0.758   1.265   1.131  0.1824 -0.5016 -0.5311
   69MOL   C31746693   0.813   1.338   1.001 -0.4636 -0.2840 -0.1771
   69MOL   C31846694   0.738   1.312   0.871 -0.5297 -0.1859 -0.3205
   69MOL   C31946695   0.592   1.362   0.865  0.1071  0.3405 -0.1162
   69MOL   O32046696   0.541   1.428   0.953  0.4402 -1.1057  0.2758
   69MOL   H32146697   0.799   0.422   1.619  1.5566 -0.3179  0.7798
   69MOL   H32246698   0.683   0.662   1.541 -0.6793  0.3720 -0.9696
   69MOL   H32346699   0.638   0.497   1.480 -2.8812  1.8801  1.8608
   69MOL   H32446700   0.811   0.509   1.303  0.4465 -0.4650  0.7020
   69MOL   H32546701   0.865   0.659   1.350 -0.6409 -0.8955 -2.7252
   69MOL   H32646702   0.693   0.659   1.154  1.9014  1.7475  0.1954
   69MOL   H32746703   0.570   0.603   1.269  0.9833 -1.6826  1.6368
   69MOL   H32846704   0.607   0.829   1.396  0.6282  0.2937  0.7325
   69MOL   H32946705   0.565   0.840   1.225  0.2357 -0.0813  0.0973
   69MOL   H33046706   0.808   0.877   1.163  1.4449 -0.3793  0.7914
   69MOL   H33146707   0.855   0.883   1.325  0.7398  0.2634 -0.6720
   69MOL   H33246708   0.629   1.060   1.246  0.5563  2.7292 -1.6576
   69MOL   H33346709   0.775   1.095   1.345  0.0591  1.9905 -0.5172
   69MOL   H33446710   0.772   1.074   1.038  1.7891 -1.2420  0.3403
   69MOL   H33546711   0.910   1.122   1.146  0.4760  0.1057 -1.7905
   69MOL   H33646712   0.651   1.286   1.134 -0.0652 -1.9053  0.6843
   69MOL   H33746713   0.795   1.312   1.222  0.0517  2.3994 -1.8903
   69MOL   H33846714   0.918   1.312   0.987 -0.1250 -1.0574  3.3631
   69MOL   H33946715   0.807   1.447   1.009 -0.1971 -0.4267  2.3304
   69MOL   H34046716   0.726   1.204   0.862 -0.1342 -0.2096 -0.6054
   69MOL   H34146717   0.793   1.327   0.778  0.6202 -0.6304  0.2791
   69MOL   N34246718   0.522   1.337   0.751 -0.0693  0.3086  0.0249
   69MOL   C34346719   0.393   1.395   0.716  0.3032  0.0477 -0.2359
   69MOL   C34446720   0.379   1.402   0.563 -0.2083  0.0402 -0.5198
   69MOL   C34546721   0.373   1.264   0.498  0.0292 -0.4034 -0.0088
   69MOL   C34646722   0.256   1.172   0.533 -0.1279  0.3725 -0.5224
   69MOL   C34746723   0.226   1.052   0.440 -0.4239 -0.7610 -0.1345
   69MOL   C34846724   0.089   0.994   0.483  0.7772 -0.4218 -0.1389
   69MOL   C34946725   0.045   0.851   0.435  0.4438  0.0542 -0.1946
   69MOL   C35046726   0.119   0.736   0.511 -0.2221  0.0726  0.4146
   69MOL   C35146727   0.064   0.589   0.491  0.1249 -0.0536  0.2253
   69MOL   C35246728   0.155   0.488   0.562 -0.0249  0.7826  0.2644
   69MOL   C35346729   0.265   0.422   0.479 -0.1645 -0.6010 -0.0004
   69MOL   O35446730   0.283   0.453   0.362 -0.3500  0.0625  0.2365
   69MOL   H35546731   0.569   1.288   0.677  3.7502  0.8039  2.0404
   69MOL   H35646732   0.322   1.333   0.769 -1.1379  0.2011 -1.9335
   69MOL   H35746733   0.388   1.498   0.752 -0.2566  0.1335 -0.5481
   69MOL   H35846734   0.458   1.465   0.522  0.2807  0.5839  1.2119
   69MOL   H35946735   0.279   1.444   0.548 -0.2590  0.2475  0.3844
   69MOL   H36046736   0.365   1.286   0.391  0.8418 -0.0810 -0.0084
   69MOL   H36146737   0.470   1.216   0.509 -0.4073 -1.1867  0.4120
   69MOL   H36246738   0.158   1.220   0.534 -0.1439  0.3950  1.9168
   69MOL   H36346739   0.279   1.128   0.631 -1.2973 -1.3684 -0.9944
   69MOL   H36446740   0.305   0.977   0.441  0.4669  0.1793 -0.2186
   69MOL   H36546741   0.204   1.084   0.338 -1.8415 -0.4221  0.2706
   69MOL   H36646742   0.094   0.996   0.591 -1.0883  0.9145 -0.0479
   69MOL   H36746743   0.009   1.059   0.446 -0.8909 -2.2052  0.2832
   69MOL   H36846744   0.050   0.836   0.327  0.3220  0.9409 -0.3257
   69MOL   H36946745   7.655   0.830   0.451  0.2169  0.6599 -0.8555
   69MOL   H37046746   0.223   0.746   0.478 -0.3977  0.4070 -0.0369
   69MOL   H37146747   0.130   0.756   0.618 -1.3919  2.1429  0.1651
   69MOL   H37246748   0.056   0.571   0.384 -0.3656 -0.1872  0.2845
   69MOL   H37346749   7.677   0.567   0.519  0.1176  2.3467  2.2910
   69MOL   H37446750   0.105   0.399   0.600 -0.4871  0.2788 -1.4682
   69MOL   H37546751   0.197   0.536   0.651 -1.1915  0.3541  1.0676
   69MOL   N37646752   0.332   0.326   0.548 -0.3593 -0.2207 -0.3804
   69MOL   C37746753   0.405   0.220   0.497  0.4313  0.4312 -0.3711
   69MOL   C37846754   0.546   0.256   0.502  0.8436 -0.7907 -0.2542
   69MOL   C37946755   0.637   0.151   0.451 -0.6784 -0.7951  0.3792
   69MOL   C38046756   0.783   0.178   0.502 -0.1443 -0.4688 -0.2447
   69MOL   C38146757   0.846   0.306   0.451  0.0275 -0.1069 -0.1041
   69MOL   C38246758   0.840   0.326   0.303 -0.6069 -0.0315  0.9142
   69MOL   C38346759   0.953   0.238   0.240  0.4365  0.2133  0.2938
   69MOL   C38446760   0.975   0.277   0.096  0.2247  0.3582  0.2170
   69MOL   C38546761   1.075   0.187   0.022  0.2036 -0.2357  0.1839
   69MOL   C38646762   1.041   0.037   0.000  0.5354 -0.7602  0.1130
   69MOL   C38746763   1.090   7.666   0.117 -0.0287 -0.2044 -0.4848
   69MOL   O38846764   1.205   7.666   0.151  0.3666 -0.3710 -0.1534
   69MOL   H38946765   0.331   0.333   0.649 -0.9667  0.7570 -0.4480
   69MOL   H39046766   0.372   0.141   0.564  1.8431 -0.6493 -0.9155
   69MOL   H39146767   0.373   0.209   0.393  1.1648 -0.5064 -0.5044
   69MOL   H39246768   0.582   0.281   0.602  0.3869 -1.0422 -0.0230
   69MOL   H39346769   0.558   0.349   0.447  0.9039 -0.8151 -0.2818
   69MOL   H39446770   0.612   0.054   0.494 -0.4420 -1.8048 -1.6524
   69MOL   H39546771   0.643   0.125   0.345 -1.4116 -1.0271  0.3916
   69MOL   H39646772   0.855   0.103   0.470  1.4699  0.8048  0.3746
   69MOL   H39746773   0.783   0.174   0.611  2.4207 -0.1951 -0.2109
   69MOL   H39846774   0.950   0.304   0.483  0.2542  0.7375 -0.7620
   69MOL   H39946775   0.806   0.393   0.504  1.0606 -0.0295  0.5703
   69MOL   H40046776   0.741   0.306   0.262 -0.4047  1.3745 -0.3004
   69MOL   H40146777   0.860   0.432   0.287  0.1788 -0.3990 -0.7145
   69MOL   H40246778   0.916   0.136   0.248 -0.6774  0.3748 -2.2547
   69MOL   H40346779   1.054   0.234   0.280  0.3573 -0.6453  0.4149
   69MOL   H40446780   0.876   0.270   0.050  0.4581 -0.2449 -0.2096
   69MOL   H40546781   1.012   0.379   0.089  0.2673  0.3271 -0.0324
   69MOL   H40646782   1.166   0.194   0.081 -1.1690  1.1343  2.2280
   69MOL   H40746783   1.092   0.233   7.640  2.0292  1.1206  1.1085
   69MOL   H40846784   1.091   0.002   7.626 -1.8727  1.5663 -2.2300
   69MOL   H40946785   0.932   0.033   7.712  0.4307  0.8045  0.7961
   69MOL   N41046786   1.003   7.588   0.178  0.4032 -0.7549 -0.6387
   69MOL   C41146787   1.028   7.497   0.292  0.2002 -0.4022 -0.0928
   69MOL   C41246788   1.008   7.569   0.430 -0.1022  0.4962  0.6851
   69MOL   C41346789   1.042   7.477   0.542 -0.2738 -0.7739 -0.5609
   69MOL   C41446790   0.932   7.364   0.578 -0.3635 -0.4216 -1.0682
   69MOL   C41546791   0.961   7.321   0.725  0.3749 -0.2310 -0.1219
   69MOL   C41646792   1.078   7.225   0.734 -0.1184 -0.8466  0.3175
   69MOL   C41746793   1.115   7.195   0.885  0.0632 -0.3396 -0.2109
   69MOL   C41846794   1.215   7.071   0.905  0.6605  0.2823 -0.2064
   69MOL   C41946795   1.239   7.054   1.059  0.3836 -0.4266  0.0817
   69MOL   C42046796   1.288   6.918   1.113 -0.3846 -0.1578  0.1350
   69MOL   C42146797   1.183   6.806   1.115  0.1785  0.3369  0.2584
   69MOL   O42246798   1.105   6.780   1.029 -0.0002  0.4353  0.2714
   69MOL   H42346799   0.911   7.586   0.137  0.6921  1.2501 -1.4183
   69MOL   H42446800   0.949   7.423   0.279  0.7742 -0.9105 -0.7105
   69MOL   H42546801   1.125   7.450   0.276  0.7074  1.0580 -1.4068
   69MOL   H42646802   0.908   7.610   0.447 -0.5387  0.2400 -1.1099
   69MOL   H42746803   1.091   7.640   0.436  0.0495  0.3763  0.0181
   69MOL   H42846804   1.133   7.425   0.512  0.9704  0.3304  1.2127
   69MOL   H42946805   1.062   7.540   0.629 -0.9390 -0.7778 -0.4054
   69MOL   H43046806   0.933   7.277   0.512  1.5063 -0.0087 -1.6306
   69MOL   H43146807   0.836   7.411   0.558 -0.6398  0.3563  1.9248
   69MOL   H43246808   0.873   7.270   0.765  0.8331 -0.1962  0.9262
   69MOL   H43346809   0.972   7.409   0.787  1.2398  0.4814 -1.2756
   69MOL   H43446810   1.047   7.131   0.689 -0.9838 -1.7101  2.6261
   69MOL   H43546811   1.174   7.266   0.703 -0.1945 -1.0258 -0.1494
   69MOL   H43646812   1.022   7.171   0.938  0.0860 -0.3572 -0.1783
   69MOL   H43746813   1.164   7.279   0.935 -1.5386 -0.2665  1.2936
   69MOL   H43846814   1.173   6.981   0.859  1.5976  0.3798 -1.2866
   69MOL   H43946815   1.310   7.096   0.857  1.1195 -0.0468  0.5252
   69MOL   H44046816   1.145   7.076   1.110  0.4187 -0.3559  0.1155
   69MOL   H44146817   1.305   7.135   1.091 -2.6760  2.3211 -0.3070
   69MOL   H44246818   1.313   6.928   1.218 -1.0754 -0.3717  0.3207
   69MOL   H44346819   1.382   6.892   1.064  1.0592  0.2449  2.6035
   69MOL   N44446820   1.186   6.733   1.223 -0.0198  0.4557  0.1266
   69MOL   C44546821   1.119   6.602   1.236  0.6290 -1.0311 -0.3213
   69MOL   C44646822   1.156   6.537   1.375  0.2185  0.2441 -0.2457
   69MOL   C44746823   1.070   6.419   1.400  0.2604 -0.4614  0.3933
   69MOL   C44846824   1.127   6.320   1.509  0.4388 -0.6266 -0.3237
   69MOL   C44946825   1.027   6.209   1.540  0.7616  0.2061 -0.0055
   69MOL   C45046826   1.072   6.099   1.637  0.5360  0.5148 -0.5223
   69MOL   C45146827   0.981   5.977   1.649  0.1589  0.1538  0.2094
   69MOL   C45246828   0.936   5.905   1.523 -0.0131  0.2257  0.4891
   69MOL   C45346829   0.894   5.763   1.566 -0.1380  0.5534  0.2158
   69MOL   C45446830   0.870   5.668   1.442  0.1105 -0.3130 -0.0832
   69MOL   C45546831   1.000   5.645   1.364  0.8429 -0.5287 -0.1960
   69MOL   O45646832   1.102   5.600   1.420 -0.5194  0.2278  0.0819
   69MOL   H45746833   1.261   6.756   1.287 -1.2435  1.6731  1.1258
   69MOL   H45846834   1.013   6.625   1.248  0.8944  1.3679 -2.0917
   69MOL   H45946835   1.134   6.537   1.149  0.3918 -1.0461 -0.3500
   69MOL   H46046836   1.138   6.600   1.462 -0.8020 -0.5430  0.1226
   69MOL   H46146837   1.263   6.517   1.368  0.4083  1.7446 -1.9095
   69MOL   H46246838   0.973   6.451   1.439  0.8038  1.8185 -0.0289
   69MOL   H46346839   1.055   6.366   1.306  1.7530  0.6653 -0.5112
   69MOL   H46446840   1.152   6.378   1.598  0.8305  2.5575 -2.4232
   69MOL   H46546841   1.216   6.269   1.472 -0.0997 -0.8038 -1.3941
   69MOL   H46646842   1.009   6.156   1.447 -0.9552 -1.7453  1.3914
   69MOL   H46746843   0.931   6.254   1.564  1.3154 -0.1733  3.1082
   69MOL   H46846844   1.169   6.057   1.612  0.4405 -0.4847  0.7247
   69MOL   H46946845   1.081   6.137   1.739 -0.5813  0.1241 -0.2609
   69MOL   H47046846   0.891   6.014   1.698  1.6516  0.6741  2.5898
   69MOL   H47146847   1.040   5.911   1.711 -0.7224 -2.0294 -1.2244
   69MOL   H47246848   0.848   5.962   1.493  0.4226  0.9794  0.6222
   69MOL   H47346849   1.020   5.898   1.454  0.5049 -1.9610  1.3073
   69MOL   H47446850   0.806   5.777   1.630 -1.0902  0.3827 -1.0418
   69MOL   H47546851   0.971   5.718   1.629  1.5829  0.6220 -1.7743
   69MOL   H47646852   0.800   5.723   1.380 -0.2930 -0.8815 -0.1355
   69MOL   H47746853   0.825   5.573   1.472 -1.4341  0.0665 -1.1632
   69MOL   N47846854   1.000   5.672   1.233 -0.0347  0.9939  0.3293
   69MOL   C47946855   1.118   5.647   1.148 -0.0263 -0.4269  0.0294
   69MOL   C48046856   1.102   5.513   1.076  0.4740 -0.3648  0.5355
   69MOL   C48146857   1.194   5.469   0.962  0.2380 -0.8475  0.3487
   69MOL   C48246858   1.322   5.406   1.010 -0.8682  0.1930 -0.0520
   69MOL   C48346859   1.305   5.263   1.080  0.1669  0.1023  0.2381
   69MOL   C48446860   1.438   5.217   1.131  0.4541 -0.2641  0.1498
   69MOL   C48546861   1.425   5.080   1.198  0.4021 -0.1106  0.1712
   69MOL   C48646862   1.549   5.027   1.272  0.2005  0.6176 -0.3162
   69MOL   C48746863   1.542   4.881   1.322  0.3148 -0.0844 -0.0684
   69MOL   C48846864   1.404   4.834   1.367 -0.3127 -0.0058  0.1891
   69MOL   C48946865   1.332   4.902   1.487  0.8137  0.3610  0.3144
   69MOL   O49046866   1.388   4.985   1.563  0.1499  0.0691  0.2544
   69MOL   H49146867   0.917   5.698   1.182  0.9365  1.8665 -0.8660
   69MOL   H49246868   1.119   5.720   1.066  0.1344 -1.5973 -1.0304
   69MOL   H49346869   1.214   5.665   1.196  0.3363 -1.3215 -0.3544
   69MOL   H49446870   1.006   5.516   1.024  0.9926  1.4818 -0.3748
   69MOL   H49546871   1.090   5.438   1.154  0.0766  0.1549  0.9781
   69MOL   H49646872   1.135   5.408   0.893  0.0269  0.3320 -0.5213
   69MOL   H49746873   1.219   5.558   0.905 -0.2181 -0.6143  0.5110
   69MOL   H49846874   1.367   5.472   1.085 -1.1046 -0.5207  0.7173
   69MOL   H49946875   1.390   5.403   0.925 -0.1964  0.1078  0.4783
   69MOL   H50046876   1.262   5.201   1.002  1.5736 -0.3530 -0.1902
   69MOL   H50146877   1.230   5.261   1.159 -0.7998 -0.1184 -0.6854
   69MOL   H50246878   1.510   5.226   1.049  1.5700 -0.5505  1.0762
   69MOL   H50346879   1.476   5.288   1.205 -0.6593  0.5451 -0.0363
   69MOL   H50446880   1.378   5.024   1.117  0.0384  1.6913 -0.8775
   69MOL   H50546881   1.345   5.093   1.272  0.7438 -0.4961  0.6090
   69MOL   H50646882   1.642   5.041   1.217  1.5537 -0.2040  1.7011
   69MOL   H50746883   1.566   5.079   1.367  0.9997 -1.9389  0.9856
   69MOL   H50846884   1.612   4.868   1.404  0.5787  0.4931 -0.1947
   69MOL   H50946885   1.556   4.810   1.241 -2.8261  0.6282 -1.3359
   69MOL   H51046886   1.423   4.728   1.389  0.7237 -0.0188 -0.7434
   69MOL   H51146887   1.333   4.834   1.285 -0.6679 -3.2395  0.4032
   69MOL   N51246888   1.199   4.884   1.498  0.7914  0.0591 -0.4458
   69MOL   C51346889   1.116   4.943   1.607 -0.3907 -0.7670  0.1280
   69MOL   C51446890   1.135   4.865   1.739  0.3606  0.0953  0.1725
   69MOL   C51546891   1.040   4.912   1.848 -0.4316 -0.6940  0.8969
   69MOL   C51646892   1.061   5.063   1.898 -0.0050 -0.1912  0.0001
   69MOL   C51746893   0.961   5.104   2.002 -0.0453  0.3704  0.6123
   69MOL   C51846894   0.986   5.244   2.056 -0.2023 -0.2564 -0.1081
   69MOL   C51946895   0.863   5.286   2.135  0.0718  0.4757 -0.8433
   69MOL   C52046896   0.873   5.412   2.220 -0.3222 -0.1585 -0.2444
   69MOL   C52146897   0.749   5.434   2.314  0.2189 -0.1642 -0.0278
   69MOL   C52246898   0.754   5.542   2.425  0.3282 -0.4951  0.0686
   69MOL   C52346899   0.708   5.685   2.389  0.4472  0.7290  0.1494
   69MOL   O52446900   0.694   5.723   2.270  0.1702  0.1909  0.1392
   69MOL   H52546901   1.162   4.831   1.421 -0.0031 -0.0055 -0.0344
   69MOL   H52646902   1.135   5.049   1.623 -1.7264 -0.4802 -0.1038
   69MOL   H52746903   1.009   4.940   1.584 -0.5800  1.6059  0.5364
   69MOL   H52846904   1.236   4.868   1.778 -1.0582  1.3988  3.9750
   69MOL   H52946905   1.115   4.762   1.709 -1.6776  0.1411  1.2468
   69MOL   H53046906   0.943   4.897   1.800  1.4137  0.2609 -3.3028
   69MOL   H53146907   1.035   4.843   1.932  0.8990 -1.8173  0.0702
   69MOL   H53246908   1.071   5.132   1.815  0.6941  1.0628  1.1040
   69MOL   H53346909   1.157   5.067   1.951  0.0053  2.0056 -0.1610
   69MOL   H53446910   0.963   5.028   2.080  0.6915 -0.5547 -0.2881
   69MOL   H53546911   0.858   5.098   1.967 -0.4973  0.5381  1.9030
   69MOL   H53646912   1.072   5.240   2.123 -0.7703 -2.2879  0.5375
   69MOL   H53746913   0.993   5.318   1.976  0.7749  0.0303  0.2340
   69MOL   H53846914   0.828   5.208   2.203  0.6636  1.5261  0.6891
   69MOL   H53946915   0.778   5.307   2.070 -1.1734 -0.8092  0.3358
   69MOL   H54046916   0.969   5.390   2.267 -0.4886  0.0540  0.1991
   69MOL   H54146917   0.886   5.494   2.150  3.9976 -0.8731 -0.3738
   69MOL   H54246918   0.717   5.336   2.350  0.4202 -0.5488 -0.8871
   69MOL   H54346919   0.667   5.462   2.246  0.7214  0.0985 -0.5315
   69MOL   H54446920   0.848   5.548   2.481  1.0980  0.3582 -1.2970
   69MOL   H54546921   0.679   5.502   2.493 -0.3810 -0.4831 -0.7023
   69MOL   N54646922   0.675   5.754   2.501 -1.0332 -0.4139  0.0241
   69MOL   C54746923   0.648   5.890   2.492  0.1038  0.1267 -0.0415
   69MOL   C54846924   0.643   5.956   2.627  0.3484  0.4510  0.4085
   69MOL   C54946925   0.605   6.108   2.615  0.5044  0.2597  0.2944
   69MOL   C55046926   0.578   6.179   2.748  0.4011  0.3783 -0.0976
   69MOL   C55146927   0.567   6.332   2.723 -0.3770  0.5627  0.0878
   69MOL   C55246928   0.553   6.402   2.863 -0.0319 -0.3993  0.0285
   69MOL   C55346929   0.401   6.405   2.886 -0.3527 -0.1848 -0.6455
   69MOL   C55446930   0.354   6.455   3.021 -0.0016  0.7936 -0.0506
   69MOL   C55546931   0.203   6.437   3.063 -0.7447 -0.5888  0.5737
   69MOL   C55646932   0.117   6.510   2.964  0.4311  0.3224 -0.0616
   69MOL   C55746933   0.134   6.656   2.946  0.7120  0.1114 -0.4622
   69MOL   O55846934   0.207   6.699   2.858  0.0084 -0.2463 -0.0515
   69MOL   H55946935   0.695   5.709   2.589 -1.6712 -0.3926  0.1781
   69MOL   H56046936   0.708   5.944   2.419 -2.5183  1.3685 -1.3268
   69MOL   H56146937   0.548   5.903   2.451  0.4366 -2.5022 -1.7685
   69MOL   H56246938   0.739   5.950   2.679 -0.1734 -0.7725  1.2447
   69MOL   H56346939   0.566   5.913   2.690  0.1751 -1.0470 -0.7974
   69MOL   H56446940   0.672   6.160   2.547 -0.6833  1.2135 -0.1845
   69MOL   H56546941   0.513   6.091   2.558  0.3455 -0.7488  0.8458
   69MOL   H56646942   0.662   6.156   2.813  0.1952 -1.2612 -0.3880
   69MOL   H56746943   0.493   6.132   2.799  1.1939  0.5469  1.3877
   69MOL   H56846944   0.485   6.353   2.654  0.5580 -1.1646 -1.6032
   69MOL   H56946945   0.660   6.352   2.669 -1.4573 -0.5309 -2.2633
   69MOL   H57046946   0.609   6.342   2.934 -1.5672 -0.4796  1.1900
   69MOL   H57146947   0.599   6.502   2.857 -0.2061 -0.3562 -0.7051
   69MOL   H57246948   0.360   6.306   2.864 -0.0881 -0.4558  0.0671
   69MOL   H57346949   0.361   6.473   2.811 -0.5995 -0.9041 -1.1825
   69MOL   H57446950   0.411   6.402   3.097 -1.9037 -0.0980  0.7886
   69MOL   H57546951   0.385   6.557   3.045  2.0542  0.3099 -0.5165
   69MOL   H57646952   0.197   6.486   3.161 -0.8003  0.3489  0.1060
   69MOL   H57746953   0.174   6.332   3.059 -0.1229 -0.7361 -0.1937
   69MOL   H57846954   0.017   6.492   3.003  0.9376 -2.7429 -0.0087
   69MOL   H57946955   0.126   6.457   2.869  0.0659 -2.0217  1.1527
   69MOL   N58046956   0.055   6.735   3.025 -0.2513 -0.1325  0.0555
   69MOL   C58146957   0.035   6.879   3.005  0.1977 -0.0875 -0.0243
   69MOL   C58246958   7.626   6.912   3.075  0.1684 -0.4122  0.3767
   69MOL   C58346959   7.548   7.037   3.025  0.6196 -0.0293  0.8549
   69MOL   C58446960   7.635   7.161   3.056 -0.1212  0.0316  0.3254
   69MOL   C58546961   7.551   7.295   3.031  0.1671  0.3379  0.4026
   69MOL   C58646962   7.631   7.414   3.092 -0.3101 -0.1421 -0.2993
   69MOL   C58746963   7.563   7.551   3.082 -0.0521 -0.1505 -0.0108
   69MOL   C58846964   7.545   7.617   2.943 -0.6614 -0.2341  0.3433
   69MOL   C58946965   7.662   7.705   2.886  0.8941  0.1064  0.4541
   69MOL   C59046966   7.654   0.015   2.735 -0.3961 -0.3531  0.1343
   69MOL   C59146967   7.553   0.125   2.707  0.1645  0.0433 -0.9814
   69MOL   O59246968   7.567   0.241   2.745 -0.3274  0.3510 -0.3700
   69MOL   H59346969   7.695   6.685   3.068 -0.2601 -0.8763 -0.8216
   69MOL   H59446970   0.105   6.943   3.060 -0.5673  1.4392 -0.8212
   69MOL   H59546971   0.023   6.901   2.899 -0.6311  0.1072  0.1068
   69MOL   H59646972   7.648   6.919   3.182  1.5368 -1.4027  0.1772
   69MOL   H59746973   7.564   6.822   3.067  1.2761 -1.1356 -0.0891
   69MOL   H59846974   7.547   7.022   2.917  0.2680 -0.6801  0.9426
   69MOL   H59946975   7.446   7.035   3.062  0.3910 -0.5215  0.2134
   69MOL   H60046976   0.013   7.150   3.001  0.1728 -1.3039  1.0755
   69MOL   H60146977   7.669   7.162   3.160  1.7452 -0.9207 -0.2432
   69MOL   H60246978   7.450   7.291   3.072  0.5203  1.1002  1.3754
   69MOL   H60346979   7.551   7.305   2.923 -1.1467 -0.4773  0.3173
   69MOL   H60446980   7.666   7.382   3.190 -1.4904 -1.2845 -0.2348
   69MOL   H60546981   0.011   7.406   3.042  0.5813 -1.4786  1.5864
   69MOL   H60646982   7.618   7.621   3.145  1.4602 -0.8572 -0.5271
   69MOL   H60746983   7.466   7.545   3.131  0.5082 -0.0769  1.1328
   69MOL   H60846984   7.535   7.544   2.862  1.1002 -1.2158  0.9759
   69MOL   H60946985   7.454   7.676   2.947 -1.1274 -0.8789 -0.4201
   69MOL   H61046986   0.044   7.657   2.888  0.9914  0.3238  0.9299
   69MOL   H61146987   7.661   0.083   2.942 -2.4780 -0.6342  1.7698
   69MOL   H61246988   7.631   7.648   2.668 -0.8623 -0.4127  0.3633
   69MOL   H61346989   0.036   0.052   2.705 -0.6202  1.5239  1.6211
   69MOL   N61446990   7.444   0.079   2.642 -0.3851  0.5495 -0.2720
   69MOL   C61546991   7.333   0.167   2.600 -0.1643  0.1626 -0.6629
   69MOL   C61646992   7.203   0.110   2.653  0.6731  0.5617  0.0536
   69MOL   C61746993   7.182   0.144   2.803  0.2702 -0.4437 -0.0790
   69MOL   C61846994   7.112   0.044   2.884  0.2222 -0.2601 -0.0574
   69MOL   C61946995   7.111   0.084   3.031  0.6056 -0.2970 -0.0775
   69MOL   C62046996   7.061   7.690   3.131 -0.3006  0.3195 -0.3759
   69MOL   C62146997   7.170   7.586   3.160  0.7734 -0.6245  1.0966
   69MOL   C62246998   7.128   7.476   3.257 -0.3354  0.2881 -0.2574
   69MOL   C62346999   7.242   7.374   3.288  0.1379 -0.1306  0.0220
   69MOL   C62447000   7.183   7.268   3.387  0.2053  0.4973  0.1690
   69MOL   C62547001   7.299   7.180   3.432  0.4524  0.7970 -0.4991
   69MOL   O62647002   7.393   7.150   3.355 -0.7167 -0.1476 -0.5435
   69MOL   H62747003   7.445   7.701   2.604 -1.0227 -0.1006  1.2692
   69MOL   H62847004   7.330   0.163   2.491  0.3480 -1.2730 -0.6341
   69MOL   H62947005   7.352   0.269   2.633 -1.5061  1.2692 -3.2233
   69MOL   H63047006   7.204   0.003   2.634 -1.0559  0.6588 -0.6940
   69MOL   H63147007   7.120   0.146   2.592  1.1551 -1.1813 -1.7052
   69MOL   H63247008   7.278   0.171   2.846  0.3509 -0.0121 -0.5234
   69MOL   H63347009   7.137   0.243   2.810 -0.1657 -0.7147  1.0475
   69MOL   H63447010   7.167   7.668   2.867 -0.9032 -0.5429 -2.3885
   69MOL   H63547011   7.008   0.037   2.851 -0.0934 -0.5563  0.9955
   69MOL   H63647012   7.047   0.170   3.053  0.5803 -0.2827 -0.2032
   69MOL   H63747013   7.207   0.108   3.076  0.3121  1.1453 -0.1926
   69MOL   H63847014   7.031   0.025   3.223 -2.4308  0.0150 -0.8706
   69MOL   H63947015   6.976   7.627   3.105  1.2620 -1.4133 -1.4138
   69MOL   H64047016   7.254   7.642   3.199 -0.5503  0.5359  2.2984
   69MOL   H64147017   7.204   7.545   3.064 -1.9282 -2.0868  0.7131
   69MOL   H64247018   7.082   7.520   3.346 -1.6098 -0.9221 -0.3088
   69MOL   H64347019   7.050   7.418   3.209  1.2957 -1.5064 -0.8222
   69MOL   H64447020   7.328   7.427   3.330  0.8185 -0.3935 -1.0235
   69MOL   H64547021   7.267   7.326   3.193 -2.2039 -1.1199 -0.1352
   69MOL   H64647022   7.095   7.214   3.356 -0.5233  1.4365  0.5625
   69MOL   H64747023   7.140   7.331   3.466 -3.7219 -1.5306 -0.2500
   69MOL   N64847024   7.294   7.122   3.550  0.3391 -0.0441 -0.2841
   69MOL   C64947025   7.401   7.042   3.599  0.3062  0.3378  0.0140
   69MOL   C65047026   7.497   7.132   3.673  0.4595 -0.6887 -0.1192
   69MOL   C65147027   7.442   7.236   3.773 -0.1264  0.4848  0.0912
   69MOL   C65247028   7.460   7.379   3.718 -0.7632 -0.9100 -0.3118
   69MOL   C65347029   7.339   7.463   3.757  0.6197 -0.3446 -0.3400
   69MOL   C65447030   7.350   7.608   3.717  0.2521  0.0266  1.0276
   69MOL   C65547031   7.339   7.642   3.561  0.0196  0.2538 -0.0628
   69MOL   C65647032   7.327   0.074   3.520  0.0606  0.1565 -0.2273
   69MOL   C65747033   7.177   0.104   3.494 -0.6218 -0.1167 -0.0630
   69MOL   C65847034   7.147   0.246   3.454  0.8658 -0.1186  0.3902
   69MOL   C65947035   7.111   0.337   3.569  0.1857  0.0951 -0.9619
   69MOL   O66047036   7.031   0.301   3.655  0.6405  0.1584 -0.0116
   69MOL   H66147037   7.215   7.139   3.610 -0.2839 -3.2387 -0.1145
   69MOL   H66247038   7.448   6.986   3.519 -2.5196 -2.2003  0.0404
   69MOL   H66347039   7.368   6.967   3.671 -0.9970 -0.3399 -1.2755
   69MOL   H66447040   7.572   7.177   3.608 -1.4721  0.6081 -1.5007
   69MOL   H66547041   7.559   7.066   3.733  1.8234 -2.9866 -3.9274
   69MOL   H66647042   7.340   7.208   3.797 -0.0317 -1.3546 -1.5581
   69MOL   H66747043   7.506   7.232   3.862  1.6895  0.4326 -1.1763
   69MOL   H66847044   7.458   7.375   3.609 -0.2434 -0.6863 -0.3353
   69MOL   H66947045   7.548   7.426   3.764 -1.1547 -0.3758 -0.1037
   69MOL   H67047046   7.336   7.469   3.866  1.0174  1.3878 -0.4148
   69MOL   H67147047   7.244   7.420   3.725 -0.0054  0.2789  0.6601
   69MOL   H67247048   7.265   7.654   3.767 -1.1303 -1.1069 -0.2322
   69MOL   H67347049   7.438   7.642   3.771  0.0794  0.5946  0.9553
   69MOL   H67447050   7.253   7.595   3.512  0.7502  0.8830 -2.0165
   69MOL   H67547051   7.423   7.597   3.509  0.2522  1.3303 -0.6289
   69MOL   H67647052   7.373   0.150   3.583  1.2178 -0.3237 -0.4692
   69MOL   H67747053   7.383   0.081   3.427  0.8850  0.9016  0.3136
   69MOL   H67847054   7.132   0.077   3.589 -0.1665  0.8331  0.4267
   69MOL   H67947055   7.145   0.036   3.415 -0.5042  0.7991 -0.9166
   69MOL   H68047056   7.061   0.249   3.387  1.5609  0.7480 -0.4847
   69MOL   H68147057   7.226   0.297   3.398 -0.6698  2.1405  0.1940
   69MOL   H68247058   7.172   0.427   3.574 -0.0278  0.1636  0.7159
   70MOL     N147059   6.027   5.051   7.593 -0.2397 -0.5228  0.0450
   70MOL     C247060   5.910   5.099   7.658 -0.7043 -0.5987  0.1564
   70MOL     C347061   5.784   5.087   7.580 -0.7766 -0.6550  0.3936
   70MOL     C447062   5.661   5.104   7.665  0.5721  0.6626  0.2691
   70MOL     C547063   5.536   5.109   7.587 -0.0031  0.9983  0.4646
   70MOL     C647064   5.416   5.158   7.673 -0.6064 -0.0184 -0.8937
   70MOL     C747065   5.280   5.156   7.618 -0.3353  0.1291 -0.5124
   70MOL     C847066   5.185   5.229   7.710 -0.0466  0.0699  0.2771
   70MOL     C947067   5.049   5.263   7.636  0.4393  0.1158  0.1969
   70MOL    C1047068   4.920   5.233   0.000  0.2839  0.4001  0.8456
   70MOL    C1147069   4.896   5.324   0.119  0.3549 -0.1318 -0.3980
   70MOL    C1247070   4.961   5.290   0.248  0.7043  0.1951 -0.0001
   70MOL    O1347071   4.910   5.206   0.315  0.3536 -0.7799  0.0875
   70MOL    H1447072   6.104   5.081   7.652  0.4842  0.7431 -1.4974
   70MOL    H1547073   5.924   5.205   7.675 -1.7246 -0.6673  1.5212
   70MOL    H1647074   5.896   5.061   0.044 -2.1815 -0.4666  0.0187
   70MOL    H1747075   5.772   4.987   7.538  1.9649 -0.0484 -1.9670
   70MOL    H1847076   5.782   5.150   7.491  0.7229 -1.8343 -0.4896
   70MOL    H1947077   5.659   5.031   0.030  3.3439  1.3615  1.0134
   70MOL    H2047078   5.660   5.198   0.005  1.7150  0.6913  0.2598
   70MOL    H2147079   5.522   5.011   7.541 -0.8151  0.9263  0.8468
   70MOL    H2247080   5.552   5.182   7.508 -1.1718  1.0695  0.2830
   70MOL    H2347081   5.433   5.263   7.696  0.0079  0.0060 -1.4337
   70MOL    H2447082   5.426   5.114   0.056 -1.1736  2.6746  0.4265
   70MOL    H2547083   5.285   5.211   7.524  0.5021  0.3963 -0.3154
   70MOL    H2647084   5.242   5.055   7.604  1.2188 -0.5099 -0.1697
   70MOL    H2747085   5.233   5.324   0.019  1.2580  0.0377 -2.0743
   70MOL    H2847086   5.164   5.178   0.088 -0.9259  0.0482  0.0748
   70MOL    H2947087   5.043   5.366   7.602  0.1488 -0.1294 -0.4960
   70MOL    H3047088   5.054   5.198   7.549 -1.2882  0.4695 -0.1852
   70MOL    H3147089   4.937   5.130   0.033 -0.0518 -0.0782 -0.4298
   70MOL    H3247090   4.829   5.239   7.656  1.1055 -2.4565 -0.7642
   70MOL    H3347091   4.789   5.340   0.129  0.4110  1.4648 -2.2116
   70MOL    H3447092   4.936   5.424   0.101  0.2041  0.3345  1.6659
   70MOL    H3547093   6.041   4.951   7.588  0.4422 -0.4120 -0.3200
   70MOL    N3647094   5.062   5.367   0.288  0.2402  0.3091  0.6184
   70MOL    C3747095   5.133   5.343   0.412 -0.1191  0.4913 -0.1541
   70MOL    C3847096   5.276   5.302   0.377  0.7594  0.1116  0.2647
   70MOL    C3947097   5.381   5.306   0.491  0.8808  0.5570 -0.3103
   70MOL    C4047098   5.520   5.279   0.445  0.4950  0.1089 -0.5079
   70MOL    C4147099   5.549   5.132   0.428  0.1329  0.5180  0.9374
   70MOL    C4247100   5.687   5.104   0.366  0.8559  0.1524  0.3302
   70MOL    C4347101   5.713   4.951   0.358 -0.7567 -0.2596  0.3100
   70MOL    C4447102   5.855   4.926   0.305  0.7202  0.4951 -0.6506
   70MOL    C4547103   5.868   4.777   0.269  0.4752 -0.6026  0.0611
   70MOL    C4647104   5.995   4.750   0.193 -0.3103  0.5013 -0.3482
   70MOL    C4747105   6.125   4.788   0.267 -0.3258 -0.7516  0.0414
   70MOL    O4847106   6.131   4.795   0.388  0.1017 -0.0049 -0.3891
   70MOL    H4947107   5.084   5.442   0.224 -0.4642  0.3690  0.4441
   70MOL    H5047108   5.135   5.440   0.461  2.5466  0.0151  0.7280
   70MOL    H5147109   5.093   5.272   0.484 -0.0094  0.9230  0.3357
   70MOL    H5247110   5.307   5.370   0.298 -2.6804  0.5687 -0.7752
   70MOL    H5347111   5.287   5.207   0.324  2.0948  0.1172  0.5194
   70MOL    H5447112   5.384   5.406   0.535  0.0383 -0.1311  1.3606
   70MOL    H5547113   5.340   5.232   0.559 -0.3361 -0.1147 -1.7376
   70MOL    H5647114   5.590   5.309   0.523  0.3130 -1.2620  0.1958
   70MOL    H5747115   5.538   5.335   0.353  0.3484 -0.3620 -0.8257
   70MOL    H5847116   5.499   5.077   0.349  3.5255 -0.7023 -0.4427
   70MOL    H5947117   5.542   5.078   0.523 -1.2269  0.5657  0.8642
   70MOL    H6047118   5.708   5.141   0.265  1.8470 -0.3414  0.3515
   70MOL    H6147119   5.761   5.149   0.432 -0.5199  3.5331 -0.2807
   70MOL    H6247120   5.638   4.916   0.287  0.5378  1.2160 -1.8240
   70MOL    H6347121   5.710   4.904   0.456  1.6484  0.7539  0.8990
   70MOL    H6447122   5.861   4.985   0.213 -0.8109  1.9116  0.1441
   70MOL    H6547123   5.935   4.965   0.368 -0.6686 -0.4324  1.7484
   70MOL    H6647124   5.779   4.742   0.216 -0.5897  1.2873  0.5815
   70MOL    H6747125   5.871   4.709   0.355  0.8747 -0.8302 -0.1323
   70MOL    H6847126   5.988   4.803   0.098  0.3078 -0.0699 -0.7222
   70MOL    H6947127   5.998   4.652   0.146  0.1668  0.0734  0.5660
   70MOL    N7047128   6.222   4.806   0.179 -0.2819 -0.2950 -0.2269
   70MOL    C7147129   6.362   4.845   0.213 -0.5248 -0.0289 -0.3169
   70MOL    C7247130   6.385   4.980   0.266 -0.3705 -0.6658 -0.2029
   70MOL    C7347131   6.306   5.104   0.197  0.0023  0.1289  0.6027
   70MOL    C7447132   6.355   5.149   0.060 -0.1597  0.1305 -0.3461
   70MOL    C7547133   6.341   5.304   0.032 -0.2021  0.1555  0.0327
   70MOL    C7647134   6.407   5.348   7.618 -0.3601  0.0569  0.3592
   70MOL    C7747135   6.346   5.290   7.488  0.1967 -0.3087 -0.2372
   70MOL    C7847136   6.410   5.326   7.351 -0.0985  0.6435  0.0782
   70MOL    C7947137   6.323   5.278   7.232 -0.0347  0.3311 -0.4518
   70MOL    C8047138   6.385   5.271   7.099  0.6226 -0.1956 -0.0599
   70MOL    C8147139   6.443   5.405   7.056  0.1348 -0.4883 -0.4928
   70MOL    O8247140   6.557   5.423   7.090  0.2668 -0.3283  0.6488
   70MOL    H8347141   6.205   4.776   0.084  1.7673  2.5818 -1.5757
   70MOL    H8447142   6.416   4.776   0.278  0.6645 -1.6116 -2.9090
   70MOL    H8547143   6.411   4.834   0.116 -0.9551 -2.0704 -0.3263
   70MOL    H8647144   6.492   4.998   0.275 -0.3525 -0.3676 -0.9212
   70MOL    H8747145   6.354   4.985   0.370 -0.1247 -0.2448 -0.1481
   70MOL    H8847146   6.198   5.087   0.202 -0.3227  1.7323 -0.4585
   70MOL    H8947147   6.301   5.189   0.266 -0.0538  2.2820 -1.9655
   70MOL    H9047148   6.305   5.089   7.700 -2.5062  0.3675  0.9618
   70MOL    H9147149   6.457   5.113   0.068 -0.2633 -0.1695 -0.3385
   70MOL    H9247150   6.395   5.367   0.104  0.1260  0.8687 -0.8264
   70MOL    H9347151   6.236   5.332   0.027 -0.4399 -0.5344  1.0589
   70MOL    H9447152   6.395   5.457   7.619 -1.2707 -0.0400  2.0956
   70MOL    H9547153   6.512   5.322   7.620 -0.3272  0.0765 -0.6565
   70MOL    H9647154   6.241   5.319   7.477 -0.0490 -1.0556  0.1202
   70MOL    H9747155   6.337   5.182   7.496 -2.5461 -0.0734  0.4234
   70MOL    H9847156   6.431   5.433   7.349 -0.4995  0.7199  0.0317
   70MOL    H9947157   6.509   5.279   7.348 -1.5054 -2.4589 -0.2671
   70MOL   H10047158   6.231   5.337   7.229  0.5436  1.4123  1.8915
   70MOL   H10147159   6.277   5.180   7.244  3.8808 -1.6182 -0.6337
   70MOL   H10247160   6.321   5.235   7.019 -0.5780  1.1541  0.2767
   70MOL   H10347161   6.467   5.199   7.101  0.0728 -0.8088  3.3933
   70MOL   N10447162   6.367   5.490   6.990 -0.6365  0.2797 -0.3776
   70MOL   C10547163   6.415   5.617   6.934  0.5962 -0.5840 -0.1278
   70MOL   C10647164   6.306   5.693   6.866 -0.1189  0.9209 -0.0779
   70MOL   C10747165   6.349   5.830   6.806 -0.0297 -0.7521  0.4341
   70MOL   C10847166   6.237   5.927   6.752  0.1563 -0.2298  0.3201
   70MOL   C10947167   6.302   6.053   6.689  0.9390  0.2788  0.2559
   70MOL   C11047168   6.208   6.166   6.634  0.3203 -0.7254  0.2304
   70MOL   C11147169   6.126   6.252   6.734  0.2228 -0.2414  0.1924
   70MOL   C11247170   6.222   6.348   6.810 -0.1875 -0.4139  0.0919
   70MOL   C11347171   6.163   6.461   6.898 -0.8433  0.1388  0.6158
   70MOL   C11447172   6.249   6.542   6.994 -0.0650  0.2779  0.3783
   70MOL   C11547173   6.364   6.629   6.940  0.7900 -0.1859  0.5075
   70MOL   O11647174   6.447   6.576   6.861 -0.2922 -0.2838 -0.1046
   70MOL   H11747175   6.273   5.459   6.969 -0.4234 -0.3627 -0.3882
   70MOL   H11847176   6.476   5.679   7.000 -0.2541  1.2291 -1.0041
   70MOL   H11947177   6.479   5.590   6.850  1.3952 -0.3680  0.4065
   70MOL   H12047178   6.230   5.720   6.940 -1.1164 -0.8500 -0.4340
   70MOL   H12147179   6.256   5.636   6.788 -0.6020  1.5242 -0.2122
   70MOL   H12247180   6.412   5.884   6.877  0.3381  2.4332 -2.1757
   70MOL   H12347181   6.428   5.814   6.733  0.2090  2.5889 -0.1128
   70MOL   H12447182   6.171   5.967   6.829 -2.3059 -0.3007 -1.7018
   70MOL   H12547183   6.170   5.876   6.683 -0.2115  0.8780 -0.1464
   70MOL   H12647184   6.358   6.021   6.601 -0.0632  1.2050 -0.7408
   70MOL   H12747185   6.377   6.106   6.748  0.2997  2.5374 -0.8926
   70MOL   H12847186   6.253   6.240   6.568 -0.8149 -0.1291  0.1259
   70MOL   H12947187   6.133   6.114   6.574  0.2136  0.1605 -0.4123
   70MOL   H13047188   6.076   6.202   6.817 -0.5673  0.7167  0.3126
   70MOL   H13147189   6.045   6.301   6.680  0.3644 -0.1577  0.0540
   70MOL   H13247190   6.307   6.304   6.862  1.2209  0.7245 -1.2054
   70MOL   H13347191   6.271   6.404   6.730 -0.4080  0.0322  0.2688
   70MOL   H13447192   6.084   6.413   6.956 -1.8201 -1.3371 -1.8620
   70MOL   H13547193   6.109   6.534   6.837 -0.5913 -0.2544 -0.0760
   70MOL   H13647194   6.285   6.482   7.078 -1.5712 -1.0501  0.0921
   70MOL   H13747195   6.189   6.617   7.046 -1.7668 -0.9873  0.2748
   70MOL   N13847196   6.369   6.749   6.993 -0.7030  0.1481 -0.1279
   70MOL   C13947197   6.481   6.843   6.985 -0.3883  0.2184  0.5069
   70MOL   C14047198   6.561   6.847   6.852  0.9488  0.0849  0.1695
   70MOL   C14147199   6.664   6.964   6.838  0.2920  0.9704  0.6611
   70MOL   C14247200   6.774   6.945   6.739  0.4965  0.0951  0.2173
   70MOL   C14347201   6.720   7.002   6.604 -0.1490  0.4790  0.1868
   70MOL   C14447202   6.816   6.988   6.487  0.1777  0.1646 -0.6296
   70MOL   C14547203   6.788   7.080   6.370 -0.3783  0.2195  0.2675
   70MOL   C14647204   6.643   7.060   6.324  0.7704 -0.1858 -0.1762
   70MOL   C14747205   6.624   7.097   6.177 -0.3628  0.0292 -0.2130
   70MOL   C14847206   6.484   7.059   6.120 -0.2045 -0.1003  0.0811
   70MOL   C14947207   6.371   7.155   6.167 -0.1024 -0.6278  0.0176
   70MOL   O15047208   6.381   7.275   6.154 -0.1614 -0.2768 -0.0503
   70MOL   H15147209   6.316   6.751   7.080  2.6246 -1.9109  2.0646
   70MOL   H15247210   6.436   6.942   6.993  1.5111  1.2529 -1.0414
   70MOL   H15347211   6.539   6.830   7.076 -1.4926  0.4938  1.2531
   70MOL   H15447212   6.496   6.855   6.765  1.0511  0.2774  0.1112
   70MOL   H15547213   6.615   6.753   6.836  0.4511  0.0140 -1.1059
   70MOL   H15647214   6.613   7.060   6.845 -1.1866  0.3401 -1.0089
   70MOL   H15747215   6.713   6.950   6.934  0.9738  0.6259  0.2656
   70MOL   H15847216   6.806   6.845   6.710  1.7138  1.0570 -1.9075
   70MOL   H15947217   6.863   6.999   6.771  0.3167 -0.6911  2.0711
   70MOL   H16047218   6.709   7.110   6.617  1.1785  0.5199  1.1045
   70MOL   H16147219   6.622   6.961   6.579 -0.9610  0.6258  2.9811
   70MOL   H16247220   6.914   7.015   6.524  0.5202  0.1824 -1.5272
   70MOL   H16347221   6.815   6.885   6.452 -1.7868  0.5725 -1.8788
   70MOL   H16447222   6.859   7.063   6.289  1.0539  0.8338  1.3879
   70MOL   H16547223   6.800   7.180   6.412 -2.0953 -0.8703  3.4935
   70MOL   H16647224   6.616   6.955   6.323  1.4998 -0.3778 -1.2599
   70MOL   H16747225   6.569   7.113   6.384  0.7821  0.2161 -0.5141
   70MOL   H16847226   6.713   7.064   6.123 -1.5729 -1.2550 -1.4738
   70MOL   H16947227   6.630   7.206   6.167 -2.5199  0.3153  1.3028
   70MOL   H17047228   6.462   6.952   6.125  0.3799 -0.2031  0.4721
   70MOL   H17147229   6.486   7.093   6.016 -0.0236  0.9341  0.4191
   70MOL   N17247230   6.266   7.094   6.225 -0.7854  0.4942 -0.3629
   70MOL   C17347231   6.143   7.153   6.283  0.3228  0.1668  0.1232
   70MOL   C17447232   6.025   7.128   6.197 -1.0323  0.0276 -0.1757
   70MOL   C17547233   5.897   7.193   6.259  0.1698  0.6678 -0.1911
   70MOL   C17647234   5.777   7.181   6.158 -0.0385  0.8198  0.1214
   70MOL   C17747235   5.768   7.292   6.049 -0.2409 -0.0445  0.2362
   70MOL   C17847236   5.641   7.282   5.965 -0.1264  0.4059 -0.4372
   70MOL   C17947237   5.630   7.389   5.860  0.5602  0.1976  0.0683
   70MOL   C18047238   5.498   7.383   5.773 -0.3915 -0.4459 -1.0332
   70MOL   C18147239   5.494   7.496   5.678  0.2107 -0.2978  0.3927
   70MOL   C18247240   5.364   7.498   5.600 -0.2019 -0.0755 -0.5052
   70MOL   C18347241   5.335   7.373   5.510  0.0073  0.5005  0.4590
   70MOL   O18447242   5.423   7.321   5.441  0.5108 -0.3569  0.3891
   70MOL   H18547243   6.277   6.993   6.227 -0.3216  0.5005 -1.8427
   70MOL   H18647244   6.126   7.131   6.389  1.2851 -0.0812  0.2298
   70MOL   H18747245   6.162   7.260   6.298  2.1032 -0.3348  1.6990
   70MOL   H18847246   5.998   7.023   6.186 -0.2131  0.0618 -2.8432
   70MOL   H18947247   6.039   7.167   6.096  0.6190  0.6629  0.2805
   70MOL   H19047248   5.877   7.146   6.355  0.4822  1.9659  0.5149
   70MOL   H19147249   5.914   7.298   6.280 -0.9192  1.0061 -0.9304
   70MOL   H19247250   5.691   7.179   6.224  0.9939 -0.2578  1.4542
   70MOL   H19347251   5.787   7.083   6.112  0.1772  0.6240  0.5810
   70MOL   H19447252   5.853   7.297   5.980 -0.1377  0.5986  0.4063
   70MOL   H19547253   5.771   7.392   6.093 -1.3561  0.3344 -0.5347
   70MOL   H19647254   5.633   7.180   5.925  0.1381  0.2726 -0.1468
   70MOL   H19747255   5.557   7.289   6.033 -2.9279  1.1343 -3.8331
   70MOL   H19847256   5.715   7.392   5.791 -0.8482  1.0880 -1.6616
   70MOL   H19947257   5.636   7.487   5.909 -2.3609 -0.7261  2.4176
   70MOL   H20047258   5.488   7.287   5.723  1.0309 -1.2657  0.2077
   70MOL   H20147259   5.417   7.381   5.846 -0.1215 -0.2441 -0.7279
   70MOL   H20247260   5.584   7.502   5.617  0.5034 -0.6692  0.7823
   70MOL   H20347261   5.490   7.590   5.732  0.4904 -0.6014  0.9532
   70MOL   H20447262   5.374   7.580   5.528 -1.5398  1.9956  1.5969
   70MOL   H20547263   5.288   7.529   5.671  0.7051 -1.3527  1.0636
   70MOL   N20647264   5.211   7.323   5.509  0.7854  0.2786  0.1301
   70MOL   C20747265   5.173   7.189   5.464  0.0707 -0.4255  0.2117
   70MOL   C20847266   5.161   7.073   5.566  0.5439 -0.6252 -0.1175
   70MOL   C20947267   5.274   7.077   5.668  0.3753  0.7527 -0.3230
   70MOL   C21047268   5.284   6.938   5.735  0.2252  0.4524  0.1713
   70MOL   C21147269   5.386   6.938   5.852  0.0512  0.2843 -0.3628
   70MOL   C21247270   5.420   6.792   5.892  0.4534 -0.1099  0.0856
   70MOL   C21347271   5.524   6.782   6.002 -0.0443  0.4475 -0.3036
   70MOL   C21447272   5.499   6.830   6.146  0.8824  0.4048 -0.3709
   70MOL   C21547273   5.619   6.815   6.245  0.7442 -0.8920 -0.3942
   70MOL   C21647274   5.660   6.670   6.268 -0.0818  0.1179 -0.0779
   70MOL   C21747275   5.745   6.642   6.391 -1.1666  0.2718 -0.2328
   70MOL   O21847276   5.866   6.633   6.384 -0.4868  0.1900  0.0111
   70MOL   H21947277   5.143   7.389   5.543  1.0384  0.0886  1.0199
   70MOL   H22047278   5.236   7.160   5.380  1.0854  0.5975  0.6159
   70MOL   H22147279   5.074   7.207   5.422  0.1503  1.0238  0.6173
   70MOL   H22247280   5.153   6.979   5.511  0.7036  1.3592 -3.6701
   70MOL   H22347281   5.081   7.086   5.639 -1.7467 -1.6593 -2.3554
   70MOL   H22447282   5.359   7.080   5.599 -1.2150 -0.3070 -2.4077
   70MOL   H22547283   5.283   7.153   5.745  2.8996  0.0115  0.1585
   70MOL   H22647284   5.334   6.868   5.668 -2.0993 -0.0316 -1.1353
   70MOL   H22747285   5.191   6.893   5.770  1.1604 -0.1749  1.9397
   70MOL   H22847286   5.347   6.994   5.937  1.3148  0.7469 -0.0660
   70MOL   H22947287   5.483   6.980   5.825 -0.3899  0.7739 -1.1696
   70MOL   H23047288   5.335   6.746   5.942  0.3053  0.0975  0.0229
   70MOL   H23147289   5.453   6.735   5.805  0.1974 -1.2202  0.7118
   70MOL   H23247290   5.608   6.844   5.971 -0.5175  0.6190 -1.2513
   70MOL   H23347291   5.558   6.678   6.004  1.9883  1.1153  0.9988
   70MOL   H23447292   5.453   6.929   6.153 -0.6728 -0.3500  0.3810
   70MOL   H23547293   5.420   6.764   6.182  1.3994  0.2672  0.5040
   70MOL   H23647294   5.586   6.854   6.341  2.0243  1.4138 -0.8558
   70MOL   H23747295   5.703   6.876   6.212 -2.6768  3.7671 -1.0027
   70MOL   H23847296   5.711   6.636   6.178 -2.5235 -0.9390 -1.1175
   70MOL   H23947297   5.565   6.616   6.268  0.5814 -1.0730  0.5349
   70MOL   N24047298   5.680   6.612   6.504 -0.2055 -0.9332 -0.5024
   70MOL   C24147299   5.733   6.558   6.621  0.5324 -0.0733 -0.2152
   70MOL   C24247300   5.664   6.413   6.640 -0.3190 -0.5925  0.1421
   70MOL   C24347301   5.697   6.363   6.782  0.5671 -0.1513 -0.2320
   70MOL   C24447302   5.598   6.250   6.830  0.2955 -0.4251 -0.0819
   70MOL   C24547303   5.622   6.115   6.763 -0.4589 -0.6513 -0.1953
   70MOL   C24647304   5.526   6.006   6.815  0.4926  0.4288  0.3672
   70MOL   C24747305   5.495   5.885   6.721 -0.4729 -0.1264 -0.2240
   70MOL   C24847306   5.437   5.767   6.799  0.2528 -0.0421 -0.6312
   70MOL   C24947307   5.399   5.648   6.704 -0.2304 -0.1825 -0.3138
   70MOL   C25047308   5.374   5.516   6.787  0.4199 -0.4240 -0.6957
   70MOL   C25147309   5.479   5.414   6.774 -0.3446  0.1962 -0.2805
   70MOL   O25247310   5.582   5.417   6.846  0.4439 -0.2316 -0.0441
   70MOL   H25347311   5.585   6.648   6.506 -0.4162 -1.5329  0.2938
   70MOL   H25447312   5.710   6.622   6.707  1.6283  2.6134 -1.8576
   70MOL   H25547313   5.842   6.552   6.627  0.4135 -1.7734  0.4891
   70MOL   H25647314   5.703   6.348   6.562  1.9106  1.1208 -0.2306
   70MOL   H25747315   5.558   6.429   6.624 -0.0766 -0.0258 -0.9215
   70MOL   H25847316   5.798   6.324   6.774 -0.2245 -2.0788 -0.9533
   70MOL   H25947317   5.691   6.434   6.866 -1.6970  1.0059 -1.3110
   70MOL   H26047318   5.495   6.277   6.806  0.4699 -1.1705 -1.7283
   70MOL   H26147319   5.601   6.240   6.938 -3.5982  0.6715  0.2238
   70MOL   H26247320   5.723   6.079   6.779  0.0606  0.3030 -1.3009
   70MOL   H26347321   5.616   6.128   6.655 -3.9308 -2.7684 -0.3678
   70MOL   H26447322   5.562   5.964   6.909  0.7837  0.4851  0.2822
   70MOL   H26547323   5.429   6.053   6.830 -0.1837 -0.4740 -1.0109
   70MOL   H26647324   5.586   5.860   6.666 -0.8618  0.0661 -0.9659
   70MOL   H26747325   5.431   5.926   6.643 -1.6837 -0.4122  0.6074
   70MOL   H26847326   5.496   5.731   6.883  1.3318 -0.1762 -1.4333
   70MOL   H26947327   5.343   5.799   6.843  0.2747 -0.3359 -0.3731
   70MOL   H27047328   5.480   5.627   6.634  0.5405  1.2607  0.1301
   70MOL   H27147329   5.309   5.665   6.646  1.1345 -2.5377 -3.2816
   70MOL   H27247330   5.272   5.486   6.761 -0.3121  0.5977  0.8851
   70MOL   H27347331   5.367   5.538   6.893 -0.3347  0.3995 -0.9060
   70MOL   N27447332   5.454   5.323   6.682 -0.0235 -0.3521 -0.4214
   70MOL   C27547333   5.553   5.235   6.621  0.3684  0.2858  0.2626
   70MOL   C27647334   5.503   5.094   6.601 -0.8507 -0.5299  0.6105
   70MOL   C27747335   5.596   5.023   6.497 -0.2773 -0.1866  0.9660
   70MOL   C27847336   5.574   5.066   6.350  0.4290  0.2613  0.3786
   70MOL   C27947337   5.679   4.999   6.256  0.4922  0.3439 -0.1338
   70MOL   C28047338   5.654   5.024   6.112 -0.2792  0.3544 -0.3112
   70MOL   C28147339   5.754   4.947   6.028 -0.1316  0.0644 -0.1093
   70MOL   C28247340   5.721   4.956   5.868 -0.1335 -0.0484 -0.2566
   70MOL   C28347341   5.823   4.892   5.777  0.4811 -0.3641 -0.1330
   70MOL   C28447342   5.764   4.886   5.636  0.7190  0.2874 -0.6599
   70MOL   C28547343   5.827   4.781   5.543 -0.4240 -0.2776 -0.5192
   70MOL   O28647344   5.950   4.773   5.550 -0.5693  0.0297  0.0113
   70MOL   H28747345   5.380   5.336   6.615  0.7664 -1.1177 -1.4485
   70MOL   H28847346   5.636   5.229   6.692 -1.4799 -1.9003  2.3128
   70MOL   H28947347   5.583   5.281   6.527  2.9460 -0.4895  0.6676
   70MOL   H29047348   5.399   5.097   6.570 -0.8458  0.6577  0.7002
   70MOL   H29147349   5.503   5.038   6.694  1.7172 -0.7500  0.5272
   70MOL   H29247350   5.701   5.031   6.524 -0.5401  1.5024  1.5267
   70MOL   H29347351   5.578   4.915   6.498  1.9162 -0.5654  1.3953
   70MOL   H29447352   5.589   5.173   6.336  1.8695 -0.2981 -2.9501
   70MOL   H29547353   5.473   5.035   6.326  1.2919 -2.4201  0.0234
   70MOL   H29647354   5.659   4.892   6.268 -0.9164  0.6213  0.0108
   70MOL   H29747355   5.783   5.028   6.274  0.5100 -0.2638  0.7543
   70MOL   H29847356   5.557   4.986   6.078 -0.6409  1.5312 -0.6464
   70MOL   H29947357   5.658   5.133   6.101 -1.7712  0.5807  1.1441
   70MOL   H30047358   5.752   4.842   6.058 -1.6341  0.1939  0.2708
   70MOL   H30147359   5.855   4.982   6.046  1.0465 -1.2937 -3.5887
   70MOL   H30247360   5.619   4.919   5.859 -0.2909  0.2318  0.3051
   70MOL   H30347361   5.707   5.062   5.847 -0.7398  0.3717  2.1041
   70MOL   H30447362   5.839   4.791   5.814 -0.7293 -1.3261 -2.1381
   70MOL   H30547363   5.906   4.962   5.788 -1.6565  2.0713  0.9962
   70MOL   H30647364   5.776   4.974   5.573 -0.1377 -0.7738 -2.3463
   70MOL   H30747365   5.656   4.875   5.642  0.8526 -0.5163  0.4851
   70MOL   N30847366   5.750   4.697   5.473  0.6906  0.4624  0.0475
   70MOL   C30947367   5.783   4.590   5.387 -0.2522 -0.6041  0.3668
   70MOL   C31047368   5.762   4.456   5.461  0.1528  0.0673 -0.2455
   70MOL   C31147369   5.797   4.330   5.390  0.6829  0.2866 -0.0877
   70MOL   C31247370   5.778   4.211   5.493  0.3254  0.1882 -0.0651
   70MOL   C31347371   5.828   4.070   5.449  0.4899  0.2256 -0.7139
   70MOL   C31447372   5.781   3.954   5.542 -0.9829 -0.2348  0.2283
   70MOL   C31547373   5.832   3.820   5.482  0.0221 -0.2432  0.4515
   70MOL   C31647374   5.819   3.699   5.583 -0.2377  0.0364 -0.2248
   70MOL   C31747375   5.842   3.558   5.517 -0.4068 -0.5179 -0.4307
   70MOL   C31847376   5.869   3.444   5.612 -0.8287 -0.0548 -0.0858
   70MOL   C31947377   6.017   3.447   5.668 -0.2657  0.3421  0.1213
   70MOL   O32047378   6.108   3.424   5.591 -0.4363  0.0458 -0.6316
   70MOL   H32147379   5.652   4.721   5.477  0.7570  0.8910 -0.8743
   70MOL   H32247380   5.888   4.592   5.356  0.0477 -0.4266  1.3974
   70MOL   H32347381   5.729   4.586   5.292  0.8791 -3.0457 -0.2254
   70MOL   H32447382   5.655   4.456   5.480  0.3289  3.2731  1.2230
   70MOL   H32547383   5.811   4.464   5.558 -0.6032  0.2563  0.1196
   70MOL   H32647384   5.731   4.330   5.303 -1.9076  1.7247  1.7880
   70MOL   H32747385   5.900   4.332   5.357 -0.0107  2.4536 -2.3366
   70MOL   H32847386   5.669   4.213   5.499  0.3116 -3.0130  1.5933
   70MOL   H32947387   5.831   4.242   5.583 -0.0605  0.8960 -0.0732
   70MOL   H33047388   5.937   4.073   5.452  0.4423  1.0676  1.5821
   70MOL   H33147389   5.793   4.072   5.346  0.7165  2.1458 -0.7836
   70MOL   H33247390   5.822   3.975   5.641  1.1614 -0.2886 -0.6327
   70MOL   H33347391   5.673   3.946   5.553 -1.2334  2.0754 -0.3063
   70MOL   H33447392   5.939   3.823   5.461 -0.2539  2.5449 -0.6822
   70MOL   H33547393   5.772   3.818   5.392  1.8787 -0.1101 -0.8100
   70MOL   H33647394   5.889   3.714   5.666 -0.0554 -0.4991 -0.2761
   70MOL   H33747395   5.717   3.694   5.622 -0.3196  0.9179 -0.3176
   70MOL   H33847396   5.929   3.566   5.452  0.1272  0.5365  0.3945
   70MOL   H33947397   5.756   3.529   5.456 -0.6881 -0.5828 -0.0021
   70MOL   H34047398   5.841   3.345   5.577 -0.2212  0.1322 -1.1219
   70MOL   H34147399   5.803   3.459   5.698 -2.3025  0.2823 -1.2424
   70MOL   N34247400   6.033   3.472   5.795 -0.2021  0.0743  0.1455
   70MOL   C34347401   6.161   3.461   5.866 -0.4301 -0.1949 -0.2973
   70MOL   C34447402   6.159   3.433   6.015  0.2402 -0.5512  0.8194
   70MOL   C34547403   6.103   3.554   6.094 -0.6843  0.0195  0.3811
   70MOL   C34647404   6.100   3.526   6.242  0.1824 -0.7923 -0.5562
   70MOL   C34747405   6.038   3.647   6.321  0.2934  0.0940 -0.3027
   70MOL   C34847406   6.121   3.775   6.343  0.2554 -0.1279 -0.0494
   70MOL   C34947407   6.063   3.866   6.453  0.7159  0.1006  0.1811
   70MOL   C35047408   6.145   3.990   6.455  0.1820 -0.6177 -0.2738
   70MOL   C35147409   6.094   4.095   6.555  0.4790  0.6244 -0.0276
   70MOL   C35247410   6.179   4.222   6.535  0.0595 -0.5645  0.5813
   70MOL   C35347411   6.158   4.319   6.645  0.1619  0.0169  0.0339
   70MOL   O35447412   6.054   4.319   6.715 -0.1398  0.1396 -0.1927
   70MOL   H35547413   5.948   3.483   5.848 -1.5689 -1.4402 -1.6713
   70MOL   H35647414   6.238   3.392   5.831  1.3201  1.0999  0.9425
   70MOL   H35747415   6.215   3.555   5.854  1.1278 -1.1386 -0.8772
   70MOL   H35847416   6.263   3.415   6.040  0.6936 -0.0577 -0.6628
   70MOL   H35947417   6.098   3.342   6.023 -2.5584  1.3683  1.9767
   70MOL   H36047418   6.169   3.640   6.089  0.1398 -0.5815  0.7993
   70MOL   H36147419   6.009   3.589   6.051 -0.0104 -1.9580 -2.9097
   70MOL   H36247420   6.191   3.481   6.281  0.1998  0.8543  1.4141
   70MOL   H36347421   6.027   3.447   6.257 -0.1297 -0.3773  0.1773
   70MOL   H36447422   6.018   3.601   6.418 -0.1934  1.4138  0.2319
   70MOL   H36547423   5.936   3.668   6.288  0.0325  0.7729  0.9195
   70MOL   H36647424   6.222   3.749   6.375  0.7910 -1.3328 -2.5866
   70MOL   H36747425   6.130   3.830   6.250 -1.0100  0.3171  0.0877
   70MOL   H36847426   6.058   3.817   6.551  0.6191 -0.6998 -0.2252
   70MOL   H36947427   5.961   3.898   6.434  1.0015  0.5933 -0.5298
   70MOL   H37047428   6.244   3.965   6.494 -0.7161 -1.8383  1.2468
   70MOL   H37147429   6.161   4.033   6.356  4.5317  0.0831  0.6243
   70MOL   H37247430   6.111   4.062   6.658 -0.2968 -1.1542 -0.4468
   70MOL   H37347431   5.989   4.122   6.552  0.6465  1.4522  1.1649
   70MOL   H37447432   6.149   4.273   6.443  1.5875 -0.2745  0.2286
   70MOL   H37547433   6.285   4.198   6.534  0.2343  0.1686  1.1812
   70MOL   N37647434   6.259   4.405   6.671 -0.4345  0.3822 -0.3451
   70MOL   C37747435   6.264   4.501   6.781 -0.4318 -0.1116 -0.1320
   70MOL   C37847436   6.369   4.471   6.885 -0.3831 -0.1802  0.2437
   70MOL   C37947437   6.417   4.594   6.948  0.1728 -0.4085 -0.0061
   70MOL   C38047438   6.486   4.585   7.091  0.2346  0.1214  0.1855
   70MOL   C38147439   6.537   4.723   7.143 -1.0139 -0.3692 -0.6746
   70MOL   C38247440   6.589   4.723   7.290 -0.0786  0.1383 -0.2544
   70MOL   C38347441   6.641   4.851   7.339 -0.2140  0.2903 -0.6060
   70MOL   C38447442   6.530   4.932   7.403  0.4168 -0.8053 -0.4364
   70MOL   C38547443   6.417   4.864   7.485 -0.2186  0.0017 -0.4875
   70MOL   C38647444   6.277   4.844   7.413 -0.8039 -0.8865 -0.4852
   70MOL   C38747445   6.184   4.752   7.493 -0.6757 -0.2841 -0.3821
   70MOL   O38847446   6.176   4.770   7.616  0.3675 -0.3780  0.0506
   70MOL   H38947447   6.351   4.399   6.629 -0.0689  0.8851  0.3694
   70MOL   H39047448   6.285   4.601   6.742 -1.5767 -0.3246 -1.3340
   70MOL   H39147449   6.163   4.513   6.820  0.2219  2.3303  0.9222
   70MOL   H39247450   6.455   4.417   6.846  0.5721  0.5283  1.3585
   70MOL   H39347451   6.329   4.399   6.957  0.6912 -0.8645  0.1645
   70MOL   H39447452   6.493   4.630   6.879  0.8235 -0.4828  0.6573
   70MOL   H39547453   6.341   4.671   6.958  1.5290  0.8214  1.2019
   70MOL   H39647454   6.575   4.522   7.088 -0.3965 -0.7451 -0.5200
   70MOL   H39747455   6.411   4.553   7.163  2.2305 -1.7275  1.5416
   70MOL   H39847456   6.468   4.806   7.127 -3.0507 -1.9268 -0.2955
   70MOL   H39947457   6.621   4.752   7.080 -0.5782 -1.6506 -0.7123
   70MOL   H40047458   6.507   4.679   7.347 -1.0734  2.1743 -0.0495
   70MOL   H40147459   6.680   4.664   7.288  0.3441  0.7631  0.3803
   70MOL   H40247460   6.698   4.918   7.274  1.0440 -0.3577 -0.1989
   70MOL   H40347461   6.712   4.831   7.420  0.5673  0.4553 -1.2467
   70MOL   H40447462   6.576   4.983   7.488  0.6116 -2.0302  0.2059
   70MOL   H40547463   6.485   5.002   7.333 -3.8041  0.3858  3.2151
   70MOL   H40647464   6.394   4.916   7.577  0.7677  1.3262 -0.9827
   70MOL   H40747465   6.455   4.771   7.528  1.5861  0.8802 -0.1771
   70MOL   H40847466   6.308   4.790   7.323 -1.5832 -2.1296 -0.0268
   70MOL   H40947467   6.215   4.928   7.380  1.7386  1.2740  0.0315
   70MOL   N41047468   6.118   4.659   7.425 -0.1427  0.0315 -0.4609
   70MOL   C41147469   6.023   4.568   7.480 -0.1405  0.0514 -0.7808
   70MOL   C41247470   5.896   4.653   7.506  0.4541 -0.1600  0.3137
   70MOL   C41347471   5.781   4.587   7.603  0.0126  0.6192 -0.6406
   70MOL   C41447472   5.660   4.683   7.617 -0.2109  0.3365  0.0723
   70MOL   C41547473   5.562   4.636   7.714  0.0409 -0.5860 -0.5408
   70MOL   C41647474   5.468   4.748   0.050 -0.0606  0.0242  0.4862
   70MOL   C41747475   5.379   4.705   0.165  0.1555 -0.5061 -0.4475
   70MOL   C41847476   5.291   4.816   0.216 -0.3078 -0.6940  0.4006
   70MOL   C41947477   5.194   4.770   0.335 -0.5560 -0.0974 -0.0628
   70MOL   C42047478   5.091   4.883   0.359  0.2797  0.4137 -0.1144
   70MOL   C42147479   4.949   4.844   0.409  0.4965 -0.5362 -0.0609
   70MOL   O42247480   4.936   4.743   0.480 -0.2641 -0.1090  0.4182
   70MOL   H42347481   6.144   4.655   7.327  2.1179 -0.1942  0.1303
   70MOL   H42447482   6.007   4.489   7.406 -0.3923 -0.4353 -0.2087
   70MOL   H42547483   6.063   4.530   7.574 -0.6980  0.4126 -0.3965
   70MOL   H42647484   5.851   4.668   7.408  1.8834 -1.8242 -0.6440
   70MOL   H42747485   5.909   4.752   7.548  1.6167 -1.1570  2.4049
   70MOL   H42847486   5.737   4.499   7.555 -1.0627  0.6205  0.3402
   70MOL   H42947487   5.824   4.547   7.695 -3.4168 -2.0132 -0.0828
   70MOL   H43047488   5.623   4.709   7.518  1.6748 -0.1151 -0.7795
   70MOL   H43147489   5.715   4.772   7.648 -0.0524 -0.0920  1.0352
   70MOL   H43247490   5.617   4.592   0.081  3.3906  4.2884  0.0726
   70MOL   H43347491   5.495   4.570   7.659  2.4013 -1.4707 -2.4186
   70MOL   H43447492   5.517   4.842   0.078  0.2733 -0.6090  2.0850
   70MOL   H43547493   5.401   4.777   7.685  0.3678  1.6725  0.7007
   70MOL   H43647494   5.438   4.673   0.251 -1.7402 -1.2400  0.6288
   70MOL   H43747495   5.312   4.624   0.134  0.3871 -0.0552 -2.1651
   70MOL   H43847496   5.356   4.898   0.247  1.4664 -1.6458 -0.7006
   70MOL   H43947497   5.228   4.843   0.131  1.3979  0.4452 -0.5349
   70MOL   H44047498   5.252   4.748   0.425 -1.4786  2.0349  1.0753
   70MOL   H44147499   5.142   4.677   0.310 -1.8293 -0.0823  2.2917
   70MOL   H44247500   5.068   4.937   0.267  2.6622  0.3091 -0.8172
   70MOL   H44347501   5.132   4.960   0.424 -1.1517  2.1110 -1.1630
   70MOL   N44447502   4.850   4.926   0.383  0.1646  0.1405  0.5971
   70MOL   C44547503   4.711   4.895   0.409  0.1019 -0.0701 -0.6099
   70MOL   C44647504   4.618   5.014   0.392 -0.0536 -0.2884  0.1828
   70MOL   C44747505   4.473   4.993   0.428  0.7150 -0.6538 -0.6651
   70MOL   C44847506   4.374   5.106   0.409  0.5183  0.2970 -0.0676
   70MOL   C44947507   4.399   5.223   0.499  0.3328 -0.4513 -0.5727
   70MOL   C45047508   4.324   5.355   0.461  0.4197  0.8656  0.5403
   70MOL   C45147509   4.321   5.448   0.575 -0.2374 -0.2516 -0.4075
   70MOL   C45247510   4.253   5.582   0.540  0.2176  1.4673 -0.2042
   70MOL   C45347511   4.271   5.695   0.641  0.2228  0.1050  0.0719
   70MOL   C45447512   4.220   5.832   0.592 -0.0785  0.4660 -0.4944
   70MOL   C45547513   4.304   5.906   0.487  0.1700  0.1400 -0.7244
   70MOL   O45647514   4.422   5.917   0.505  0.1258 -0.0958 -0.0839
   70MOL   H45747515   4.880   5.017   0.351 -0.1295  0.2754  0.7021
   70MOL   H45847516   4.677   4.816   0.342 -1.5885  0.8433 -0.8410
   70MOL   H45947517   4.703   4.859   0.512  3.0128 -2.4116 -1.1085
   70MOL   H46047518   4.623   5.039   0.286  0.2679 -0.4457  0.1607
   70MOL   H46147519   4.656   5.097   0.451  1.2396  0.1401 -1.2371
   70MOL   H46247520   4.433   4.915   0.364 -1.2064 -0.4042  0.1955
   70MOL   H46347521   4.463   4.955   0.529 -0.1741 -0.0083 -0.5030
   70MOL   H46447522   4.275   5.063   0.422 -0.9929  1.4565 -5.9567
   70MOL   H46547523   4.383   5.132   0.303 -1.0781  2.8300  0.3839
   70MOL   H46647524   4.505   5.247   0.497  0.1674  0.2810 -0.5847
   70MOL   H46747525   4.366   5.194   0.599  1.3334  3.6088  1.0229
   70MOL   H46847526   4.374   5.397   0.374  0.1050 -0.9863 -0.5599
   70MOL   H46947527   4.220   5.346   0.429  1.0484  2.3237 -2.0815
   70MOL   H47047528   4.417   5.476   0.616 -0.8162  0.9703  0.1269
   70MOL   H47147529   4.253   5.409   0.650  1.0139 -0.8780  0.4143
   70MOL   H47247530   4.295   5.613   0.445  1.9342 -0.3990 -0.0882
   70MOL   H47347531   4.149   5.563   0.512  0.6368  0.0174 -0.8144
   70MOL   H47447532   4.376   5.709   0.666  0.6134  0.1682 -1.5239
   70MOL   H47547533   4.221   5.673   0.735 -0.4340 -3.8414 -1.1105
   70MOL   H47647534   4.196   5.893   0.679  1.3972 -2.4983  2.0983
   70MOL   H47747535   4.124   5.826   0.540 -1.1655  1.0643  1.4123
   70MOL   N47847536   4.241   5.963   0.380  0.3121  1.0175  0.3217
   70MOL   C47947537   4.305   6.026   0.268  0.1522  0.5583  0.2095
   70MOL   C48047538   4.204   6.039   0.150 -0.2786 -0.2201 -0.3942
   70MOL   C48147539   4.257   6.140   0.044 -0.0421  0.4422 -0.1861
   70MOL   C48247540   4.256   6.281   0.092 -0.6134  0.3025  0.1437
   70MOL   C48347541   4.231   6.376   7.692 -0.0909  0.0021 -0.3118
   70MOL   C48447542   4.290   6.526   7.701  0.4794 -0.6985  0.1401
   70MOL   C48547543   4.218   6.627   0.072 -0.6306 -1.0629  0.1854
   70MOL   C48647544   4.273   6.768   0.053 -0.1441 -0.4506  0.1022
   70MOL   C48747545   4.162   6.861   0.011  0.5170  0.7332  0.4840
   70MOL   C48847546   4.214   7.001   0.001  0.2741  0.4638  0.1587
   70MOL   C48947547   4.136   7.090   7.620 -0.1953  0.2954 -0.3648
   70MOL   O49047548   4.050   7.040   7.541  0.0164 -0.3755  0.2993
   70MOL   H49147549   4.142   5.940   0.374  0.2185  0.3149  3.5410
   70MOL   H49247550   4.335   6.128   0.293  2.9485 -0.1939  0.0141
   70MOL   H49347551   4.390   5.970   0.230  1.0207  2.1550 -0.2378
   70MOL   H49447552   4.113   6.072   0.199  1.3990  0.5740  2.2890
   70MOL   H49547553   4.191   5.938   0.112 -1.7109 -0.1183 -0.2053
   70MOL   H49647554   4.357   6.111   0.012 -0.4617 -0.1344 -0.9695
   70MOL   H49747555   4.198   6.124   7.669 -0.9112 -0.8192  0.5921
   70MOL   H49847556   4.356   6.306   0.128  0.3551 -0.7105 -1.7383
   70MOL   H49947557   4.182   6.303   0.168 -1.4975  0.7890 -0.8415
   70MOL   H50047558   4.123   6.383   7.679 -0.2057  0.1903  0.6414
   70MOL   H50147559   4.257   6.331   7.597  1.3646  0.8525 -0.3253
   70MOL   H50247560   4.394   6.517   0.013  1.3860 -0.1798 -2.8579
   70MOL   H50347561   4.283   6.571   7.602 -0.6621  2.0046  1.4002
   70MOL   H50447562   4.234   6.612   0.179 -0.8054 -2.1769  0.0611
   70MOL   H50547563   4.110   6.618   0.061 -0.6581 -1.3278  0.6528
   70MOL   H50647564   4.329   6.813   0.135 -1.1796  0.3947  0.3579
   70MOL   H50747565   4.349   6.772   7.690 -1.0069  0.1271 -0.7287
   70MOL   H50847566   4.091   6.845   0.092  0.0933 -0.6447 -0.1537
   70MOL   H50947567   4.113   6.831   7.635 -0.8506 -2.6488  2.2550
   70MOL   H51047568   4.312   6.988   7.671  0.6044  0.2830  0.9259
   70MOL   H51147569   4.223   7.047   0.099  0.4870 -1.9278  1.2851
   70MOL   N51247570   4.141   7.220   7.631 -0.2553  0.1507  0.1273
   70MOL   C51347571   4.043   7.316   7.574 -0.2465  0.6978  0.2776
   70MOL   C51447572   3.929   7.337   7.670  0.9047 -0.4037  0.0555
   70MOL   C51547573   3.820   7.421   7.609  0.0959  0.5354 -0.2801
   70MOL   C51647574   3.701   7.453   7.695  0.3535  0.2530  0.2577
   70MOL   C51747575   3.579   7.529   7.622  0.4365  0.2518 -0.4937
   70MOL   C51847576   3.447   7.533   7.700 -0.1998  1.1341  0.8457
   70MOL   C51947577   3.360   7.412   7.665  0.2374 -0.4232  0.0118
   70MOL   C52047578   3.211   7.471   7.668 -0.2909  0.4558  0.5340
   70MOL   C52147579   3.115   7.371   7.611 -0.1331  0.3592 -0.4925
   70MOL   C52247580   2.972   7.424   7.619  0.3393 -0.1368 -0.2651
   70MOL   C52347581   2.861   7.320   7.600  0.1421 -0.2096 -0.0801
   70MOL   O52447582   2.898   7.202   7.578  0.5964  0.4704  0.4570
   70MOL   H52547583   4.211   7.263   7.691 -2.0500  2.8755  0.3407
   70MOL   H52647584   4.107   7.402   7.558 -1.6912  1.9377  1.0208
   70MOL   H52747585   4.010   7.284   7.475  1.2770  2.0593 -0.6951
   70MOL   H52847586   3.958   7.390   0.045 -1.7279  1.6573 -0.2178
   70MOL   H52947587   3.888   7.241   7.702  0.0391 -0.6500 -1.7005
   70MOL   H53047588   3.874   7.510   7.576 -0.5812  0.9872 -0.1815
   70MOL   H53147589   3.794   7.362   7.522 -3.5154 -0.1683  1.1558
   70MOL   H53247590   3.730   7.525   0.056  2.2027 -2.9096  2.6564
   70MOL   H53347591   3.666   7.360   0.024  1.7059 -0.2863  0.2074
   70MOL   H53447592   3.550   7.495   7.522  1.2260  1.9444 -1.3193
   70MOL   H53547593   3.610   7.632   7.606 -1.4344  1.3540  2.5310
   70MOL   H53647594   3.467   7.546   0.091 -1.2390 -0.0262  1.1944
   70MOL   H53747595   3.394   7.623   7.667 -0.9831  1.0460  1.8492
   70MOL   H53847596   3.384   7.325   0.010 -1.4582 -2.0584 -1.5802
   70MOL   H53947597   3.385   7.377   7.564 -1.4028  0.0340 -0.5696
   70MOL   H54047598   3.181   7.496   0.054 -1.2850  0.2205  0.3027
   70MOL   H54147599   3.208   7.564   7.613  3.0389 -0.7431 -1.8694
   70MOL   H54247600   3.128   7.270   7.652  0.3140  0.9008  0.7240
   70MOL   H54347601   3.140   7.379   7.506 -0.0077  0.5821 -0.4443
   70MOL   H54447602   2.950   7.501   7.546 -0.4506 -0.6040 -0.5241
   70MOL   H54547603   2.957   7.467   0.002  0.4626  2.0377 -1.1738
   70MOL   N54647604   2.733   7.364   7.598 -0.1448 -0.4214 -0.2658
   70MOL   C54747605   2.686   7.493   7.654  0.4646 -0.3243 -0.7546
   70MOL   C54847606   2.606   7.467   0.068  0.4003 -0.1395 -0.0976
   70MOL   C54947607   2.552   7.590   0.129  0.2935  0.2653  0.2087
   70MOL   C55047608   2.484   7.566   0.263  0.6274  0.0207 -0.1414
   70MOL   C55147609   2.367   7.466   0.270  0.0838  0.1559  0.4062
   70MOL   C55247610   2.313   7.454   0.413  0.4391 -0.1229  0.3885
   70MOL   C55347611   2.187   7.357   0.428  0.0764 -0.5661 -0.1759
   70MOL   C55447612   2.106   7.364   0.556  0.5128 -0.3145 -0.2703
   70MOL   C55547613   1.966   7.308   0.548  0.5255  0.4073  0.1192
   70MOL   C55647614   1.884   7.329   0.680 -1.1847 -0.0847  0.4680
   70MOL   C55747615   1.840   7.474   0.721  0.1203  0.0338 -0.1896
   70MOL   O55847616   1.814   7.556   0.635  0.6903  0.7346  0.1401
   70MOL   H55947617   2.662   7.297   7.572 -0.6508 -0.4429  1.1374
   70MOL   H56047618   2.771   7.554   7.684  0.5216 -0.5186 -0.5195
   70MOL   H56147619   2.629   7.546   7.579  1.7474  0.3634 -1.2517
   70MOL   H56247620   2.675   7.428   0.143 -1.4252  1.5216  2.5385
   70MOL   H56347621   2.518   7.406   0.051  1.1773 -1.3621  0.1916
   70MOL   H56447622   2.628   7.668   0.126 -0.0331  0.5911  0.3214
   70MOL   H56547623   2.476   7.640   0.068 -1.3115 -1.1197  1.0324
   70MOL   H56647624   2.453   7.664   0.299  2.2831  0.7150 -0.5444
   70MOL   H56747625   2.557   7.526   0.334 -0.7160 -0.7799  0.8137
   70MOL   H56847626   2.405   7.369   0.240  0.1651  0.5871 -0.9568
   70MOL   H56947627   2.287   7.495   0.202  1.0609 -0.3976 -1.0053
   70MOL   H57047628   2.395   7.405   0.465  0.5258 -0.9362 -0.4892
   70MOL   H57147629   2.288   7.544   0.469 -1.2792 -0.4799  0.2276
   70MOL   H57247630   2.224   7.255   0.418  1.3055 -0.1537  0.0120
   70MOL   H57347631   2.123   7.366   0.340 -1.2741 -1.6454  0.6773
   70MOL   H57447632   2.165   7.322   0.638 -0.5048  1.6205  1.5144
   70MOL   H57547633   2.101   7.472   0.569 -0.4524 -0.3414 -0.4014
   70MOL   H57647634   1.977   7.200   0.536 -0.2184  0.3215  0.1343
   70MOL   H57747635   1.909   7.362   0.472  1.1989  0.1024 -0.6038
   70MOL   H57847636   1.942   7.279   0.758  2.4975  2.3111 -0.5870
   70MOL   H57947637   1.793   7.271   0.666 -2.5009  2.1605 -0.6569
   70MOL   N58047638   1.830   7.489   0.851 -0.0786 -0.3544 -0.1471
   70MOL   C58147639   1.800   7.614   0.916  0.6657  0.3121 -0.0498
   70MOL   C58247640   1.800   7.600   1.070 -0.4468 -0.2873  0.7227
   70MOL   C58347641   1.786   0.014   1.149  1.0607 -0.6141  0.0060
   70MOL   C58447642   1.921   0.079   1.164  0.3796  0.1208  0.6633
   70MOL   C58547643   1.924   0.203   1.258  0.8386 -0.7128  0.1465
   70MOL   C58647644   2.073   0.244   1.273 -0.3226 -0.0058  0.2224
   70MOL   C58747645   2.099   0.345   1.379  0.4710 -0.6557 -0.5758
   70MOL   C58847646   2.012   0.478   1.371 -0.5530  0.7008 -0.0665
   70MOL   C58947647   2.069   0.590   1.454  0.0554  0.1994  0.3972
   70MOL   C59047648   2.088   0.553   1.599  0.0698 -0.3792  0.7787
   70MOL   C59147649   1.956   0.509   1.672  0.2363  0.1162 -0.2100
   70MOL   O59247650   1.886   0.599   1.716  0.0220 -0.0366  0.6374
   70MOL   H59347651   1.860   7.416   0.914 -1.5196  0.6132  1.7246
   70MOL   H59447652   1.870   7.688   0.878  1.9857 -0.7453  0.2752
   70MOL   H59547653   1.706   7.643   0.868  0.2124  1.3431  1.4333
   70MOL   H59647654   1.891   7.549   1.102  1.2330  1.4965 -1.0742
   70MOL   H59747655   1.728   7.523   1.098 -0.0966 -0.4781  1.0923
   70MOL   H59847656   1.711   0.084   1.113  0.3283 -0.5419  1.6194
   70MOL   H59947657   1.752   7.699   1.248 -2.8480 -1.9355 -1.6441
   70MOL   H60047658   1.948   0.120   1.066 -2.4087  0.0974 -0.1452
   70MOL   H60147659   1.996   0.004   1.189  0.9876 -0.4367 -2.5099
   70MOL   H60247660   1.881   0.177   1.355  0.5715 -3.3062 -0.6268
   70MOL   H60347661   1.863   0.287   1.224  3.2952  0.7097 -0.8138
   70MOL   H60447662   2.121   0.154   1.312 -0.2784  0.2351  0.7248
   70MOL   H60547663   2.109   0.268   1.173  1.5769  0.0887  0.9069
   70MOL   H60647664   2.205   0.369   1.387  0.4870 -1.0258  0.3889
   70MOL   H60747665   2.067   0.304   1.475  0.8568 -0.2196 -0.2539
   70MOL   H60847666   2.015   0.513   1.268  0.0344 -1.5932 -0.8470
   70MOL   H60947667   1.907   0.455   1.388 -0.5142  0.0508 -0.7250
   70MOL   H61047668   1.991   0.667   1.451  0.4778  0.6576  0.9705
   70MOL   H61147669   2.158   0.638   1.413 -0.2435  0.9753  0.6334
   70MOL   H61247670   2.138   0.633   1.653 -1.6532  0.1608  1.6049
   70MOL   H61347671   2.152   0.465   1.608  0.4855 -0.3159 -1.3446
   70MOL   N61447672   1.930   0.377   1.686  0.6228 -0.2446  0.2190
   70MOL   C61547673   1.824   0.328   1.769 -0.0692 -0.0916  0.4320
   70MOL   C61647674   1.876   0.239   1.885 -0.1322 -0.2877  0.0154
   70MOL   C61747675   1.754   0.188   1.971 -0.1552 -0.2551  1.0086
   70MOL   C61847676   1.793   0.119   2.107 -0.0432 -0.7347 -0.2765
   70MOL   C61947677   1.687   0.027   2.176  0.2072  0.1967  0.2380
   70MOL   C62047678   1.573   0.107   2.232 -0.0101 -0.0155 -0.0326
   70MOL   C62147679   1.453   0.032   2.294 -0.2951  0.6308 -0.5641
   70MOL   C62247680   1.399   7.631   2.214  0.7396 -0.1274 -0.1016
   70MOL   C62347681   1.251   7.582   2.248 -0.1870 -0.3539 -0.7306
   70MOL   C62447682   1.142   7.688   2.232  0.7766  0.6807 -0.2620
   70MOL   C62547683   1.125   0.036   2.093  0.2232 -0.4021 -0.2444
   70MOL   O62647684   1.089   7.677   2.001  0.3858  0.4152 -0.2546
   70MOL   H62747685   2.002   0.310   1.662  0.6325 -1.2252  2.8012
   70MOL   H62847686   1.772   0.256   1.706 -0.5089 -2.4125  3.3437
   70MOL   H62947687   1.754   0.405   1.800  1.2260  0.7733  1.2489
   70MOL   H63047688   1.938   0.301   1.949  1.0322  0.6052 -1.9328
   70MOL   H63147689   1.921   0.145   1.854  0.7705  0.8952 -2.4465
   70MOL   H63247690   1.690   0.275   1.987  2.5512  1.5958  2.3865
   70MOL   H63347691   1.699   0.117   1.911  0.6855 -0.3404  0.3293
   70MOL   H63447692   1.824   0.186   2.186  1.4756 -1.0867 -0.5523
   70MOL   H63547693   1.884   0.059   2.098 -1.8748 -3.7159  0.5817
   70MOL   H63647694   1.741   7.692   2.256 -1.5249  0.7673  1.8087
   70MOL   H63747695   1.657   7.669   2.102 -0.2738  1.7186 -1.1094
   70MOL   H63847696   1.605   0.180   2.307  1.9328 -0.8057 -0.0495
   70MOL   H63947697   1.535   0.172   2.153  0.2140 -0.4316 -0.4865
   70MOL   H64047698   1.370   0.102   2.307  2.1073  3.7506 -1.4490
   70MOL   H64147699   1.488   7.704   2.387 -0.0819 -0.6148 -1.2161
   70MOL   H64247700   1.393   7.655   2.108 -0.3171 -0.7975 -0.2036
   70MOL   H64347701   1.465   7.545   2.226  0.4072 -0.4246 -0.3712
   70MOL   H64447702   1.261   7.530   2.344  1.2852  0.9061 -0.1714
   70MOL   H64547703   1.228   7.492   2.192 -0.3730 -0.6624 -0.1710
   70MOL   H64647704   1.156   0.046   2.310  0.5396 -0.3008  0.7239
   70MOL   H64747705   1.050   7.639   2.263  0.7775  0.2877 -0.8632
   70MOL   N64847706   1.152   0.166   2.078  0.2280 -0.1444 -0.1728
   70MOL   C64947707   1.171   0.226   1.951  0.1721  0.2887 -0.0120
   70MOL   C65047708   1.303   0.190   1.882 -0.0829 -0.3227  0.0542
   70MOL   C65147709   1.321   0.279   1.755 -0.1549  0.2143  0.0745
   70MOL   C65247710   1.455   0.259   1.680 -0.2842 -1.5361  0.5601
   70MOL   C65347711   1.456   0.338   1.547  0.4810  0.1984  0.5523
   70MOL   C65447712   1.577   0.316   1.462  0.1020 -1.0043 -0.8561
   70MOL   C65547713   1.584   0.169   1.412 -0.1081  0.4450  0.6329
   70MOL   C65647714   1.458   0.099   1.356 -1.0170  0.0172  0.3595
   70MOL   C65747715   1.479   7.666   1.317 -1.0460  0.2269  0.6017
   70MOL   C65847716   1.353   7.571   1.334  0.2674 -0.2461 -0.0519
   70MOL   C65947717   1.222   7.614   1.265 -0.5263 -0.3324  0.4909
   70MOL   O66047718   1.217   0.007   1.204  0.3249 -0.1770 -0.0505
   70MOL   H66147719   1.182   0.218   2.160  0.7883  0.6677 -0.8775
   70MOL   H66247720   1.187   0.331   1.975  0.4635 -0.0310  1.2100
   70MOL   H66347721   1.086   0.220   1.882  0.3441  0.9347 -0.2784
   70MOL   H66447722   1.316   0.083   1.867 -2.0245 -0.7983  1.5013
   70MOL   H66547723   1.375   0.224   1.957  0.6219 -0.0234 -0.7537
   70MOL   H66647724   1.243   0.248   1.685  2.7081 -0.6882 -2.8335
   70MOL   H66747725   1.292   0.378   1.789 -0.6188 -0.5845  2.0430
   70MOL   H66847726   1.474   0.154   1.658  1.5914 -1.9681  3.8247
   70MOL   H66947727   1.540   0.289   1.741  0.3291  2.1034 -1.9608
   70MOL   H67047728   1.448   0.439   1.587 -0.2919  0.7438 -0.9156
   70MOL   H67147729   1.363   0.325   1.492 -0.0277  0.4696  1.3462
   70MOL   H67247730   1.570   0.385   1.379  0.3650  0.8901  0.6649
   70MOL   H67347731   1.664   0.348   1.520 -1.5882 -0.8639  1.6965
   70MOL   H67447732   1.620   0.104   1.492  0.0868  1.1634  1.1370
   70MOL   H67547733   1.661   0.163   1.335  1.2243  1.4744  1.8569
   70MOL   H67647734   1.364   0.097   1.410 -2.0483 -1.1661 -1.4344
   70MOL   H67747735   1.432   0.153   1.265  2.4374 -0.1811 -0.8255
   70MOL   H67847736   1.559   7.621   1.375 -0.6689 -0.0462 -0.1351
   70MOL   H67947737   1.510   7.653   1.214 -0.9475 -2.5180  0.9323
   70MOL   H68047738   1.334   7.565   1.441 -0.3177 -0.9019 -0.1915
   70MOL   H68147739   1.372   7.466   1.313 -0.3712 -0.0127 -1.8853
   70MOL   H68247740   1.136   7.549   1.280 -0.6792 -0.2631 -0.0932
   71MOL     N147741   2.349   5.487   4.255 -0.0421  0.1886 -0.5280
   71MOL     C247742   2.363   5.342   4.222  0.0162 -0.2556  0.5219
   71MOL     C347743   2.495   5.313   4.155  0.4865  0.2105 -0.0336
   71MOL     C447744   2.485   5.198   4.060 -0.2252 -0.0444 -1.0598
   71MOL     C547745   2.619   5.156   4.004 -0.2546 -0.2356 -0.4190
   71MOL     C647746   2.706   5.076   4.098 -0.7622  0.3017  0.1545
   71MOL     C747747   2.672   4.926   4.095 -0.3553 -0.2667  0.0380
   71MOL     C847748   2.804   4.855   4.152 -0.6944 -0.5246 -0.2792
   71MOL     C947749   2.770   4.709   4.167  0.0441 -0.6283 -0.1885
   71MOL    C1047750   2.868   4.621   4.251  0.1238  0.4141  0.7336
   71MOL    C1147751   2.870   4.472   4.224 -0.5108 -0.5158  0.7620
   71MOL    C1247752   2.975   4.390   4.297  0.3014 -0.6407  0.9415
   71MOL    O1347753   3.030   4.439   4.398  0.6062  0.3035  0.5400
   71MOL    H1447754   2.417   5.516   4.324  0.3948  0.2656 -0.9887
   71MOL    H1547755   2.278   5.307   4.164 -0.5170  0.2803  0.9690
   71MOL    H1647756   2.345   5.280   4.310 -2.2307 -1.2793 -0.6359
   71MOL    H1747757   2.570   5.286   4.229 -1.4124 -0.9823  1.5036
   71MOL    H1847758   2.532   5.401   4.101  0.0656 -0.3666 -1.2690
   71MOL    H1947759   2.431   5.116   4.106  1.5752 -1.5082 -1.4564
   71MOL    H2047760   2.417   5.224   3.979 -2.5501  0.4732  1.0406
   71MOL    H2147761   2.673   5.231   3.948  0.3595  0.6674  1.3398
   71MOL    H2247762   2.587   5.092   3.922  0.3811  0.7619 -1.4675
   71MOL    H2347763   2.696   5.113   4.200  1.2528  2.5432 -0.4192
   71MOL    H2447764   2.810   5.090   4.068 -0.0530  1.0212  2.8483
   71MOL    H2547765   2.584   4.906   4.156 -1.0116  2.6190  0.0768
   71MOL    H2647766   2.644   4.896   3.995 -3.1091  2.3372 -0.0181
   71MOL    H2747767   2.839   4.890   4.249 -2.4262 -0.7553  0.4432
   71MOL    H2847768   2.883   4.865   4.077 -1.4807  0.8638 -0.9526
   71MOL    H2947769   2.678   4.691   4.223  0.6031 -0.9799  0.6295
   71MOL    H3047770   2.758   4.664   4.069  0.5871  1.1234 -1.0748
   71MOL    H3147771   2.848   4.641   4.357 -0.2092  0.5175  0.6531
   71MOL    H3247772   2.971   4.647   4.229 -0.2488 -0.8682 -2.8144
   71MOL    H3347773   2.866   4.461   4.116  0.3676  2.3752  0.3985
   71MOL    H3447774   2.782   4.421   4.265 -2.8110  0.8909 -2.2146
   71MOL    H3547775   2.375   5.541   4.174 -1.0646 -1.4766 -1.9916
   71MOL    N3647776   3.016   4.275   4.236 -0.0671 -0.3161 -0.5243
   71MOL    C3747777   3.092   4.170   4.298  0.2577 -0.0625  0.2345
   71MOL    C3847778   3.048   4.036   4.228 -0.8616  0.4891  0.0975
   71MOL    C3947779   3.106   3.908   4.284  0.1416 -0.1857 -0.6996
   71MOL    C4047780   3.251   3.878   4.235  0.0306 -0.1231 -0.5507
   71MOL    C4147781   3.308   3.759   4.315  0.0423  0.0814 -0.4254
   71MOL    C4247782   3.460   3.742   4.300 -0.1121  0.4019 -0.3787
   71MOL    C4347783   3.517   3.622   4.369  0.1462  0.9101 -0.1466
   71MOL    C4447784   3.672   3.620   4.369 -0.6823  0.6043 -0.1464
   71MOL    C4547785   3.715   3.484   4.410  0.4743  0.1667  0.4315
   71MOL    C4647786   3.862   3.446   4.385  0.0103 -0.6054  0.2394
   71MOL    C4747787   3.903   3.314   4.444  0.3026 -0.1417 -0.0844
   71MOL    O4847788   3.820   3.251   4.515 -0.6271 -0.6342 -0.7409
   71MOL    H4947789   2.971   4.245   4.152 -0.6622  0.5222 -0.5058
   71MOL    H5047790   3.197   4.201   4.302  0.0479  0.4693  1.8420
   71MOL    H5147791   3.069   4.149   4.402 -0.5232  2.4978  0.6245
   71MOL    H5247792   3.080   4.035   4.124  0.8208  0.6546  0.5904
   71MOL    H5347793   2.941   4.019   4.219 -0.6052 -0.0228 -2.5017
   71MOL    H5447794   3.112   3.925   4.391  0.4169 -2.5771 -0.2900
   71MOL    H5547795   3.050   3.816   4.268  3.4841 -2.6734  1.1637
   71MOL    H5647796   3.319   3.962   4.247 -0.9012  0.3413  1.6951
   71MOL    H5747797   3.249   3.865   4.127  0.2970  0.3638 -0.6155
   71MOL    H5847798   3.251   3.670   4.289  1.2538 -0.6182 -0.7493
   71MOL    H5947799   3.286   3.781   4.420 -1.1538  1.3908 -0.9328
   71MOL    H6047800   3.480   3.734   4.193  2.3238 -1.2326  0.1781
   71MOL    H6147801   3.500   3.836   4.337 -0.6643  0.6464 -0.3924
   71MOL    H6247802   3.476   3.531   4.325  1.0171  0.3331  0.2335
   71MOL    H6347803   3.485   3.614   4.473 -0.6286 -0.6423 -0.4969
   71MOL    H6447804   3.702   3.631   4.264  0.4513  1.5572  0.2634
   71MOL    H6547805   3.707   3.701   4.433  0.3609 -1.0652  1.4563
   71MOL    H6647806   3.662   3.409   4.351 -1.2904  2.2029 -0.6523
   71MOL    H6747807   3.696   3.466   4.516 -0.8616 -0.9136  0.0214
   71MOL    H6847808   3.911   3.535   4.426  0.6512 -0.4950 -0.7664
   71MOL    H6947809   3.876   3.458   4.278 -2.5302 -2.8708 -0.4098
   71MOL    N7047810   4.010   3.253   4.404 -0.1666  0.2677 -0.4806
   71MOL    C7147811   4.059   3.124   4.448  0.4815 -0.3124  0.4682
   71MOL    C7247812   4.119   3.047   4.331 -0.5251 -0.1137  0.3291
   71MOL    C7347813   4.185   2.910   4.369  0.1307  0.4372  0.8822
   71MOL    C7447814   4.218   2.816   4.259 -0.1656 -0.7158 -0.3259
   71MOL    C7547815   4.341   2.858   4.182 -0.6917  0.2665  0.0271
   71MOL    C7647816   4.410   2.732   4.120  0.0695 -0.7274 -0.2213
   71MOL    C7747817   4.504   2.769   4.009  0.5102  0.2224 -0.3603
   71MOL    C7847818   4.537   2.651   3.907 -0.5168  0.6336  0.2954
   71MOL    C7947819   4.649   2.680   3.809 -0.3163 -0.2583 -0.1939
   71MOL    C8047820   4.689   2.558   3.718 -0.8238  0.3081 -0.9211
   71MOL    C8147821   4.832   2.595   3.668 -0.1906 -0.7081 -0.4557
   71MOL    O8247822   4.919   2.610   3.753  0.2177  0.1613  0.3350
   71MOL    H8347823   4.068   3.309   4.343 -0.8387  1.6179  0.1154
   71MOL    H8447824   4.139   3.142   4.519 -0.0192  0.4669  0.8386
   71MOL    H8547825   3.977   3.075   4.501  1.0794 -0.3810  1.3339
   71MOL    H8647826   4.195   3.102   4.276 -1.4523 -1.2258 -2.1313
   71MOL    H8747827   4.033   3.033   4.265  0.4634 -0.6901 -0.8429
   71MOL    H8847828   4.264   2.919   4.444  2.3398 -1.2660 -1.1525
   71MOL    H8947829   4.113   2.857   4.432 -1.1353  0.3181 -0.6319
   71MOL    H9047830   4.131   2.805   4.194  0.3312  0.5983 -1.2198
   71MOL    H9147831   4.244   2.719   4.301  1.2615 -0.4591 -0.6168
   71MOL    H9247832   4.406   2.914   4.249  1.4592 -0.8039 -1.1180
   71MOL    H9347833   4.305   2.937   4.116 -0.0380  1.3837  0.9830
   71MOL    H9447834   4.469   2.670   4.188  0.3207 -1.5324 -1.1581
   71MOL    H9547835   4.334   2.661   4.085 -0.0774 -0.8749  0.3969
   71MOL    H9647836   4.592   2.805   4.063  1.0408  1.8440 -2.2554
   71MOL    H9747837   4.459   2.848   3.949 -1.2471  0.3133  1.0431
   71MOL    H9847838   4.557   2.564   3.969  0.9245  0.5354 -0.2676
   71MOL    H9947839   4.443   2.626   3.857 -0.1251 -1.8599  0.7291
   71MOL   H10047840   4.739   2.717   3.859 -0.4133 -0.9430  0.5019
   71MOL   H10147841   4.617   2.751   3.733  1.6184 -0.1738 -0.9587
   71MOL   H10247842   4.625   2.533   3.633 -0.9725  1.4351 -1.1510
   71MOL   H10347843   4.705   2.472   3.782 -0.8693 -0.7200 -2.2537
   71MOL   N10447844   4.845   2.610   3.539 -0.6682 -0.4232 -0.1034
   71MOL   C10547845   4.966   2.653   3.476  0.0634  1.2286  0.4090
   71MOL   C10647846   4.935   2.710   3.335  0.4247  0.0665 -0.0949
   71MOL   C10747847   4.812   2.799   3.319  0.0068  0.1857  0.2490
   71MOL   C10847848   4.797   2.866   3.181  0.0775  0.4691  0.4817
   71MOL   C10947849   4.903   2.974   3.160  0.1667 -0.2764 -0.1566
   71MOL   C11047850   4.932   3.003   3.013 -0.5765 -0.0961 -0.6667
   71MOL   C11147851   5.023   2.898   2.950  0.4916 -0.8985  0.7630
   71MOL   C11247852   5.086   2.948   2.817  0.8380  0.1818  0.2130
   71MOL   C11347853   5.205   2.868   2.763 -0.5801 -0.1470  0.4230
   71MOL   C11447854   5.262   2.927   2.632  0.3523 -0.1090 -0.5617
   71MOL   C11547855   5.395   3.012   2.649 -0.1148 -0.4830 -0.0635
   71MOL   O11647856   5.412   3.081   2.743  0.8014  0.6065 -0.0936
   71MOL   H11747857   4.781   2.579   3.467 -0.8670  1.8084 -0.9325
   71MOL   H11847858   5.006   2.736   3.535  0.3038  0.5797  1.1600
   71MOL   H11947859   5.029   2.564   3.470 -2.8171 -0.7965 -0.7577
   71MOL   H12047860   4.907   2.628   3.268 -0.4758  0.7739 -0.5961
   71MOL   H12147861   5.023   2.759   3.294 -0.5663  1.0309 -1.1012
   71MOL   H12247862   4.719   2.746   3.336  0.4254 -0.4491  0.5618
   71MOL   H12347863   4.804   2.877   3.395 -0.4634  1.0103 -0.6286
   71MOL   H12447864   4.707   2.920   3.148 -0.2668 -0.9068 -0.8581
   71MOL   H12547865   4.818   2.792   3.105 -1.3379 -1.0967  1.5885
   71MOL   H12647866   5.003   2.953   3.197  0.2247 -1.9147 -1.2143
   71MOL   H12747867   4.869   3.063   3.214  0.3151  0.6221 -1.5005
   71MOL   H12847868   4.845   3.013   2.948  1.4024  0.2100 -3.3555
   71MOL   H12947869   4.967   3.107   3.008 -0.9752  0.1865  1.5807
   71MOL   H13047870   4.970   2.804   2.942 -2.4720  0.7648  0.2368
   71MOL   H13147871   5.107   2.890   3.019 -1.1872 -0.5601  2.9132
   71MOL   H13247872   5.008   2.923   2.745  0.6116  1.6176 -0.0708
   71MOL   H13347873   5.107   3.055   2.820 -1.2016  0.6152 -0.3264
   71MOL   H13447874   5.196   2.761   2.750  0.6975 -0.0204 -1.6967
   71MOL   H13547875   5.277   2.875   2.844 -0.6700 -3.8675  0.8990
   71MOL   H13647876   5.188   2.986   2.578 -1.3930 -0.7313  1.0814
   71MOL   H13747877   5.290   2.840   2.572  0.3530 -1.1066  0.8575
   71MOL   N13847878   5.476   3.022   2.547 -0.0738 -0.4362  0.1338
   71MOL   C13947879   5.596   3.106   2.542 -0.7230  0.1328  0.7000
   71MOL   C14047880   5.729   3.021   2.521  0.4625 -1.1965  0.2482
   71MOL   C14147881   5.848   3.103   2.515  0.2043  0.0012 -0.3283
   71MOL   C14247882   5.980   3.040   2.479 -0.2692  0.2987 -0.3345
   71MOL   C14347883   6.105   3.135   2.471  0.3725 -0.3182 -0.4970
   71MOL   C14447884   6.143   3.212   2.597 -0.3719  0.6919 -0.1239
   71MOL   C14547885   6.264   3.297   2.587 -0.5076  0.1575  0.1242
   71MOL   C14647886   6.331   3.342   2.717  0.2245 -0.2044 -0.2594
   71MOL   C14747887   6.253   3.451   2.798  1.0112  0.5036  0.1901
   71MOL   C14847888   6.307   3.475   2.939 -0.6210  0.0785 -0.0146
   71MOL   C14947889   6.451   3.523   2.955  0.1746 -0.1180 -0.2195
   71MOL   O15047890   6.503   3.588   2.865 -0.2327  0.0977 -0.5706
   71MOL   H15147891   5.454   2.951   2.478 -1.7838 -0.1967  0.4176
   71MOL   H15247892   5.580   3.175   2.460 -2.9244  0.2802  1.2025
   71MOL   H15347893   5.584   3.180   2.621  1.5181  1.4782 -0.1891
   71MOL   H15447894   5.720   2.970   2.426 -2.7601  1.6564 -1.0997
   71MOL   H15547895   5.734   2.939   2.593 -1.5137 -0.1508  1.6219
   71MOL   H15647896   5.824   3.188   2.451 -0.9596  0.0992  0.2258
   71MOL   H15747897   5.864   3.162   2.606 -3.6671  2.3597 -1.0781
   71MOL   H15847898   5.967   2.997   2.380 -1.9679  0.4227 -0.1835
   71MOL   H15947899   6.001   2.964   2.555 -0.3007  1.4298  0.8305
   71MOL   H16047900   6.083   3.215   2.401  0.6245  0.4124  0.2427
   71MOL   H16147901   6.199   3.097   2.429  0.5432  1.2305 -1.5488
   71MOL   H16247902   6.057   3.271   2.625 -1.7923 -1.1998 -0.3540
   71MOL   H16347903   6.173   3.144   2.678 -1.4138 -1.9443 -1.8665
   71MOL   H16447904   6.241   3.385   2.526 -0.8874 -0.9572 -1.3652
   71MOL   H16547905   6.339   3.252   2.522  2.3154 -0.3802  3.5888
   71MOL   H16647906   6.343   3.255   2.783 -0.8928 -0.0528  0.1403
   71MOL   H16747907   6.430   3.375   2.686 -0.4773  2.5864  0.4067
   71MOL   H16847908   6.152   3.410   2.804  1.8825 -1.7178  0.3605
   71MOL   H16947909   6.254   3.546   2.746 -0.6437 -0.5555 -1.8415
   71MOL   H17047910   6.297   3.384   2.998  0.4413 -0.0931 -0.0930
   71MOL   H17147911   6.238   3.539   2.993 -0.3372 -0.7635  1.3814
   71MOL   N17247912   6.500   3.497   3.073  0.8393 -0.5473 -0.0466
   71MOL   C17347913   6.616   3.571   3.127 -0.8584 -0.3650  0.6734
   71MOL   C17447914   6.587   3.638   3.263 -0.6521 -0.5673 -0.0130
   71MOL   C17547915   6.463   3.725   3.278 -0.0485  1.1062 -0.5113
   71MOL   C17647916   6.449   3.793   3.418 -0.6436 -0.2954 -0.5234
   71MOL   C17747917   6.322   3.873   3.438  0.1870  0.2715 -0.1030
   71MOL   C17847918   6.322   3.941   3.575  0.1741 -0.4178  0.3310
   71MOL   C17947919   6.190   4.006   3.603 -0.3476 -0.0034 -0.7470
   71MOL   C18047920   6.181   4.065   3.748  0.3893 -0.4836  0.0833
   71MOL   C18147921   6.031   4.106   3.778  0.3229 -0.7786 -0.5534
   71MOL   C18247922   6.006   4.152   3.925 -0.3676  0.0885  0.0762
   71MOL   C18347923   6.019   4.036   4.025 -0.5961  0.0538  0.5168
   71MOL   O18447924   5.936   3.940   4.025  0.3089 -0.2642 -0.0319
   71MOL   H18547925   6.437   3.449   3.136  0.4867  0.3449  0.2970
   71MOL   H18647926   6.698   3.499   3.123  0.3840  1.1138 -1.8940
   71MOL   H18747927   6.646   3.644   3.052 -0.6336 -1.8647 -0.7426
   71MOL   H18847928   6.682   3.686   3.286 -0.5553 -0.2005 -1.1533
   71MOL   H18947929   6.587   3.557   3.336 -1.9212 -0.7911 -0.2464
   71MOL   H19047930   6.482   3.803   3.204  0.0709  1.6455  0.0729
   71MOL   H19147931   6.374   3.667   3.254  1.3244 -0.8241 -1.0430
   71MOL   H19247932   6.538   3.854   3.433 -0.4238 -0.4969 -0.9966
   71MOL   H19347933   6.447   3.710   3.489  0.0380 -0.7781 -1.0668
   71MOL   H19447934   6.238   3.803   3.436  0.9383 -0.6282 -0.7931
   71MOL   H19547935   6.319   3.955   3.366  1.0493  0.9780  0.6495
   71MOL   H19647936   6.358   3.882   3.660  2.9505  1.0315  0.2046
   71MOL   H19747937   6.397   4.020   3.582 -2.5374  2.1089  2.0354
   71MOL   H19847938   6.108   3.939   3.577  0.4127  0.1783 -3.7921
   71MOL   H19947939   6.167   4.092   3.539 -0.0137  0.1300 -0.6870
   71MOL   H20047940   6.207   3.983   3.816 -0.2244 -0.6926  0.0720
   71MOL   H20147941   6.252   4.148   3.753 -0.3141  0.0471  1.7377
   71MOL   H20247942   5.970   4.017   3.768 -0.7689  0.1182 -2.2298
   71MOL   H20347943   5.995   4.181   3.707  2.1764  1.2970  0.6013
   71MOL   H20447944   5.903   4.187   3.938  0.1248  1.4080  0.4838
   71MOL   H20547945   6.064   4.238   3.959 -0.9636  0.2222  0.7753
   71MOL   N20647946   6.124   4.031   4.101  0.2274 -0.2083  0.1634
   71MOL   C20747947   6.148   3.917   4.190 -0.2348 -0.7050 -0.0323
   71MOL   C20847948   6.288   3.930   4.252 -0.4209 -0.5550 -0.6212
   71MOL   C20947949   6.336   3.813   4.340 -0.1222 -0.8075 -0.5156
   71MOL   C21047950   6.336   3.670   4.290 -0.3456 -0.6566  0.0424
   71MOL   C21147951   6.407   3.660   4.152  0.4288 -0.2060  0.1317
   71MOL   C21247952   6.553   3.708   4.139  0.5150  0.1354 -0.2963
   71MOL   C21347953   6.661   3.597   4.157 -0.5284 -0.1033 -0.5600
   71MOL   C21447954   6.800   3.656   4.164  0.2991 -0.2234 -0.0364
   71MOL   C21547955   6.846   3.715   4.024  0.0998 -0.1319 -0.2658
   71MOL   C21647956   6.963   3.811   4.056 -0.3771 -0.5305  0.7857
   71MOL   C21747957   6.919   3.946   4.102 -0.0691  0.5457  0.4733
   71MOL   O21847958   6.821   3.968   4.174 -0.8177 -0.0001  0.0116
   71MOL   H21947959   6.205   4.092   4.104 -0.1215  0.2987 -0.5489
   71MOL   H22047960   6.140   3.827   4.129 -0.1155 -0.2596 -0.7081
   71MOL   H22147961   6.075   3.924   4.271  0.4597 -1.3377  0.6606
   71MOL   H22247962   6.280   4.019   4.314 -0.7837 -0.3897 -0.9008
   71MOL   H22347963   6.364   3.964   4.182  0.8122 -0.3662  0.7942
   71MOL   H22447964   6.440   3.841   4.356 -0.2857 -0.3615 -0.2118
   71MOL   H22547965   6.291   3.825   4.439  1.6783 -0.5005  0.2911
   71MOL   H22647966   6.235   3.630   4.283  0.0759 -1.3939 -2.1991
   71MOL   H22747967   6.398   3.612   4.358  2.1886  0.1728 -1.4604
   71MOL   H22847968   6.346   3.712   4.078 -1.0885 -2.9977 -0.6378
   71MOL   H22947969   6.392   3.557   4.121 -0.9012 -0.1576  0.5722
   71MOL   H23047970   6.559   3.737   4.034  2.1052 -3.0670 -1.1775
   71MOL   H23147971   6.572   3.794   4.203 -1.2751  0.2223  0.1308
   71MOL   H23247972   6.651   3.515   4.086  0.9403 -0.3740 -0.4594
   71MOL   H23347973   6.644   3.569   4.261  1.1460  2.5245  0.4634
   71MOL   H23447974   6.795   3.732   4.242  0.7815 -1.1485  0.9156
   71MOL   H23547975   6.872   3.593   4.215 -2.3861 -0.1297  4.1227
   71MOL   H23647976   6.767   3.773   3.975 -1.4326 -2.2906 -0.3974
   71MOL   H23747977   6.883   3.644   3.950  0.6405  2.6454 -2.7941
   71MOL   H23847978   7.027   3.830   3.970 -0.2793 -0.1852  0.9342
   71MOL   H23947979   7.029   3.770   4.133  3.1465  1.1638 -1.1911
   71MOL   N24047980   7.004   4.045   4.073  0.3623 -0.3788 -0.1940
   71MOL   C24147981   6.991   4.180   4.127 -0.4452  0.2238 -0.0889
   71MOL   C24247982   7.098   4.280   4.071  0.1696  0.1852 -0.2063
   71MOL   C24347983   7.083   4.423   4.108 -0.1991 -0.4618  0.7150
   71MOL   C24447984   7.206   4.505   4.073  0.1967  0.6633  0.0286
   71MOL   C24547985   7.252   4.498   3.926 -0.6788  0.2558 -0.3102
   71MOL   C24647986   7.346   4.603   3.874  0.3435  0.5710 -0.1283
   71MOL   C24747987   7.400   4.568   3.730 -0.3962  0.0445 -0.5128
   71MOL   C24847988   7.313   4.616   3.615 -0.8207 -0.1814 -0.3776
   71MOL   C24947989   7.352   4.562   3.476  0.0037 -0.4599  0.3738
   71MOL   C25047990   7.263   4.594   3.352 -0.5318 -0.2315  0.4661
   71MOL   C25147991   7.296   4.728   3.295  0.5576  0.0345  0.1305
   71MOL   O25247992   7.264   4.827   3.358  0.3824  0.0169  0.1668
   71MOL   H25347993   7.090   4.025   4.023  0.6728 -2.9927  1.2845
   71MOL   H25447994   7.015   4.173   4.233 -0.7511  0.1182 -0.0266
   71MOL   H25547995   6.888   4.214   4.112 -0.3233 -0.1046 -1.7379
   71MOL   H25647996   7.093   4.258   3.965  0.1345  0.3946 -0.2478
   71MOL   H25747997   7.194   4.242   4.106 -0.9195 -2.4497  0.0544
   71MOL   H25847998   7.002   4.475   4.057  0.7470 -0.5519 -0.9452
   71MOL   H25947999   7.066   4.439   4.214 -0.4336 -0.0167  0.6139
   71MOL   H26048000   7.293   4.473   4.131  1.3121  3.3086 -0.1157
   71MOL   H26148001   7.181   4.606   4.106 -0.9474 -0.2099  1.9341
   71MOL   H26248002   7.163   4.495   3.862  0.2655 -1.6322 -1.5653
   71MOL   H26348003   7.298   4.400   3.925  1.6844  1.3329 -0.8451
   71MOL   H26448004   7.295   4.699   3.878 -1.0976 -0.1505 -0.7578
   71MOL   H26548005   7.434   4.617   3.937  1.1998  0.1386 -1.2105
   71MOL   H26648006   7.413   4.460   3.723  0.8431  0.2855 -2.2508
   71MOL   H26748007   7.496   4.620   3.723  0.9777 -2.3934 -0.0997
   71MOL   H26848008   7.206   4.606   3.635 -1.2153 -2.1860 -3.2095
   71MOL   H26948009   7.332   4.723   3.607  1.5291 -0.5343  0.1592
   71MOL   H27048010   7.332   4.457   3.493 -0.4226 -0.5715 -0.7753
   71MOL   H27148011   7.456   4.581   3.450 -0.6400 -0.3517 -2.3033
   71MOL   H27248012   7.162   4.602   3.392 -0.7292 -0.5284  0.0357
   71MOL   H27348013   7.268   4.513   3.279  0.9539  0.8872 -0.6893
   71MOL   N27448014   7.348   4.729   3.176  0.0224 -0.5641 -0.5710
   71MOL   C27548015   7.410   4.851   3.119 -0.6612  0.0713 -0.4390
   71MOL   C27648016   7.485   4.832   2.989 -0.6391 -0.6745  0.0417
   71MOL   C27748017   7.593   4.940   2.956  0.9594  0.2480  0.1539
   71MOL   C27848018   7.688   4.901   2.845  0.0651 -0.3753  0.3596
   71MOL   C27948019   0.064   4.776   2.865 -0.2514  0.1187  0.1460
   71MOL   C28048020   0.142   4.777   2.999 -0.6683  0.1902 -0.0223
   71MOL   C28148021   0.261   4.679   2.982 -0.5332 -0.1693 -0.5400
   71MOL   C28248022   0.356   4.674   3.112 -0.1840  0.2039  0.5094
   71MOL   C28348023   0.471   4.578   3.094 -0.2330  0.2005  0.5851
   71MOL   C28448024   0.585   4.635   2.996  0.4994 -0.3014  0.2789
   71MOL   C28548025   0.702   4.535   2.973 -0.0838 -0.1468  0.8440
   71MOL   O28648026   0.727   4.448   3.055  0.0026 -0.0692  0.6587
   71MOL   H28748027   7.345   4.642   3.126 -1.3061 -1.3614  0.8682
   71MOL   H28848028   7.469   4.890   3.202 -0.2992 -1.3258 -0.0352
   71MOL   H28948029   7.329   4.921   3.098 -0.1998 -0.1424 -2.9900
   71MOL   H29048030   7.421   4.829   2.901 -0.6821  0.5212  0.0245
   71MOL   H29148031   7.531   4.734   2.976  1.8466  0.6477 -1.4636
   71MOL   H29248032   7.544   5.032   2.926  2.4921  1.2438  0.6797
   71MOL   H29348033   7.650   4.969   3.044  0.8420 -0.7954  0.5877
   71MOL   H29448034   0.031   4.993   2.839  0.5925 -0.6801  0.8552
   71MOL   H29548035   7.640   4.893   2.747 -0.2350  0.8331  0.3954
   71MOL   H29648036   0.128   4.782   2.778  0.2671 -0.6896  0.4683
   71MOL   H29748037   0.006   4.683   2.861  0.9980 -0.6083 -1.6676
   71MOL   H29848038   0.190   4.874   3.009 -1.1916  0.3214  1.3019
   71MOL   H29948039   0.077   4.763   3.086  0.1817 -2.2932  0.2604
   71MOL   H30048040   0.318   4.704   2.893 -1.6234  0.1320 -1.1642
   71MOL   H30148041   0.224   4.577   2.973  0.3128 -0.3118 -2.5377
   71MOL   H30248042   0.395   4.773   3.132 -1.6122  0.3355  2.7331
   71MOL   H30348043   0.295   4.644   3.197 -1.0531 -2.8824 -1.1025
   71MOL   H30448044   0.429   4.483   3.061 -2.1793  0.8554  1.0931
   71MOL   H30548045   0.530   4.550   3.181  2.0524 -1.3265 -1.3748
   71MOL   H30648046   0.620   4.733   3.031  2.8573 -0.0910 -2.5376
   71MOL   H30748047   0.528   4.642   2.904  1.5235  1.0673 -0.2760
   71MOL   N30848048   0.764   4.547   2.858 -0.4208  0.8628 -0.2583
   71MOL   C30948049   0.887   4.475   2.818  0.4454 -0.0872 -0.0725
   71MOL   C31048050   1.017   4.541   2.835 -0.4502 -0.3250 -0.7174
   71MOL   C31148051   1.136   4.454   2.789 -0.5546  0.1379  0.7210
   71MOL   C31248052   1.271   4.532   2.768 -0.1023  0.4137  0.3579
   71MOL   C31348053   1.379   4.445   2.696 -0.2871 -0.7399 -0.2073
   71MOL   C31448054   1.509   4.507   2.652 -0.3487 -0.2622  0.5440
   71MOL   C31548055   1.605   4.403   2.596 -0.0818  0.1431  0.2679
   71MOL   C31648056   1.569   4.300   2.487 -0.2723 -0.0147 -0.0644
   71MOL   C31748057   1.693   4.216   2.451 -0.1235  0.0742 -0.2676
   71MOL   C31848058   1.677   4.123   2.325 -0.1180 -0.0147 -0.7055
   71MOL   C31948059   1.795   4.025   2.299 -0.7858 -0.0609  0.0908
   71MOL   O32048060   1.867   3.982   2.382 -0.3406 -0.1083  0.5473
   71MOL   H32148061   0.731   4.612   2.787 -1.7506 -0.0461 -0.4820
   71MOL   H32248062   0.866   4.452   2.713  0.0216  0.3322 -0.0843
   71MOL   H32348063   0.895   4.376   2.862 -1.3742 -0.5579 -0.7371
   71MOL   H32448064   1.040   4.564   2.939 -0.2385  0.6972 -0.9868
   71MOL   H32548065   1.014   4.639   2.787  0.0173 -0.4656 -1.0395
   71MOL   H32648066   1.153   4.375   2.861  0.6018  1.1455  1.5693
   71MOL   H32748067   1.109   4.404   2.696  1.1919  1.9444 -0.8081
   71MOL   H32848068   1.309   4.572   2.863 -1.8418 -2.0102  2.1429
   71MOL   H32948069   1.254   4.617   2.702  1.2086  0.5476  0.1666
   71MOL   H33048070   1.335   4.417   2.601 -0.4570 -1.9760  0.2259
   71MOL   H33148071   1.388   4.362   2.766 -0.9669 -0.8368 -0.2330
   71MOL   H33248072   1.495   4.581   2.574 -0.4710 -0.9445 -0.0844
   71MOL   H33348073   1.563   4.555   2.734  0.6405  1.6159 -1.1494
   71MOL   H33448074   1.646   4.353   2.684 -1.7678  0.1708  1.0845
   71MOL   H33548075   1.691   4.463   2.564  2.4395 -2.7223  1.4435
   71MOL   H33648076   1.481   4.239   2.506 -0.0968  0.2563  1.6525
   71MOL   H33748077   1.538   4.358   2.399  1.1027  0.5036 -0.2228
   71MOL   H33848078   1.701   4.155   2.541  3.7634  1.6438  0.5348
   71MOL   H33948079   1.781   4.277   2.433 -0.0246 -0.9420 -3.4324
   71MOL   H34048080   1.662   4.176   2.231 -0.4313  1.8477  0.3790
   71MOL   H34148081   1.584   4.065   2.333  0.0473 -0.3001 -0.8513
   71MOL   N34248082   1.804   3.982   2.175  0.3896 -0.5192  0.0053
   71MOL   C34348083   1.919   3.908   2.123  0.7664  0.6704  0.2163
   71MOL   C34448084   1.918   3.875   1.974  0.1474 -0.0559 -0.7869
   71MOL   C34548085   1.996   3.746   1.933  0.1669  0.1502 -0.1641
   71MOL   C34648086   2.024   3.722   1.782 -0.4375  0.1603  0.0423
   71MOL   C34748087   2.063   3.582   1.727  0.0616  0.0322 -0.1384
   71MOL   C34848088   2.076   3.568   1.573  0.0068 -0.3291  0.1586
   71MOL   C34948089   2.115   3.434   1.519  0.0034 -0.0391 -0.2630
   71MOL   C35048090   2.005   3.332   1.542  0.2690  0.6481 -0.1202
   71MOL   C35148091   1.880   3.353   1.455 -0.4533  0.0971  0.3905
   71MOL   C35248092   1.783   3.230   1.457  0.2186  0.2876 -0.6253
   71MOL   C35348093   1.690   3.227   1.580 -0.0512  0.4945 -0.3230
   71MOL   O35448094   1.637   3.329   1.612  0.1370 -0.3489  0.1007
   71MOL   H35548095   1.722   4.009   2.122  0.3069 -0.9948 -0.1133
   71MOL   H35648096   2.016   3.950   2.146  0.9877  0.1817  0.1920
   71MOL   H35748097   1.928   3.817   2.183  1.4270  0.4890 -0.1552
   71MOL   H35848098   1.972   3.956   1.925  2.4840 -1.4630 -0.6135
   71MOL   H35948099   1.820   3.878   1.926 -0.6564  1.3931  0.8776
   71MOL   H36048100   2.088   3.759   1.991  0.1403 -0.9642  0.1418
   71MOL   H36148101   1.962   3.650   1.972  1.9438 -0.7787 -0.8344
   71MOL   H36248102   2.098   3.785   1.733  0.0952  0.8698  1.7180
   71MOL   H36348103   1.934   3.749   1.727  0.2684 -2.7136 -2.6930
   71MOL   H36448104   1.976   3.521   1.750  0.4265 -0.7296 -0.7792
   71MOL   H36548105   2.145   3.529   1.775  0.0969 -0.1141 -0.3577
   71MOL   H36648106   1.984   3.608   1.530 -1.5318 -2.5442  1.3217
   71MOL   H36748107   2.151   3.640   1.539  0.0687 -0.1158  0.7329
   71MOL   H36848108   2.212   3.403   1.558 -0.8457 -4.0092 -1.0395
   71MOL   H36948109   2.130   3.441   1.412  0.5218 -0.5937 -0.2317
   71MOL   H37048110   2.042   3.231   1.524  0.7148  1.0944 -1.8303
   71MOL   H37148111   1.987   3.333   1.649  4.7820 -2.6827  0.8334
   71MOL   H37248112   1.906   3.376   1.352  2.2731 -2.1789  0.5314
   71MOL   H37348113   1.825   3.436   1.500 -0.0251  1.1171 -0.9206
   71MOL   H37448114   1.840   3.138   1.450 -2.0285 -1.3060  1.1295
   71MOL   H37548115   1.717   3.243   1.371 -2.8441  1.8824  1.8319
   71MOL   N37648116   1.683   3.110   1.651  0.2395  0.3145 -0.2703
   71MOL   C37748117   1.607   3.094   1.778 -0.5844 -0.4172  0.2101
   71MOL   C37848118   1.663   2.982   1.874  0.1049  0.7811  0.2455
   71MOL   C37948119   1.811   3.019   1.928 -0.0328 -0.3673  1.0731
   71MOL   C38048120   1.794   3.127   2.033 -0.5446  0.4458 -0.8269
   71MOL   C38148121   1.930   3.189   2.085 -0.1358  0.5041 -1.1124
   71MOL   C38248122   1.905   3.272   2.209  0.5141 -0.6502  0.3280
   71MOL   C38348123   2.041   3.311   2.271  0.4343 -0.7012 -0.9362
   71MOL   C38448124   2.021   3.388   2.399  0.9660 -0.3861 -0.6288
   71MOL   C38548125   2.148   3.419   2.476 -0.3852 -0.0835 -0.3181
   71MOL   C38648126   2.124   3.505   2.599 -0.3917 -1.0120 -0.8016
   71MOL   C38748127   2.251   3.556   2.674 -0.4132 -0.3552  0.4703
   71MOL   O38848128   2.363   3.534   2.629  0.1271  0.1265 -0.1449
   71MOL   H38948129   1.744   3.033   1.625 -0.2847 -0.2749  0.2112
   71MOL   H39048130   1.620   3.195   1.816  0.5798 -0.5277  0.1274
   71MOL   H39148131   1.505   3.066   1.752 -0.6406 -0.8410  0.8588
   71MOL   H39248132   1.674   2.890   1.816 -1.3087  2.1126 -2.1970
   71MOL   H39348133   1.601   2.975   1.963 -1.0053  2.1581 -0.3964
   71MOL   H39448134   1.844   2.923   1.967 -1.0795 -0.9195  0.6350
   71MOL   H39548135   1.874   3.047   1.843  2.1905  0.2501  2.8884
   71MOL   H39648136   1.738   3.087   2.118 -0.8392  1.6819 -0.4329
   71MOL   H39748137   1.737   3.205   1.984 -1.1350 -0.5626 -1.7707
   71MOL   H39848138   1.988   3.252   2.018 -1.1007 -0.2953 -2.7355
   71MOL   H39948139   1.999   3.107   2.103  1.3447  2.1572  0.8840
   71MOL   H40048140   1.842   3.354   2.176  1.0127 -0.0033  0.9651
   71MOL   H40148141   1.842   3.229   2.287  2.8012  2.3537  4.0107
   71MOL   H40248142   2.090   3.366   2.190  0.2138 -1.8111 -1.8366
   71MOL   H40348143   2.097   3.220   2.297  0.4614 -0.3634  0.2084
   71MOL   H40448144   1.979   3.479   2.356  0.4446  1.8108  4.1642
   71MOL   H40548145   1.933   3.347   2.449  1.9029 -0.7770  0.7496
   71MOL   H40648146   2.224   3.457   2.408  2.0790 -1.3699  1.6567
   71MOL   H40748147   2.197   3.324   2.496  2.4433  0.9321 -2.1050
   71MOL   H40848148   2.058   3.447   2.665 -0.7913  0.7979  0.4184
   71MOL   H40948149   2.079   3.598   2.565  0.2362 -0.0359  0.9632
   71MOL   N41048150   2.239   3.635   2.777 -0.2951 -0.3164  0.6936
   71MOL   C41148151   2.351   3.687   2.854  0.0257 -0.0184 -0.4330
   71MOL   C41248152   2.299   3.777   2.971 -0.1659 -0.0588  0.5258
   71MOL   C41348153   2.419   3.835   3.056 -0.1808  0.3881  0.7080
   71MOL   C41448154   2.523   3.734   3.106 -0.1331 -0.1337 -0.9145
   71MOL   C41548155   2.583   3.772   3.242 -0.1274 -0.0114  0.0689
   71MOL   C41648156   2.681   3.665   3.285  0.5027  0.0776 -1.4594
   71MOL   C41748157   2.726   3.696   3.437 -0.0044  0.5323 -0.2696
   71MOL   C41848158   2.820   3.815   3.448 -0.3613  0.1405  0.6219
   71MOL   C41948159   2.862   3.845   3.596 -0.5519 -0.2959  0.1996
   71MOL   C42048160   2.922   3.994   3.613 -0.6383  0.1499 -0.1899
   71MOL   C42148161   3.056   4.022   3.560  0.0964 -0.0220  0.2869
   71MOL   O42248162   3.136   3.934   3.526 -0.2688  0.2979 -0.2757
   71MOL   H42348163   2.148   3.651   2.817  0.0825  2.6189  0.4722
   71MOL   H42448164   2.415   3.606   2.887 -0.1287 -0.1911 -0.5558
   71MOL   H42548165   2.421   3.740   2.789 -2.3123  0.5874 -2.5594
   71MOL   H42648166   2.229   3.724   3.036  2.2309 -0.3266  2.9858
   71MOL   H42748167   2.248   3.869   2.941 -0.1378 -0.2385 -0.0761
   71MOL   H42848168   2.464   3.914   2.997  1.7205 -0.7000  0.6882
   71MOL   H42948169   2.380   3.886   3.145 -1.6799  1.0066 -0.2815
   71MOL   H43048170   2.610   3.717   3.042  0.4660  2.0328 -0.7238
   71MOL   H43148171   2.478   3.637   3.127  1.5244 -0.6831  0.2238
   71MOL   H43248172   2.500   3.797   3.308 -1.0681 -4.5860  0.7391
   71MOL   H43348173   2.638   3.866   3.238 -4.4288  2.6885  0.8162
   71MOL   H43448174   2.650   3.561   3.280  1.0484  0.0335 -4.6995
   71MOL   H43548175   2.769   3.666   3.221  2.0934  2.0670  0.6510
   71MOL   H43648176   2.776   3.612   3.484 -0.8254  0.2207  0.0572
   71MOL   H43748177   2.632   3.708   3.492  0.9383  0.4572  1.3801
   71MOL   H43848178   2.906   3.787   3.388  0.6071  2.6663  0.7488
   71MOL   H43948179   2.763   3.901   3.411 -1.5665 -0.0945  1.8726
   71MOL   H44048180   2.929   3.773   3.642  0.5842  1.0435  0.6611
   71MOL   H44148181   2.772   3.833   3.656 -0.9484  0.1573 -0.2932
   71MOL   H44248182   2.940   4.009   3.720  1.2666 -2.7928 -0.0344
   71MOL   H44348183   2.847   4.066   3.583 -1.5360 -1.8137 -2.8423
   71MOL   N44448184   3.074   4.152   3.535 -0.1570 -0.5939  0.2996
   71MOL   C44548185   3.193   4.206   3.475 -1.0596  1.5677  0.6703
   71MOL   C44648186   3.170   4.270   3.338 -0.1153 -0.0486 -0.2254
   71MOL   C44748187   3.300   4.307   3.282 -0.6757 -0.6397  0.1666
   71MOL   C44848188   3.286   4.422   3.178  0.1349 -0.4821 -0.5580
   71MOL   C44948189   3.416   4.448   3.102 -0.4852 -0.2992 -0.6547
   71MOL   C45048190   3.417   4.588   3.034  0.1987 -0.8027 -0.3457
   71MOL   C45148191   3.563   4.648   3.043 -0.1038 -0.3185  0.0505
   71MOL   C45248192   3.592   4.771   2.953 -0.5035  0.0595 -0.0914
   71MOL   C45348193   3.595   4.735   2.805  0.1400  0.0684 -0.2140
   71MOL   C45448194   3.621   4.859   2.712 -0.1732  0.1344  1.1622
   71MOL   C45548195   3.772   4.888   2.698  0.2913  0.8867 -0.0768
   71MOL   O45648196   3.849   4.798   2.666 -0.0471  0.8943 -0.7156
   71MOL   H45748197   2.995   4.211   3.559 -0.1031  0.2742 -1.5645
   71MOL   H45848198   3.225   4.287   3.541  1.9475  2.0987 -1.3049
   71MOL   H45948199   3.275   4.136   3.467 -1.4343  1.1671  0.3325
   71MOL   H46048200   3.109   4.360   3.348  1.2730  0.6745  2.1251
   71MOL   H46148201   3.118   4.212   3.262  1.3251  2.2455 -3.0071
   71MOL   H46248202   3.365   4.341   3.362 -0.5578  1.1920 -0.6847
   71MOL   H46348203   3.342   4.218   3.236  1.7900  0.2464  0.6566
   71MOL   H46448204   3.247   4.517   3.216  0.7268 -0.1701 -0.7154
   71MOL   H46548205   3.210   4.397   3.105  1.1580 -1.1800 -1.3894
   71MOL   H46648206   3.431   4.365   3.033  0.6899 -0.8777  0.2717
   71MOL   H46748207   3.506   4.435   3.162 -1.4123  0.2625  0.8874
   71MOL   H46848208   3.397   4.583   2.927 -1.5304  0.5733 -0.1128
   71MOL   H46948209   3.352   4.654   3.092  0.9956 -2.1543  2.1494
   71MOL   H47048210   3.628   4.563   3.023  0.6099  0.7948 -2.6944
   71MOL   H47148211   3.585   4.669   3.148  0.4433  2.5090 -0.5727
   71MOL   H47248212   3.513   4.844   2.966 -0.3069  0.0027  1.5049
   71MOL   H47348213   3.683   4.821   2.987 -1.8107  2.2769  0.1911
   71MOL   H47448214   3.504   4.690   2.765 -1.2901  1.1202  1.7870
   71MOL   H47548215   3.670   4.659   2.783  0.5138  0.7084 -1.1647
   71MOL   H47648216   3.552   4.939   2.738 -1.1291 -1.0052  2.2086
   71MOL   H47748217   3.595   4.822   2.613 -0.9059 -0.0921  1.4339
   71MOL   N47848218   3.805   5.015   2.708 -0.0771 -0.2348  0.1061
   71MOL   C47948219   3.941   5.065   2.701 -0.1717  0.2169 -0.1072
   71MOL   C48048220   3.935   5.219   2.737 -0.1185  0.0823 -0.2032
   71MOL   C48148221   3.854   5.308   2.642 -0.8748  0.8621  0.3786
   71MOL   C48248222   3.874   5.454   2.664 -0.6608  0.5202  0.3487
   71MOL   C48348223   3.792   5.535   2.560 -0.2577  0.2173  0.8125
   71MOL   C48448224   3.643   5.537   2.574  0.7635  0.5797  0.2285
   71MOL   C48548225   3.559   5.592   2.457 -0.1071 -0.7120 -0.0280
   71MOL   C48648226   3.612   5.731   2.421  0.2913 -0.3061  0.7122
   71MOL   C48748227   3.543   5.812   2.306 -0.6844  0.6152  0.6132
   71MOL   C48848228   3.589   5.776   2.158  0.4328  0.3787  0.4564
   71MOL   C48948229   3.734   5.816   2.124 -0.3749  0.4351 -1.2081
   71MOL   O49048230   3.772   5.933   2.133 -0.7161 -0.1648  0.3821
   71MOL   H49148231   3.731   5.078   2.736  1.5429  0.7668  2.2696
   71MOL   H49248232   4.003   5.021   2.779 -0.1264 -0.2382 -0.3930
   71MOL   H49348233   3.990   5.038   2.607  0.0776 -1.5833  0.5252
   71MOL   H49448234   4.037   5.251   2.760 -0.9284  0.5488  3.0253
   71MOL   H49548235   3.887   5.232   2.834 -0.9537 -1.9370 -0.3333
   71MOL   H49648236   3.877   5.286   2.538 -0.9224  0.0224  0.5392
   71MOL   H49748237   3.750   5.278   2.647 -0.5033 -0.3615  0.9847
   71MOL   H49848238   3.979   5.480   2.650 -1.2087  2.4893 -0.3141
   71MOL   H49948239   3.831   5.487   2.759 -1.8926 -0.3084  0.0941
   71MOL   H50048240   3.821   5.494   2.464 -2.0433 -0.4069  0.5160
   71MOL   H50148241   3.830   5.637   2.559 -1.1232  0.5303 -0.6358
   71MOL   H50248242   3.608   5.434   2.581 -1.6444  1.4229  1.2187
   71MOL   H50348243   3.616   5.591   2.664  1.3898  0.1908  0.6524
   71MOL   H50448244   3.458   5.612   2.493 -0.5906  0.5471 -2.0396
   71MOL   H50548245   3.558   5.529   2.368 -1.3768  0.4590 -0.8619
   71MOL   H50648246   3.615   5.802   2.504  1.0363  1.0756 -0.4820
   71MOL   H50748247   3.715   5.717   2.388 -0.2172  0.4072 -1.2554
   71MOL   H50848248   3.546   5.920   2.319  0.3933  0.7359 -0.5483
   71MOL   H50948249   3.440   5.779   2.313 -0.7944  0.5098 -1.1853
   71MOL   H51048250   3.522   5.827   2.089 -0.9587  3.2284  3.7317
   71MOL   H51148251   3.582   5.670   2.136 -1.1244  0.2540  1.4787
   71MOL   N51248252   3.815   5.718   2.079 -0.0172  0.8675  0.1204
   71MOL   C51348253   3.955   5.703   2.045 -0.3362 -0.4693  0.3811
   71MOL   C51448254   3.989   5.563   1.998  0.0173  0.3393 -0.0804
   71MOL   C51548255   4.140   5.563   1.949  0.0919 -0.3244 -0.7217
   71MOL   C51648256   4.204   5.431   1.960  0.1362 -0.2526 -0.2702
   71MOL   C51748257   4.353   5.429   1.923  0.2147 -0.0003 -0.1666
   71MOL   C51848258   4.428   5.303   1.929  0.1850  0.6575 -0.2763
   71MOL   C51948259   4.429   5.213   1.802 -0.2351  0.5694 -0.3717
   71MOL   C52048260   4.530   5.095   1.793 -0.6683 -0.7198  0.5316
   71MOL   C52148261   4.521   4.995   1.906 -0.1400  0.1157 -0.4327
   71MOL   C52248262   4.395   4.919   1.915 -0.3841 -0.6191 -0.0779
   71MOL   C52348263   4.390   4.825   2.029  0.0352 -0.6761 -0.7201
   71MOL   O52448264   4.441   4.713   2.023 -0.1216 -0.3786 -0.2425
   71MOL   H52548265   3.767   5.629   2.078 -0.3619  1.0368  1.0176
   71MOL   H52648266   3.983   5.779   1.973  1.3179 -0.8856  0.5751
   71MOL   H52748267   4.007   5.732   2.136  2.0753 -1.0288 -0.7751
   71MOL   H52848268   3.924   5.538   1.914 -2.2541  1.5392  1.2811
   71MOL   H52948269   3.970   5.487   2.074  1.2119  0.8659  0.7578
   71MOL   H53048270   4.147   5.595   1.846 -1.3760  1.8538 -0.1724
   71MOL   H53148271   4.196   5.638   2.004 -2.6740 -0.0608  1.8753
   71MOL   H53248272   4.153   5.367   1.888  1.6992  1.3228 -2.8196
   71MOL   H53348273   4.180   5.385   2.057  0.2680  1.3170  0.5172
   71MOL   H53448274   4.407   5.499   1.987 -0.7247 -1.4438  2.2552
   71MOL   H53548275   4.362   5.473   1.823  0.3788 -0.8707 -0.5348
   71MOL   H53648276   4.528   5.337   1.954  0.1699  0.2352  0.3607
   71MOL   H53748277   4.402   5.256   2.023 -1.4439  0.6674 -0.7117
   71MOL   H53848278   4.416   5.268   1.708 -1.3454  2.1521  0.6824
   71MOL   H53948279   4.331   5.168   1.796  0.3235 -0.5246 -1.4037
   71MOL   H54048280   4.532   5.047   1.695  0.7310  1.2721 -0.4608
   71MOL   H54148281   4.629   5.140   1.792 -0.5852 -0.8901 -1.2192
   71MOL   H54248282   4.535   5.057   1.994 -0.8264  1.5317 -1.3165
   71MOL   H54348283   4.602   4.921   1.903 -0.2241  0.0546 -1.6474
   71MOL   H54448284   4.389   4.861   1.823  1.0782  0.5512 -0.9349
   71MOL   H54548285   4.306   4.982   1.914 -0.7678 -1.0955 -3.7487
   71MOL   N54648286   4.329   4.847   2.139  0.4717 -0.4508 -0.1664
   71MOL   C54748287   4.320   4.761   2.261 -0.1098  0.2978  0.2710
   71MOL   C54848288   4.191   4.782   2.331  1.1731 -0.0083  0.2516
   71MOL   C54948289   4.119   4.914   2.323 -0.6105  0.6455 -0.6114
   71MOL   C55048290   4.213   5.029   2.369  0.2615  0.3154 -0.8514
   71MOL   C55148291   4.139   5.166   2.368 -0.2400  0.2765  0.5759
   71MOL   C55248292   4.220   5.285   2.423  0.5985  0.6980 -0.7462
   71MOL   C55348293   4.165   5.420   2.379 -0.5585 -0.5936 -0.5080
   71MOL   C55448294   4.221   5.532   2.461  0.6751 -0.2662  0.0807
   71MOL   C55548295   4.162   5.670   2.436 -0.1315 -0.3631  0.0714
   71MOL   C55648296   4.219   5.782   2.520  0.3932  0.2647  0.3232
   71MOL   C55748297   4.359   5.834   2.481 -1.1529  0.3852  0.3651
   71MOL   O55848298   4.405   5.817   2.371  0.6412 -0.1173  0.5313
   71MOL   H55948299   4.291   4.941   2.140  0.8310 -0.3068  0.1920
   71MOL   H56048300   4.322   4.657   2.230 -3.8787 -0.2115  1.5178
   71MOL   H56148301   4.408   4.789   2.319  0.1039 -0.4556  0.3112
   71MOL   H56248302   4.216   4.761   2.435  1.5145 -2.4408 -0.2967
   71MOL   H56348303   4.120   4.701   2.317  1.2047 -0.2257  1.3424
   71MOL   H56448304   4.086   4.936   2.221  0.0319 -1.8135 -1.3839
   71MOL   H56548305   4.031   4.924   2.386 -0.2543 -0.3974  0.0610
   71MOL   H56648306   4.307   5.038   2.315  1.1745  0.5073  0.7373
   71MOL   H56748307   4.244   5.008   2.471 -1.4266 -2.0757 -0.7968
   71MOL   H56848308   4.044   5.152   2.420 -0.0337  1.9910  1.4482
   71MOL   H56948309   4.125   5.197   2.265 -0.6287  0.3953  0.6611
   71MOL   H57048310   4.235   5.289   2.531  2.0172  1.8961 -0.9600
   71MOL   H57148311   4.322   5.269   2.387  0.3162 -1.9901 -0.4296
   71MOL   H57248312   4.056   5.416   2.382 -0.5847 -0.7690 -1.4499
   71MOL   H57348313   4.192   5.427   2.274  1.5885 -0.9908 -0.0151
   71MOL   H57448314   4.219   5.504   2.566  4.1680 -0.0685  0.2798
   71MOL   H57548315   4.325   5.551   2.435  0.4907  1.4370  0.4868
   71MOL   H57648316   4.054   5.669   2.449 -0.0248 -2.4050  0.9875
   71MOL   H57748317   4.175   5.696   2.331  0.9223 -0.4059  0.1920
   71MOL   H57848318   4.217   5.743   2.622 -2.4686  0.7297  0.5107
   71MOL   H57948319   4.157   5.871   2.503  0.2926 -0.3642 -2.9467
   71MOL   N58048320   4.419   5.904   2.582  0.0310 -0.0602  0.5905
   71MOL   C58148321   4.553   5.961   2.588  0.0238  0.5075  0.4427
   71MOL   C58248322   4.607   6.000   2.725  0.0944 -0.2146 -0.1622
   71MOL   C58348323   4.597   5.895   2.829 -0.7691  0.2272 -0.5182
   71MOL   C58448324   4.642   5.935   2.965 -0.4567 -0.1797 -0.1736
   71MOL   C58548325   4.633   5.838   3.081  0.0222 -0.5354 -0.5538
   71MOL   C58648326   4.488   5.821   3.123  0.1527 -0.2939  0.9013
   71MOL   C58748327   4.463   5.712   3.232  1.5012 -0.0103  0.3008
   71MOL   C58848328   4.523   5.727   3.374  0.7246  0.7530 -0.0886
   71MOL   C58948329   4.480   5.615   3.467  0.6531 -0.4764 -1.1606
   71MOL   C59048330   4.524   5.638   3.610  0.0951  0.4501 -0.4630
   71MOL   C59148331   4.500   5.523   3.703 -0.4419  0.7466 -0.5604
   71MOL   O59248332   4.510   5.407   3.660  0.0009  0.0947  0.5497
   71MOL   H59348333   4.362   5.915   2.664 -0.1277 -0.2817  0.5099
   71MOL   H59448334   4.615   5.879   2.552 -0.7780 -0.2947  0.8532
   71MOL   H59548335   4.550   6.043   2.517  0.9364 -0.8529 -1.2059
   71MOL   H59648336   4.543   6.078   2.767 -0.1792 -0.6895  0.3159
   71MOL   H59748337   4.709   6.034   2.707 -0.4078  0.8709 -0.9788
   71MOL   H59848338   4.491   5.873   2.842 -1.0686  2.5399  1.2196
   71MOL   H59948339   4.647   5.804   2.795  0.0632  1.0149 -1.4571
   71MOL   H60048340   4.604   6.035   2.986 -0.9317 -0.1170 -1.3088
   71MOL   H60148341   4.748   5.950   2.947  0.3185 -1.8051  2.7136
   71MOL   H60248342   4.695   5.871   3.164 -0.5161  1.2524 -0.8473
   71MOL   H60348343   4.667   5.739   3.049  1.1882 -0.7703  1.3957
   71MOL   H60448344   4.450   5.911   3.170 -0.9496 -0.1424 -0.2736
   71MOL   H60548345   4.425   5.792   3.040  0.0804  1.4957  0.3120
   71MOL   H60648346   4.500   5.618   3.189  0.8144  0.8771 -2.3317
   71MOL   H60748347   4.354   5.711   3.244  1.5462  0.5531  0.7566
   71MOL   H60848348   4.631   5.734   3.386  0.8950  1.0853 -1.6577
   71MOL   H60948349   4.480   5.820   3.412 -0.9770 -1.0731  2.5658
   71MOL   H61048350   4.509   5.516   3.430 -1.8173 -2.5262  2.1393
   71MOL   H61148351   4.371   5.610   3.470  0.6778  0.2914  2.8899
   71MOL   H61248352   4.488   5.729   3.658  0.7715 -0.2764  1.4638
   71MOL   H61348353   4.630   5.661   3.609 -0.2006  1.9588  0.6761
   71MOL   N61448354   4.473   5.542   3.831 -0.1911 -0.5553  0.0447
   71MOL   C61548355   4.477   5.440   3.931 -0.7285 -0.1086  0.1627
   71MOL   C61648356   4.341   5.372   3.947 -0.0104 -0.2598 -0.6322
   71MOL   C61748357   4.334   5.278   4.064 -0.3898  0.9431  0.5106
   71MOL   C61848358   4.194   5.220   4.103  0.0419 -0.1046 -0.1055
   71MOL   C61948359   4.163   5.086   4.020  0.6550  0.1617 -0.2393
   71MOL   C62048360   4.020   5.024   4.055  0.4309 -0.3825 -0.6371
   71MOL   C62148361   3.962   4.913   3.957 -0.3607  0.0094 -0.1983
   71MOL   C62248362   3.911   4.974   3.830  0.2713 -0.2564 -0.2242
   71MOL   C62348363   3.886   4.860   3.729 -0.0281 -0.1916  0.6400
   71MOL   C62448364   3.865   4.905   3.587  0.9846 -0.2877 -0.1786
   71MOL   C62548365   3.851   4.786   3.492  0.4930 -0.1059  0.1953
   71MOL   O62648366   3.794   4.681   3.533  0.5963  0.0925 -0.3364
   71MOL   H62748367   4.496   5.634   3.866  0.6011 -1.2413  1.3516
   71MOL   H62848368   4.505   5.481   4.029 -1.9478 -1.7616  1.2317
   71MOL   H62948369   4.557   5.368   3.919 -0.3114  0.6094 -1.3946
   71MOL   H63048370   4.329   5.313   3.856 -2.7658  2.1542 -1.9111
   71MOL   H63148371   4.261   5.446   3.941 -1.4878 -1.7126  0.5923
   71MOL   H63248372   4.402   5.194   4.050 -2.8606 -0.8259 -1.1472
   71MOL   H63348373   4.368   5.334   4.152  0.1674 -1.0929  1.6247
   71MOL   H63448374   4.105   5.282   4.096 -1.6813 -2.6453 -1.4126
   71MOL   H63548375   4.208   5.180   4.203 -1.3254 -0.9338 -0.2348
   71MOL   H63648376   4.237   5.007   4.036 -1.0756 -1.1209  1.6854
   71MOL   H63748377   4.156   5.099   3.912 -2.6593 -0.9172 -0.2130
   71MOL   H63848378   4.033   4.976   4.153 -0.3917 -1.4982 -1.0655
   71MOL   H63948379   3.956   5.110   4.076  1.6008  0.3727 -0.0778
   71MOL   H64048380   3.873   4.868   4.000  1.1543 -3.6953 -0.6958
   71MOL   H64148381   4.039   4.835   3.948 -0.4197 -0.0531 -0.1594
   71MOL   H64248382   3.824   5.039   3.839 -0.3044 -0.8837 -1.2336
   71MOL   H64348383   3.986   5.047   3.797  0.9262 -1.5357 -1.5876
   71MOL   H64448384   3.810   4.796   3.775  0.4177  0.7771  2.7812
   71MOL   H64548385   3.970   4.791   3.729 -2.1473 -2.8988 -0.6488
   71MOL   H64648386   3.948   4.968   3.558  0.9606 -0.3513 -0.3889
   71MOL   H64748387   3.769   4.955   3.574 -0.9133 -2.8244  2.9133
   71MOL   N64848388   3.906   4.797   3.369 -0.0974  0.1100 -0.4889
   71MOL   C64948389   3.888   4.704   3.258  0.3724  0.0674  0.1808
   71MOL   C65048390   4.004   4.720   3.163  0.1041  0.1339  0.1366
   71MOL   C65148391   3.980   4.631   3.044  0.5155  0.1881  0.0477
   71MOL   C65248392   4.103   4.616   2.961 -0.2801  0.8005 -0.0856
   71MOL   C65348393   4.074   4.533   2.834  0.0108  0.1069 -0.1259
   71MOL   C65448394   4.188   4.529   2.733  0.4639 -0.1318  0.3448
   71MOL   C65548395   4.134   4.470   2.600 -0.0212  0.3186 -0.0887
   71MOL   C65648396   4.245   4.445   2.503 -0.4058  0.0507  0.2060
   71MOL   C65748397   4.200   4.368   2.382 -0.1910 -0.4139  0.2432
   71MOL   C65848398   4.119   4.231   2.410  0.2015 -0.3184  0.2452
   71MOL   C65948399   4.139   4.134   2.290  0.1860 -0.5274 -0.3557
   71MOL   O66048400   4.228   4.166   2.209  0.5112  0.4140  0.3416
   71MOL   H66148401   3.945   4.885   3.337  0.3081  0.8223  1.8456
   71MOL   H66248402   3.793   4.729   3.211 -0.5038  0.1483  1.9802
   71MOL   H66348403   3.871   4.603   3.294 -1.8763  0.4319  0.1926
   71MOL   H66448404   4.096   4.710   3.221 -0.7123  0.0593  1.4476
   71MOL   H66548405   4.001   4.822   3.125 -1.4642  1.9144  4.6335
   71MOL   H66648406   3.952   4.530   3.075  0.1021  0.9969  2.3808
   71MOL   H66748407   3.904   4.674   2.980  0.8810 -0.5380 -0.8985
   71MOL   H66848408   4.187   4.569   3.013 -1.1968 -0.4954  0.2454
   71MOL   H66948409   4.125   4.720   2.936 -0.0051  0.1649 -2.6500
   71MOL   H67048410   3.989   4.576   2.780 -0.7678  0.5889  1.4525
   71MOL   H67148411   4.055   4.429   2.860  1.8130 -0.1416  0.2989
   71MOL   H67248412   4.230   4.628   2.715 -0.4997  0.2970  0.4233
   71MOL   H67348413   4.271   4.471   2.773  1.3085  0.8741  0.0563
   71MOL   H67448414   4.050   4.530   2.565 -2.3067 -2.5665  0.2785
   71MOL   H67548415   4.093   4.371   2.618 -3.2442  0.8090 -4.0157
   71MOL   H67648416   4.305   4.535   2.493 -1.2696  0.6126  0.0514
   71MOL   H67748417   4.311   4.377   2.558 -0.4098  1.1462  1.5759
   71MOL   H67848418   4.299   4.354   2.337 -0.8338  0.9569 -1.6883
   71MOL   H67948419   4.152   4.443   2.318  0.9534  0.6550  0.6092
   71MOL   H68048420   4.014   4.246   2.436  0.7190 -0.6298  2.5996
   71MOL   H68148421   4.165   4.185   2.497  0.2560 -2.5784 -0.9418
   71MOL   H68248422   4.072   4.049   2.281 -2.3324  1.4783 -1.1713
   72MOL     N148423   2.593   5.297   1.069 -0.1449  0.1692 -0.6447
   72MOL     C248424   2.660   5.385   1.162  0.5254 -0.0655 -0.3810
   72MOL     C348425   2.601   5.368   1.301 -0.4405 -0.0989  0.3650
   72MOL     C448426   2.629   5.225   1.363 -0.2183 -0.1977 -0.3222
   72MOL     C548427   2.562   5.207   1.506 -0.0217 -0.3038 -0.1410
   72MOL     C648428   2.576   5.069   1.562  0.0281  1.0139 -0.6246
   72MOL     C748429   2.475   5.043   1.683 -0.2000  0.2897  0.2305
   72MOL     C848430   2.447   4.893   1.724  0.3498 -0.6620  0.3654
   72MOL     C948431   2.541   4.829   1.839  0.7178  1.1054  0.6100
   72MOL    C1048432   2.511   4.671   1.862 -0.1896  0.9240 -0.9930
   72MOL    C1148433   2.382   4.653   1.949 -0.1941 -0.5355  0.3418
   72MOL    C1248434   2.405   4.716   2.088 -0.6364  0.0295  0.2168
   72MOL    O1348435   2.470   4.656   2.175 -0.2199  0.0236  0.0770
   72MOL    H1448436   2.582   5.207   1.114 -0.4809  0.7263  0.3978
   72MOL    H1548437   2.649   5.487   1.126  1.4586  0.3825  0.5722
   72MOL    H1648438   2.768   5.372   1.168  0.8406  2.3190 -0.5584
   72MOL    H1748439   2.495   5.381   1.280 -1.0441 -0.4383  2.9926
   72MOL    H1848440   2.639   5.438   1.376  0.1690 -1.4721  1.3773
   72MOL    H1948441   2.606   5.151   1.286  0.3661 -0.6601 -0.0561
   72MOL    H2048442   2.737   5.217   1.371 -0.1211  0.8961 -0.3691
   72MOL    H2148443   2.455   5.230   1.507 -0.0441 -0.4428  2.5090
   72MOL    H2248444   2.594   5.287   1.572  0.4808 -1.2947  0.8302
   72MOL    H2348445   2.678   5.062   1.601 -0.4008  0.0429  0.3587
   72MOL    H2448446   2.576   4.999   1.479  0.6550 -0.4185  0.5562
   72MOL    H2548447   2.508   5.104   1.766 -0.8793  0.0462  0.6873
   72MOL    H2648448   2.384   5.089   1.645  0.2960 -0.0786 -1.4384
   72MOL    H2748449   2.448   4.825   1.639 -0.8364 -0.8956  0.5386
   72MOL    H2848450   2.345   4.893   1.762  0.4533  0.8952  0.6636
   72MOL    H2948451   2.645   4.849   1.814  0.1606  0.9275 -1.9974
   72MOL    H3048452   2.514   4.890   1.925  0.4223  0.5095  0.9406
   72MOL    H3148453   2.595   4.617   1.905 -0.9425  0.9259  0.5013
   72MOL    H3248454   2.502   4.628   1.762  0.1650  0.9477 -1.0357
   72MOL    H3348455   2.347   4.551   1.956 -2.1600  0.0476 -0.5607
   72MOL    H3448456   2.298   4.694   1.893  0.1757  1.0557  0.8945
   72MOL    H3548457   2.653   5.292   0.988 -2.0188 -1.9172 -1.9766
   72MOL    N3648458   2.351   4.836   2.106 -0.1751  0.3601 -0.2696
   72MOL    C3748459   2.352   4.924   2.220  1.1136  0.5717 -0.6551
   72MOL    C3848460   2.488   4.987   2.261 -0.2684  0.3784  0.3529
   72MOL    C3948461   2.474   5.085   2.376  0.3018  0.1575  0.2730
   72MOL    C4048462   2.593   5.176   2.396 -0.1395 -0.2005  0.7963
   72MOL    C4148463   2.568   5.275   2.504  0.0908  0.4475  0.3362
   72MOL    C4248464   2.681   5.374   2.515 -0.0995 -0.2056 -0.2690
   72MOL    C4348465   2.685   5.473   2.634  0.2388  0.3648  0.2935
   72MOL    C4448466   2.797   5.581   2.621 -0.1918 -0.3320  0.2232
   72MOL    C4548467   2.796   5.682   2.735  0.1009 -0.1942  0.6493
   72MOL    C4648468   2.847   5.827   2.705 -0.9290  0.1622 -0.4366
   72MOL    C4748469   2.760   5.901   2.601 -0.7547 -0.3003  0.7280
   72MOL    O4848470   2.764   5.886   2.478  0.2322 -0.2709 -0.6532
   72MOL    H4948471   2.284   4.860   2.035  1.0881  1.4353 -1.1236
   72MOL    H5048472   2.278   5.000   2.198  0.1484 -0.1839 -0.0561
   72MOL    H5148473   2.309   4.855   2.293  0.2149 -1.7580 -3.2771
   72MOL    H5248474   2.535   5.034   2.175 -1.1112 -2.6524 -1.8473
   72MOL    H5348475   2.554   4.901   2.275 -0.2482  0.1263 -1.1372
   72MOL    H5448476   2.386   5.146   2.355 -1.6050 -3.5613 -3.2715
   72MOL    H5548477   2.470   5.025   2.467  1.6630 -1.4264 -0.6867
   72MOL    H5648478   2.616   5.234   2.307  0.1009  0.6135  1.3866
   72MOL    H5748479   2.682   5.115   2.414 -0.0849 -0.2829  0.2548
   72MOL    H5848480   2.553   5.217   2.595 -0.0317  0.7077  0.4817
   72MOL    H5948481   2.472   5.322   2.483  0.5328  2.4040  2.5447
   72MOL    H6048482   2.776   5.321   2.522  1.2440  2.0910 -0.6835
   72MOL    H6148483   2.673   5.428   2.420 -0.8417 -1.3329 -0.8643
   72MOL    H6248484   2.701   5.416   2.725 -0.8821  0.0701  0.3192
   72MOL    H6348485   2.588   5.524   2.636  0.4247  0.9133 -2.2191
   72MOL    H6448486   2.886   5.518   2.621 -0.8451 -1.3148  3.0842
   72MOL    H6548487   2.796   5.622   2.520  1.6880  1.7308  1.0102
   72MOL    H6648488   2.849   5.643   2.821  1.0442  0.6677  0.4663
   72MOL    H6748489   2.692   5.690   2.766 -0.0961 -2.7864  0.7457
   72MOL    H6848490   2.949   5.826   2.665 -0.5443  0.7934  0.5039
   72MOL    H6948491   2.853   5.886   2.796  1.2951  0.7705 -0.9424
   72MOL    N7048492   2.658   5.973   2.650 -0.4746 -0.6439 -0.0890
   72MOL    C7148493   2.554   6.036   2.573  0.1852 -0.0970  0.0282
   72MOL    C7248494   2.416   5.983   2.596 -0.1719  0.0600 -0.3082
   72MOL    C7348495   2.380   5.857   2.517 -0.2312  0.8126  0.4487
   72MOL    C7448496   2.252   5.784   2.568 -0.1124 -0.1722 -0.8105
   72MOL    C7548497   2.205   5.661   2.494 -0.3910 -0.8260 -0.0652
   72MOL    C7648498   2.069   5.594   2.549 -0.1613 -0.3691 -0.0489
   72MOL    C7748499   2.017   5.481   2.460  0.0124  0.6318  0.6878
   72MOL    C7848500   2.056   5.338   2.505  0.2788  0.1421 -0.0291
   72MOL    C7948501   1.965   5.227   2.439 -0.2224 -0.1734  0.0396
   72MOL    C8048502   1.980   5.083   2.499 -0.3695 -0.5418  0.1862
   72MOL    C8148503   1.899   4.975   2.430  0.0310 -0.1578  0.7952
   72MOL    O8248504   1.902   4.973   2.307  0.3086  0.6449 -0.3887
   72MOL    H8348505   2.652   5.990   2.749  1.3851  1.1749 -0.2550
   72MOL    H8448506   2.556   6.136   2.617  0.3514 -0.0178 -0.1555
   72MOL    H8548507   2.570   6.042   2.465 -0.7237 -1.5276 -0.1977
   72MOL    H8648508   2.355   6.062   2.552 -0.4775 -1.2521 -2.2635
   72MOL    H8748509   2.401   5.974   2.704  1.9119 -0.0196  0.0021
   72MOL    H8848510   2.363   5.875   2.411  0.4866  0.5357  0.2853
   72MOL    H8948511   2.462   5.786   2.529  0.1241  1.4942  2.1227
   72MOL    H9048512   2.168   5.853   2.566  0.3679  0.4206 -0.6521
   72MOL    H9148513   2.266   5.761   2.673 -0.8912  0.8237 -0.4754
   72MOL    H9248514   2.286   5.587   2.494 -1.2765 -1.8123  0.0574
   72MOL    H9348515   2.200   5.692   2.390  2.9606 -0.5302 -0.2189
   72MOL    H9448516   2.076   5.561   2.653 -0.5009 -0.9755 -0.2173
   72MOL    H9548517   1.989   5.667   2.538  1.8146  1.9637  0.6669
   72MOL    H9648518   2.013   5.505   2.354  0.0792  1.8999  0.9542
   72MOL    H9748519   1.913   5.482   2.494 -0.1838  0.5650  0.0840
   72MOL    H9848520   2.159   5.329   2.472  1.0706  1.6505  1.9233
   72MOL    H9948521   2.049   5.321   2.613 -0.1632 -1.6975 -0.3371
   72MOL   H10048522   1.995   5.232   2.334  1.1536  0.3661  0.4452
   72MOL   H10148523   1.862   5.262   2.453  0.1236  1.1543 -0.6019
   72MOL   H10248524   1.963   5.086   2.607 -1.5035 -0.7836  0.0196
   72MOL   H10348525   2.083   5.050   2.487 -0.9281 -2.2536 -0.1554
   72MOL   N10448526   1.844   4.881   2.511 -0.2119  0.1887 -0.0804
   72MOL   C10548527   1.727   4.803   2.463  0.3800  0.1124 -0.2495
   72MOL   C10648528   1.592   4.868   2.480 -0.8270 -0.0512 -0.3775
   72MOL   C10748529   1.555   4.907   2.624  0.1047  0.0501 -0.3493
   72MOL   C10848530   1.401   4.910   2.646 -0.6459  0.1071  0.1890
   72MOL   C10948531   1.347   4.975   2.770 -0.3287  0.0809  0.1936
   72MOL   C11048532   1.200   4.932   2.795  1.0229 -0.2207 -1.3025
   72MOL   C11148533   1.124   5.023   2.897  0.6645  0.2174 -0.1114
   72MOL   C11248534   1.005   4.949   2.961  0.3220  0.0847 -0.1938
   72MOL   C11348535   0.919   5.046   3.050 -0.3568 -0.6808  0.7969
   72MOL   C11448536   0.785   4.995   3.088 -0.0110  0.7799  0.3958
   72MOL   C11548537   0.710   5.098   3.167  0.4994 -0.1687 -0.6041
   72MOL   O11648538   0.665   5.200   3.109  0.4096  0.4694 -0.1115
   72MOL   H11748539   1.852   4.886   2.611 -2.4518  1.4125  0.0716
   72MOL   H11848540   1.744   4.770   2.360  1.8881 -1.5218  0.5124
   72MOL   H11948541   1.721   4.707   2.516  0.6389 -0.1001 -0.6039
   72MOL   H12048542   1.516   4.802   2.439 -1.2936 -0.9700  1.8734
   72MOL   H12148543   1.594   4.969   2.439 -0.0591  1.2865  2.7999
   72MOL   H12248544   1.586   4.824   2.687 -0.6228 -0.2509 -0.3838
   72MOL   H12348545   1.601   4.997   2.663  0.7258 -0.4509  0.0750
   72MOL   H12448546   1.358   4.810   2.652 -1.1065  0.3518  1.0053
   72MOL   H12548547   1.352   4.965   2.565 -0.0518  2.2121  1.2091
   72MOL   H12648548   1.359   5.083   2.780 -1.6744  0.1940  0.6271
   72MOL   H12748549   1.395   4.943   2.863  1.8517  0.1262 -0.8838
   72MOL   H12848550   1.147   4.937   2.701 -3.6678 -0.3905  1.1887
   72MOL   H12948551   1.195   4.827   2.823  0.1253  0.1841  0.1297
   72MOL   H13048552   1.092   5.120   2.860 -1.5159 -0.4601 -0.0742
   72MOL   H13148553   1.183   5.041   2.987 -1.8258  0.9428  1.4187
   72MOL   H13248554   0.946   4.900   2.884  1.8222 -1.4396 -0.4090
   72MOL   H13348555   1.036   4.858   3.013 -1.5238 -1.5018 -1.7815
   72MOL   H13448556   0.905   5.140   2.996  1.1820  0.1574  1.7999
   72MOL   H13548557   0.989   5.077   3.128  1.6962 -0.2592 -1.1683
   72MOL   H13648558   0.798   4.904   3.147 -1.1195 -0.5303 -1.3412
   72MOL   H13748559   0.725   4.962   3.003  1.1751 -1.5359  0.4159
   72MOL   N13848560   0.701   5.069   3.296 -0.3486  0.2191 -0.4010
   72MOL   C13948561   0.624   5.147   3.388 -0.0351  0.8409  0.6600
   72MOL   C14048562   0.471   5.104   3.387 -0.4990  0.1330  0.2605
   72MOL   C14148563   0.398   5.190   3.489 -0.0140  0.0098 -0.0913
   72MOL   C14248564   0.368   5.328   3.430  0.2857 -0.5719 -0.2575
   72MOL   C14348565   0.261   5.413   3.508 -0.6417 -0.3993 -0.5315
   72MOL   C14448566   0.225   5.557   3.442  0.4857  0.5865  0.2364
   72MOL   C14548567   0.327   5.666   3.447 -0.5531  0.2350 -0.5695
   72MOL   C14648568   0.368   5.704   3.595 -0.5385 -0.5882 -0.7742
   72MOL   C14748569   0.432   5.841   3.624  0.0086  0.0339 -0.1736
   72MOL   C14848570   0.586   5.850   3.591  0.6391  0.9392 -0.5839
   72MOL   C14948571   0.670   5.774   3.697 -0.4792  0.5098  0.1696
   72MOL   O15048572   0.618   5.724   3.793  0.6104  0.6971 -0.2543
   72MOL   H15148573   0.739   4.982   3.331 -1.9547  0.2092  1.4408
   72MOL   H15248574   0.652   5.115   3.489 -0.6425  0.0200  0.5772
   72MOL   H15348575   0.630   5.254   3.372 -2.4415  0.6214 -2.0223
   72MOL   H15448576   0.449   5.006   3.430  0.1402 -0.2806 -0.3494
   72MOL   H15548577   0.422   5.108   3.290 -1.6741 -2.0358  0.7206
   72MOL   H15648578   0.295   5.156   3.503  0.1214  0.7517  2.9998
   72MOL   H15748579   0.445   5.200   3.587 -2.0048  0.5891  0.8259
   72MOL   H15848580   0.341   5.312   3.326  0.5885 -1.2621 -0.2298
   72MOL   H15948581   0.456   5.393   3.431  0.0850 -0.2326 -2.6488
   72MOL   H16048582   0.270   5.425   3.616 -4.0451 -0.4748 -0.1991
   72MOL   H16148583   0.168   5.356   3.515 -0.7952  0.0246  1.0224
   72MOL   H16248584   0.202   5.537   3.337  0.1097 -0.2929  0.4799
   72MOL   H16348585   0.136   5.593   3.493  1.3783  1.3668  1.2697
   72MOL   H16448586   0.279   5.756   3.409 -0.1846  0.5008 -0.4001
   72MOL   H16548587   0.414   5.646   3.384  0.2060  0.5665  0.3693
   72MOL   H16648588   0.276   5.708   3.653 -1.2700  1.2774 -1.9974
   72MOL   H16748589   0.421   5.622   3.643 -0.5604 -0.4839 -0.5745
   72MOL   H16848590   0.420   5.865   3.729  2.0684  0.5266 -0.0251
   72MOL   H16948591   0.375   5.917   3.570  0.1961  1.1424  1.1696
   72MOL   H17048592   0.613   5.954   3.607  0.2344  1.1117 -1.0091
   72MOL   H17148593   0.610   5.808   3.493  1.0882 -0.8916  0.2852
   72MOL   N17248594   0.802   5.767   3.676  0.4348  0.6457 -0.7223
   72MOL   C17348595   0.892   5.711   3.780  0.1721  0.2095  0.3877
   72MOL   C17448596   0.949   5.571   3.753 -0.3823  0.5774  0.2019
   72MOL   C17548597   1.029   5.524   3.877  0.0400 -0.2555 -0.3768
   72MOL   C17648598   1.121   5.395   3.847  0.1916 -0.2374 -0.3168
   72MOL   C17748599   1.239   5.446   3.758  0.1336 -0.1070 -0.4482
   72MOL   C17848600   1.356   5.351   3.754  0.6638  0.1695  0.1297
   72MOL   C17948601   1.494   5.416   3.720 -0.0846 -0.3514  0.7988
   72MOL   C18048602   1.513   5.434   3.567 -0.0208  0.4749 -0.3862
   72MOL   C18148603   1.639   5.518   3.553  0.0985  0.0804 -0.6853
   72MOL   C18248604   1.647   5.606   3.427  0.4216 -0.4305 -0.5177
   72MOL   C18348605   1.752   5.565   3.326 -0.5165 -0.1036 -0.1435
   72MOL   O18448606   1.865   5.548   3.368  0.0386  0.3341  0.1671
   72MOL   H18548607   0.842   5.803   3.591  0.1261  1.2384 -0.6157
   72MOL   H18648608   0.978   5.777   3.792 -2.0396  3.4202 -0.8411
   72MOL   H18748609   0.841   5.714   3.876  1.5202  0.7558  1.0967
   72MOL   H18848610   1.013   5.571   3.664 -1.3924 -2.7236 -0.6147
   72MOL   H18948611   0.875   5.497   3.723  0.4819 -0.6953  1.1476
   72MOL   H19048612   1.087   5.603   3.925  1.6737 -2.3471  1.2062
   72MOL   H19148613   0.957   5.499   3.955 -1.4102  0.5057 -1.4583
   72MOL   H19248614   1.058   5.320   3.800 -2.5983  3.0105 -2.0232
   72MOL   H19348615   1.159   5.355   3.941  0.7157  1.0347  0.0274
   72MOL   H19448616   1.267   5.540   3.804 -0.3018  0.1614 -0.7261
   72MOL   H19548617   1.201   5.458   3.656 -1.2868 -0.8906 -0.0321
   72MOL   H19648618   1.362   5.314   3.856 -2.1249  0.1310  0.3223
   72MOL   H19748619   1.333   5.267   3.689  0.5990 -0.5151  1.0247
   72MOL   H19848620   1.576   5.350   3.749 -0.0823 -0.4861  0.4871
   72MOL   H19948621   1.518   5.508   3.774 -2.1200  1.6421 -1.5945
   72MOL   H20048622   1.524   5.339   3.516 -3.3149  1.3429 -2.8177
   72MOL   H20148623   1.430   5.488   3.521  0.6655 -0.5796 -2.9240
   72MOL   H20248624   1.722   5.447   3.551 -0.2032 -0.3163  0.5395
   72MOL   H20348625   1.647   5.588   3.637 -0.7887 -0.7192  0.0782
   72MOL   H20448626   1.673   5.707   3.460  1.3335 -0.4657 -1.0875
   72MOL   H20548627   1.549   5.619   3.381  0.3483 -0.0843 -0.2606
   72MOL   N20648628   1.718   5.564   3.199  0.5871 -0.0979 -0.0948
   72MOL   C20748629   1.797   5.543   3.083  0.9637 -0.8216  1.0620
   72MOL   C20848630   1.837   5.677   3.034 -0.0268 -0.0820  0.6570
   72MOL   C20948631   1.902   5.672   2.892  0.5152 -0.4194 -0.4809
   72MOL   C21048632   1.937   5.814   2.842  0.6395 -0.2572  0.4271
   72MOL   C21148633   2.040   5.886   2.923  0.1847  0.6470  0.1476
   72MOL   C21248634   2.073   6.025   2.865 -0.1652  0.5061 -0.0485
   72MOL   C21348635   2.200   6.088   2.919 -0.0847 -0.1961  0.1596
   72MOL   C21448636   2.255   6.222   2.878 -0.3062 -0.4893 -0.5320
   72MOL   C21548637   2.409   6.238   2.897 -0.2401  0.0379  0.7363
   72MOL   C21648638   2.474   6.371   2.848 -0.3820  0.0438  0.3656
   72MOL   C21748639   2.397   6.499   2.889 -0.1321 -0.0866  0.5603
   72MOL   O21848640   2.423   6.561   2.992 -0.1751  0.4775 -0.3645
   72MOL   H21948641   1.621   5.579   3.176  0.0560 -2.5905  0.4158
   72MOL   H22048642   1.737   5.486   3.013 -0.4757  1.1155  0.6608
   72MOL   H22148643   1.887   5.486   3.105  0.5195 -1.6193  0.7958
   72MOL   H22248644   1.903   5.722   3.108  0.8829 -1.2619  0.5829
   72MOL   H22348645   1.750   5.742   3.029 -0.8982 -1.2555  0.2194
   72MOL   H22448646   1.993   5.611   2.893 -0.6119 -2.1113 -0.3161
   72MOL   H22548647   1.830   5.626   2.824  0.8776 -0.2566 -0.9820
   72MOL   H22648648   1.844   5.872   2.839  0.0971 -1.0161  2.3023
   72MOL   H22748649   1.972   5.786   2.742  0.6160 -0.4150  0.4634
   72MOL   H22848650   2.125   5.818   2.914  0.7769  1.5061 -0.8234
   72MOL   H22948651   2.016   5.893   3.029  0.8438 -2.4130  0.5697
   72MOL   H23048652   2.078   6.019   2.756 -0.4442  1.2674 -0.1102
   72MOL   H23148653   1.992   6.096   2.883 -0.9908 -0.9242  2.0413
   72MOL   H23248654   2.284   6.021   2.900  0.5890  0.1894  1.6518
   72MOL   H23348655   2.201   6.086   3.028  0.5623 -1.0622  0.1451
   72MOL   H23448656   2.229   6.245   2.775 -0.4682 -1.5908 -0.7461
   72MOL   H23548657   2.206   6.307   2.924 -2.2502 -1.7136 -0.2763
   72MOL   H23648658   2.454   6.155   2.842 -0.8599  0.2005 -0.0271
   72MOL   H23748659   2.443   6.224   2.999 -0.4494 -2.3728  0.5001
   72MOL   H23848660   2.479   6.369   2.739  0.1634 -0.9846  0.4044
   72MOL   H23948661   2.578   6.362   2.878  0.0045  3.5903  0.3167
   72MOL   N24048662   2.303   6.540   2.804 -0.8560 -0.3163 -0.3093
   72MOL   C24148663   2.215   6.652   2.827 -0.5053 -0.1699  0.0583
   72MOL   C24248664   2.224   6.767   2.711 -0.7654  1.1847 -0.7752
   72MOL   C24348665   2.376   6.791   2.683  0.1733 -0.6932 -0.3642
   72MOL   C24448666   2.460   6.863   2.792  0.4508 -0.2475 -0.1966
   72MOL   C24548667   2.392   6.997   2.825  0.9684  0.3419 -0.1467
   72MOL   C24648668   2.468   7.096   2.916  0.0834  0.2359 -0.1838
   72MOL   C24748669   2.374   7.195   2.986 -0.3307 -0.6010 -0.4635
   72MOL   C24848670   2.451   7.312   3.052 -0.3327 -0.3006 -0.1380
   72MOL   C24948671   2.352   7.420   3.107  0.3714  0.0993 -0.3662
   72MOL   C25048672   2.403   7.539   3.198  0.4004  0.1703 -0.1846
   72MOL   C25148673   2.290   7.622   3.272 -0.4927  0.3733 -0.0109
   72MOL   O25248674   2.173   7.584   3.259  0.0702 -0.1501 -0.6860
   72MOL   H25348675   2.281   6.484   2.723  0.4591 -1.7093  0.2720
   72MOL   H25448676   2.233   6.698   2.924  1.0779  1.0131 -0.7860
   72MOL   H25548677   2.111   6.618   2.829  0.0790 -2.0788 -0.9956
   72MOL   H25648678   2.176   6.858   2.746 -1.4198  0.4201  0.3654
   72MOL   H25748679   2.177   6.720   2.624 -0.5428  0.4067 -0.4851
   72MOL   H25848680   2.436   6.704   2.659  1.4782 -0.1805  0.9822
   72MOL   H25948681   2.377   6.857   2.596 -0.2649 -1.1714 -0.7383
   72MOL   H26048682   2.555   6.876   2.741 -0.5851 -2.3636 -2.7918
   72MOL   H26148683   2.468   6.799   2.880  1.4224 -2.5661 -1.9371
   72MOL   H26248684   2.299   6.972   2.875 -1.1211  3.7386 -2.1545
   72MOL   H26348685   2.364   7.045   2.732  0.5390  0.3848  0.0066
   72MOL   H26448686   2.528   7.045   2.991 -0.9210  0.7668  0.9931
   72MOL   H26548687   2.536   7.150   2.850  0.3107 -0.0806 -0.2063
   72MOL   H26648688   2.322   7.133   3.060 -0.6342 -0.4532 -0.5561
   72MOL   H26748689   2.295   7.244   2.929 -0.5340 -0.1110  0.2282
   72MOL   H26848690   2.515   7.274   3.132 -1.4645 -2.7477 -0.3321
   72MOL   H26948691   2.511   7.370   2.982  1.4741 -1.9187  0.0420
   72MOL   H27048692   2.268   7.371   3.156 -0.1014  1.0754 -0.1908
   72MOL   H27148693   2.321   7.476   3.019  1.4613 -0.0899 -0.8768
   72MOL   H27248694   2.474   7.598   3.140  0.1898  0.7995  0.1916
   72MOL   H27348695   2.454   7.489   3.281  0.0407  0.6493  0.3332
   72MOL   N27448696   2.337   0.006   3.348  0.6037 -0.1948 -0.5517
   72MOL   C27548697   2.251   0.087   3.432  0.2259  0.6306  0.1308
   72MOL   C27648698   2.334   0.157   3.544  0.1122 -0.2183  0.0840
   72MOL   C27748699   2.404   0.282   3.494  0.6682  0.7230 -0.5235
   72MOL   C27848700   2.505   0.344   3.594 -0.0864 -0.2179 -0.3230
   72MOL   C27948701   2.434   0.408   3.713  0.4771  0.4131 -0.0966
   72MOL   C28048702   2.526   0.490   3.819 -1.0621 -0.6677  0.0311
   72MOL   C28148703   2.442   0.561   3.939  0.5501  0.3260 -0.2016
   72MOL   C28248704   2.364   0.460   4.014 -0.5910  0.0003  0.5860
   72MOL   C28348705   2.268   0.522   4.124  1.1365 -0.5101 -0.6373
   72MOL   C28448706   2.189   0.422   4.210 -0.5322 -0.0275  0.0175
   72MOL   C28548707   2.123   0.482   4.336  0.5647 -0.4666 -0.5459
   72MOL   O28648708   2.152   0.595   4.372  0.2286  0.5206  0.2631
   72MOL   H28748709   2.435   0.029   3.357  0.2027  1.1686  0.4131
   72MOL   H28848710   2.172   0.030   3.481  0.1985  0.8712  0.3708
   72MOL   H28948711   2.189   0.159   3.377  2.1597  0.5394 -2.2489
   72MOL   H29048712   2.409   0.088   3.582 -1.1085 -1.0289  1.0547
   72MOL   H29148713   2.255   0.187   3.613 -2.6084 -1.5972 -2.3158
   72MOL   H29248714   2.459   0.255   3.404 -1.1956  1.4829 -1.9213
   72MOL   H29348715   2.325   0.355   3.479  1.8134  2.1246  0.1911
   72MOL   H29448716   2.555   0.428   3.545  0.7120 -0.3724  0.2149
   72MOL   H29548717   2.579   0.268   3.623 -0.1948 -1.3156 -2.7530
   72MOL   H29648718   2.379   0.328   3.762  0.9926 -0.1219 -0.3963
   72MOL   H29748719   2.350   0.472   3.686  0.0996  1.2416  2.8102
   72MOL   H29848720   2.609   0.427   3.852 -0.1307  1.5518  2.0307
   72MOL   H29948721   2.564   0.575   3.762 -0.9017 -0.6524  0.1605
   72MOL   H30048722   2.360   0.611   3.886  0.5374  3.0939  2.2961
   72MOL   H30148723   2.491   0.635   4.003  2.0213 -1.0405  0.2779
   72MOL   H30248724   2.311   0.386   3.954  1.0254 -0.8589  0.1611
   72MOL   H30348725   2.434   0.400   4.073 -0.1645 -0.2697 -0.1844
   72MOL   H30448726   2.196   0.581   4.067  2.2432  0.1734 -1.3601
   72MOL   H30548727   2.325   0.601   4.173 -0.9370  1.6178 -1.5380
   72MOL   H30648728   2.258   0.348   4.251  1.4521  1.7925  0.0664
   72MOL   H30748729   2.119   0.364   4.149  1.4740 -1.8589 -0.6110
   72MOL   N30848730   2.020   0.416   4.390  0.1488  0.7393 -0.1398
   72MOL   C30948731   1.929   0.467   4.490  0.0197 -0.3847  0.4441
   72MOL   C31048732   1.799   0.384   4.499  0.8293  0.4131 -0.0711
   72MOL   C31148733   1.716   0.395   4.369  0.3953 -0.4127  0.0026
   72MOL   C31248734   1.576   0.336   4.368  0.6269  1.0520  0.2951
   72MOL   C31348735   1.510   0.319   4.229 -0.2659 -0.5331 -0.4740
   72MOL   C31448736   1.390   0.218   4.223 -0.6438  0.2062  0.1344
   72MOL   C31548737   1.274   0.243   4.319  0.7231  0.1241 -0.0397
   72MOL   C31648738   1.154   0.156   4.273  0.0537 -0.6773  0.4607
   72MOL   C31748739   1.038   0.151   4.372  0.0145 -1.0810 -0.5926
   72MOL   C31848740   1.012   0.302   4.420 -0.0279  0.4842  0.4628
   72MOL   C31948741   0.877   0.303   4.506  0.2436 -0.5156 -0.1880
   72MOL   O32048742   0.832   0.198   4.552 -0.6809  0.2376  0.1621
   72MOL   H32148743   2.011   0.321   4.357 -0.4995  1.7429 -2.9324
   72MOL   H32248744   1.892   0.568   4.476 -0.3068 -0.6665 -0.8370
   72MOL   H32348745   1.986   0.474   4.582  1.1936  0.2552 -0.3189
   72MOL   H32448746   1.730   0.421   4.574  1.7484  4.9015 -1.2748
   72MOL   H32548747   1.816   0.283   4.536 -1.9734  0.4136  1.3332
   72MOL   H32648748   1.698   0.500   4.345 -2.1443 -1.1469 -1.5415
   72MOL   H32748749   1.776   0.348   4.292 -0.0991 -2.1126  0.6399
   72MOL   H32848750   1.506   0.402   4.420 -0.1119  1.0811 -0.7114
   72MOL   H32948751   1.575   0.236   4.411 -2.1578  1.3733  1.1151
   72MOL   H33048752   1.594   0.288   4.167  1.6679  4.5152 -0.6602
   72MOL   H33148753   1.481   0.414   4.185  0.1777  0.6132  1.6448
   72MOL   H33248754   1.351   0.217   4.122  2.3215 -0.5689 -1.0471
   72MOL   H33348755   1.433   0.121   4.248 -0.3947  0.1946 -0.3539
   72MOL   H33448756   1.251   0.347   4.298  0.2896 -0.1492 -0.9435
   72MOL   H33548757   1.298   0.225   4.424  0.0814  1.2060  0.2961
   72MOL   H33648758   1.118   0.195   4.178  3.0798  1.5615  0.1595
   72MOL   H33748759   1.183   0.051   4.268  3.5278  0.2239  0.2385
   72MOL   H33848760   1.064   0.099   4.464 -0.0962  0.6187  0.4350
   72MOL   H33948761   0.940   0.123   4.333  0.5787 -3.4470 -0.3919
   72MOL   H34048762   1.004   0.361   4.328  1.3165  1.1192  0.7440
   72MOL   H34148763   1.094   0.347   4.476 -0.4802 -1.6836  2.9228
   72MOL   N34248764   0.827   0.424   4.527 -0.0445  0.1255 -0.3237
   72MOL   C34348765   0.697   0.465   4.576 -0.5532 -0.3704  0.2037
   72MOL   C34448766   0.670   0.611   4.533  0.2960  0.1473 -0.5562
   72MOL   C34548767   0.526   0.657   4.555  0.1723 -0.6558 -0.1413
   72MOL   C34648768   0.490   0.693   4.698  1.0021 -0.0530 -0.0519
   72MOL   C34748769   0.342   0.733   4.723  0.4315 -0.1151  0.0369
   72MOL   C34848770   0.238   0.620   4.709  0.5864 -0.1872 -0.0304
   72MOL   C34948771   0.249   0.513   4.812  0.1868 -0.1935  0.0410
   72MOL   C35048772   0.140   0.407   4.801 -0.0577  0.0233  1.1032
   72MOL   C35148773   0.125   0.315   4.924  0.9944 -0.3467 -1.1576
   72MOL   C35248774   0.062   0.183   4.883 -0.2467  0.1424  0.0467
   72MOL   C35348775   0.094   0.072   4.987 -0.4833 -0.7322 -0.5515
   72MOL   O35448776   0.212   0.059   5.033 -0.3205 -0.5598 -0.2615
   72MOL   H35548777   0.889   0.502   4.512 -0.0778  0.2544  0.2067
   72MOL   H35648778   0.616   0.398   4.548  1.4452 -1.9654 -1.9068
   72MOL   H35748779   0.701   0.460   4.685 -1.4301  0.8362  0.2917
   72MOL   H35848780   0.696   0.629   4.428  1.6890 -2.9605 -0.7983
   72MOL   H35948781   0.734   0.687   4.579 -0.8949  1.6278 -1.2814
   72MOL   H36048782   0.510   0.745   4.492  0.2561  0.3009  1.1434
   72MOL   H36148783   0.459   0.579   4.520 -0.6575  0.8566 -2.0295
   72MOL   H36248784   0.552   0.776   4.731  0.8833 -0.6748  1.7722
   72MOL   H36348785   0.505   0.600   4.754 -2.0290 -0.4339  0.1879
   72MOL   H36448786   0.325   0.821   4.662  0.8969 -0.5375 -0.7142
   72MOL   H36548787   0.330   0.759   4.828 -0.8911 -1.8386  0.3366
   72MOL   H36648788   0.139   0.664   4.724  0.7107  0.5639 -1.3959
   72MOL   H36748789   0.240   0.586   4.606  1.3586  1.0083 -0.4194
   72MOL   H36848790   0.236   0.568   4.904  1.1320  0.6336 -0.3121
   72MOL   H36948791   0.347   0.465   4.820  1.2228  1.9024  0.1332
   72MOL   H37048792   0.045   0.461   4.804 -0.1189 -0.0396  0.4298
   72MOL   H37148793   0.152   0.349   4.709 -2.3448  2.2586 -0.6617
   72MOL   H37248794   0.068   0.373   4.997  1.7004 -1.7176  0.5120
   72MOL   H37348795   0.218   0.297   4.977  0.6509  1.6440  0.1956
   72MOL   H37448796   0.091   0.140   4.786 -1.2765 -0.5749  0.0450
   72MOL   H37548797   7.669   0.193   4.880 -0.3621 -0.7851  1.0450
   72MOL   N37648798   7.714   7.699   5.023 -0.1230  0.8401 -0.3696
   72MOL   C37748799   0.029   7.580   5.101  0.6711  0.2131 -1.0205
   72MOL   C37848800   7.626   7.494   5.135 -0.2208 -0.2439  0.1956
   72MOL   C37948801   7.663   7.350   5.177 -0.0097 -0.9921 -1.0007
   72MOL   C38048802   7.653   7.242   5.064  0.0543  0.0402  0.6120
   72MOL   C38148803   7.692   7.102   5.116  0.3907 -0.2478 -0.3422
   72MOL   C38248804   0.128   7.090   5.162 -0.3974 -1.0355 -0.7142
   72MOL   C38348805   0.173   6.942   5.169  0.4038 -0.0526  0.3791
   72MOL   C38448806   0.148   6.883   5.312 -0.3097  0.5274  1.4965
   72MOL   C38548807   0.209   6.737   5.328  0.5756 -0.5305 -0.6212
   72MOL   C38648808   0.178   6.677   5.470 -0.5211 -0.3458 -0.3147
   72MOL   C38748809   0.230   6.761   5.588 -0.2176  0.4051 -1.2457
   72MOL   O38848810   0.157   6.845   5.643  0.1235  0.1228 -0.0959
   72MOL   H38948811   7.619   0.009   5.000  0.7940  1.9127 -3.2078
   72MOL   H39048812   0.100   7.518   5.046  0.0748 -1.2512 -0.1833
   72MOL   H39148813   0.086   7.606   5.190 -0.7647  2.3806 -0.6947
   72MOL   H39248814   7.560   7.504   5.049  0.9791  0.6649 -0.6263
   72MOL   H39348815   7.582   7.540   5.224 -1.2764 -0.1846 -0.3510
   72MOL   H39448816   0.046   7.359   5.221  0.6653 -1.2576 -2.4275
   72MOL   H39548817   7.601   7.319   5.261  1.7326  1.6939  1.3489
   72MOL   H39648818   7.709   7.273   4.975 -0.7717 -0.1270  0.0221
   72MOL   H39748819   7.553   7.240   5.020  1.0229 -0.0150 -1.6839
   72MOL   H39848820   7.676   7.028   5.037 -0.8453 -1.4552  0.9970
   72MOL   H39948821   7.631   7.076   5.202  0.4288  0.0846 -0.2156
   72MOL   H40048822   0.194   7.149   5.098 -0.5396  0.5044  0.5259
   72MOL   H40148823   0.143   7.135   5.260  2.3027  1.3161 -2.1103
   72MOL   H40248824   0.280   6.929   5.154  0.6131  0.4279  1.4330
   72MOL   H40348825   0.132   6.876   5.092 -0.9493 -0.8323  1.7299
   72MOL   H40448826   0.196   6.952   5.381 -1.7336  2.1009  0.9532
   72MOL   H40548827   0.041   6.889   5.329 -0.6605 -0.2244 -0.2668
   72MOL   H40648828   0.315   6.748   5.306  0.7379  0.2196  0.4761
   72MOL   H40748829   0.183   6.675   5.242  0.3938 -1.6399  0.2242
   72MOL   H40848830   0.224   6.579   5.474 -3.3590 -1.7482 -0.3759
   72MOL   H40948831   0.071   6.653   5.475 -0.7042  0.7501  1.5716
   72MOL   N41048832   0.349   6.731   5.644  0.4960  0.0061 -0.5081
   72MOL   C41148833   0.394   6.807   5.762  0.1033 -0.3121  0.4188
   72MOL   C41248834   0.551   6.805   5.777  1.1187  0.0855 -0.5621
   72MOL   C41348835   0.615   6.891   5.678  0.1957  0.0335 -0.1176
   72MOL   C41448836   0.767   6.889   5.692  0.0371 -0.7191 -0.5852
   72MOL   C41548837   0.829   6.773   5.619 -0.5039  0.0073  0.4527
   72MOL   C41648838   0.984   6.758   5.639 -0.2628  0.1058  0.4826
   72MOL   C41748839   1.014   6.687   5.774  0.1462  0.0109 -0.2469
   72MOL   C41848840   0.963   6.543   5.787 -0.4865 -0.2120 -1.2120
   72MOL   C41948841   1.059   6.459   5.880 -0.5139  0.1009  0.3899
   72MOL   C42048842   1.038   6.310   5.875  0.2873 -0.1516 -0.0917
   72MOL   C42148843   1.131   6.237   5.975 -0.7316 -0.4972  0.1409
   72MOL   O42248844   1.251   6.249   5.969 -0.4188  0.2398 -0.5973
   72MOL   H42348845   0.412   6.664   5.603  0.6139  0.4271 -1.0246
   72MOL   H42448846   0.361   6.909   5.745 -0.7057 -0.3408  1.7790
   72MOL   H42548847   0.338   6.764   5.846 -2.9663  2.5646 -0.0486
   72MOL   H42648848   0.585   6.703   5.757  1.9256  0.0383  0.9530
   72MOL   H42748849   0.582   6.827   5.879 -1.7374  0.3877  0.2716
   72MOL   H42848850   0.576   6.876   5.577 -0.4109  2.4810 -0.2734
   72MOL   H42948851   0.570   6.987   5.702 -1.2091 -0.1899 -1.7387
   72MOL   H43048852   0.797   6.896   5.796  2.0283  1.7471 -1.2775
   72MOL   H43148853   0.805   6.980   5.645 -2.4076  0.7682  0.2250
   72MOL   H43248854   0.798   6.769   5.515 -0.1298  0.0571  0.3365
   72MOL   H43348855   0.784   6.678   5.649 -0.2246  0.1940  1.5023
   72MOL   H43448856   1.031   6.704   5.557 -1.4548  1.5378 -1.1813
   72MOL   H43548857   1.034   6.855   5.639 -0.8819  0.4304  0.1759
   72MOL   H43648858   0.960   6.730   5.858  0.0399 -3.1682  1.3844
   72MOL   H43748859   1.118   6.703   5.803  0.3311  1.8080 -1.8301
   72MOL   H43848860   0.857   6.546   5.812 -0.1157  1.5069  0.2797
   72MOL   H43948861   0.969   6.507   5.685  0.0989  0.0063 -1.2577
   72MOL   H44048862   1.049   6.499   5.981 -2.7272  0.8677 -0.0992
   72MOL   H44148863   1.162   6.491   5.859 -0.1624 -0.3949  1.3389
   72MOL   H44248864   1.048   6.266   5.776  0.2917 -0.9942  0.2755
   72MOL   H44348865   0.935   6.296   5.911  0.0030  2.7373  0.3114
   72MOL   N44448866   1.072   6.181   6.078 -0.4356  0.3145  0.0007
   72MOL   C44548867   1.140   6.129   6.198  0.6449  0.6319  0.1656
   72MOL   C44648868   1.156   5.974   6.201  0.0546  0.1382 -0.3715
   72MOL   C44748869   1.030   5.899   6.159  0.2503  0.1921 -0.5654
   72MOL   C44848870   1.042   5.748   6.168  0.5205 -0.9616 -0.6725
   72MOL   C44948871   0.919   5.680   6.101 -0.0527 -0.7990 -0.1239
   72MOL   C45048872   0.787   5.700   6.186 -0.1302  0.3114 -0.4469
   72MOL   C45148873   0.669   5.615   6.121  0.1388 -0.1823  0.0200
   72MOL   C45248874   0.535   5.644   6.195  0.1753 -0.1190 -0.5134
   72MOL   C45348875   0.414   5.647   6.101 -0.0092 -0.3462  0.0817
   72MOL   C45448876   0.401   5.771   6.010  0.4309  0.1088 -0.4284
   72MOL   C45548877   0.260   5.773   5.947  0.1151 -0.2724 -0.6474
   72MOL   O45648878   0.233   5.685   5.867 -0.4543 -0.1552  0.2864
   72MOL   H45748879   0.972   6.172   6.073 -0.3054 -0.4715 -1.7872
   72MOL   H45848880   1.242   6.163   6.215  0.6845  1.7394 -2.0334
   72MOL   H45948881   1.070   6.149   6.279 -0.1011  0.0332 -0.3197
   72MOL   H46048882   1.197   5.937   6.295 -2.5214 -1.8178  0.0537
   72MOL   H46148883   1.232   5.939   6.132 -0.8202  0.1828 -1.3695
   72MOL   H46248884   0.954   5.931   6.230 -1.6921  0.3979 -2.6951
   72MOL   H46348885   0.992   5.919   6.059 -0.2341 -1.5175 -0.7328
   72MOL   H46448886   1.057   5.723   6.274 -0.0512 -2.2742 -0.8846
   72MOL   H46548887   1.134   5.725   6.115 -0.1932  0.0100 -2.3624
   72MOL   H46648888   0.931   5.574   6.080 -0.1970 -0.8491  0.0396
   72MOL   H46748889   0.894   5.735   6.010  2.9722  0.0070 -0.5167
   72MOL   H46848890   0.792   5.653   6.284  1.4863 -0.8281 -1.0556
   72MOL   H46948891   0.766   5.806   6.202  1.3428  0.5312  0.0905
   72MOL   H47048892   0.687   5.508   6.130  0.9107  0.0303  1.1041
   72MOL   H47148893   0.667   5.641   6.015 -0.1983  1.5535  0.4283
   72MOL   H47248894   0.524   5.563   6.266  0.0540  1.8811  1.8083
   72MOL   H47348895   0.553   5.730   6.260 -1.5796  0.9380 -1.3970
   72MOL   H47448896   0.335   5.652   6.176  0.5719  0.6693  0.6427
   72MOL   H47548897   0.396   5.553   6.050  1.0711 -0.0999 -0.7900
   72MOL   H47648898   0.476   5.754   5.933 -1.8818  0.0935 -2.7603
   72MOL   H47748899   0.416   5.870   6.051 -0.0795  1.1665 -2.7138
   72MOL   N47848900   0.179   5.865   5.993 -0.4810 -0.0943  0.2952
   72MOL   C47948901   0.037   5.878   5.965  0.2504 -0.1824 -0.1503
   72MOL   C48048902   7.672   5.831   6.087 -0.6122 -0.7954  0.3405
   72MOL   C48148903   7.686   5.687   6.114 -0.0917  0.5260 -0.6178
   72MOL   C48248904   7.606   5.646   6.233  0.7405 -0.2460  0.4884
   72MOL   C48348905   7.569   5.502   6.250  0.2839 -0.1380 -0.0872
   72MOL   C48448906   7.490   5.461   6.380  0.4414  0.5499  0.4890
   72MOL   C48548907   7.347   5.515   6.385 -0.4763  0.6171 -0.3659
   72MOL   C48648908   7.255   5.480   6.502 -0.6456 -0.3937 -0.4330
   72MOL   C48748909   7.106   5.503   6.468  0.0064  0.1716  0.2458
   72MOL   C48848910   6.998   5.458   6.574 -0.1141 -0.8789  0.2055
   72MOL   C48948911   6.855   5.444   6.532  0.2448  0.1957  0.1682
   72MOL   O49048912   6.813   5.473   6.422 -0.2838  0.4227  0.1639
   72MOL   H49148913   0.216   5.927   6.063 -1.5330 -0.1790  0.9444
   72MOL   H49248914   0.020   5.982   5.941  0.2930 -0.3923 -1.1104
   72MOL   H49348915   0.007   5.814   5.881  0.8294  0.6476 -1.0006
   72MOL   H49448916   7.571   5.870   6.092 -0.2645 -0.0414  1.8523
   72MOL   H49548917   0.005   5.872   6.176  0.4456 -1.4173  0.0607
   72MOL   H49648918   7.657   5.625   6.029 -2.9050 -1.2182  1.5450
   72MOL   H49748919   0.063   5.647   6.155 -0.3823  0.4194 -0.0722
   72MOL   H49848920   7.513   5.703   6.227 -0.1728 -1.7449  0.2901
   72MOL   H49948921   7.648   5.676   6.329 -1.2515  2.0620  0.6974
   72MOL   H50048922   7.660   5.442   6.254 -1.6831 -3.2802 -1.0197
   72MOL   H50148923   7.525   5.464   6.158  0.8421  0.6370 -0.6798
   72MOL   H50248924   7.502   5.353   6.392  2.1392  0.4007 -2.0634
   72MOL   H50348925   7.538   5.512   6.463 -1.0111  0.5171  1.3603
   72MOL   H50448926   7.296   5.477   6.296 -1.2279 -2.0975  1.1795
   72MOL   H50548927   7.362   5.621   6.365  0.1621  0.3355 -1.4365
   72MOL   H50648928   7.261   5.373   6.521 -0.9729 -0.3178  0.1046
   72MOL   H50748929   7.287   5.539   6.588  0.6156 -1.2068 -0.3171
   72MOL   H50848930   7.087   5.458   6.370 -0.4844  0.5820  0.1457
   72MOL   H50948931   7.082   5.606   6.442  1.4445  0.8042  1.4005
   72MOL   H51048932   7.014   5.530   6.655 -0.0325 -1.0925  0.3816
   72MOL   H51148933   7.026   5.363   6.618 -2.6866 -1.3745  0.8566
   72MOL   N51248934   6.770   5.388   6.622  0.8378 -0.8022 -0.5102
   72MOL   C51348935   6.645   5.326   6.593  0.4923 -0.4649 -0.3839
   72MOL   C51448936   6.534   5.432   6.567 -0.3424  0.5038 -0.5900
   72MOL   C51548937   6.396   5.375   6.526 -0.3236  0.0909 -1.0249
   72MOL   C51648938   6.299   5.476   6.480  0.9164 -0.2185 -0.2607
   72MOL   C51748939   6.331   5.516   6.332  0.1586  0.7256  0.1571
   72MOL   C51848940   6.249   5.638   6.291 -0.2000  0.7240  0.5679
   72MOL   C51948941   6.275   5.694   6.152 -0.4049 -0.0785 -0.6920
   72MOL   C52048942   6.203   5.831   6.132  0.4331  0.0213 -0.0273
   72MOL   C52148943   6.210   5.892   5.994 -0.7366  0.4632  0.1110
   72MOL   C52248944   6.338   5.969   5.970  0.3952 -0.2737  0.5423
   72MOL   C52348945   6.353   6.094   6.055  0.7979 -0.2375 -0.4817
   72MOL   O52448946   6.248   6.165   6.087  0.4153 -0.0726  0.1340
   72MOL   H52548947   6.798   5.396   6.719  1.5937 -0.5560 -0.7397
   72MOL   H52648948   6.651   5.258   6.508 -0.4537 -1.7017  0.5136
   72MOL   H52748949   6.617   5.261   6.676 -1.0414 -1.0282 -1.3205
   72MOL   H52848950   6.569   5.493   6.484 -0.8179  2.5604  0.6770
   72MOL   H52948951   6.518   5.491   6.657  0.2128 -1.8844  1.1469
   72MOL   H53048952   6.401   5.288   6.460  2.4938 -0.9265  0.4705
   72MOL   H53148953   6.358   5.330   6.617  0.9908  0.6038 -0.2119
   72MOL   H53248954   6.291   5.567   6.540 -0.3033  2.0548 -3.6926
   72MOL   H53348955   6.205   5.422   6.483  0.1536  1.0940 -0.1845
   72MOL   H53448956   6.302   5.428   6.276 -0.0159  1.0836 -0.3212
   72MOL   H53548957   6.437   5.542   6.326 -0.0997  1.6575 -0.5879
   72MOL   H53648958   6.143   5.610   6.295  0.0064 -0.0059  1.0869
   72MOL   H53748959   6.269   5.722   6.358 -0.1930  0.8241  0.4393
   72MOL   H53848960   6.241   5.623   6.076 -0.9380 -1.0043  0.3857
   72MOL   H53948961   6.381   5.710   6.133 -0.4482  1.5653  0.3209
   72MOL   H54048962   6.099   5.805   6.155  0.7024 -0.7150  0.3860
   72MOL   H54148963   6.220   5.902   6.213 -0.2314 -2.2128  2.1175
   72MOL   H54248964   6.125   5.959   5.981 -0.9618 -0.3594 -2.9050
   72MOL   H54348965   6.208   5.811   5.921 -0.0263  1.0473 -0.5585
   72MOL   H54448966   6.354   5.999   5.867  0.4396 -2.3944 -0.0884
   72MOL   H54548967   6.425   5.905   5.986  0.1903 -0.4085  1.1277
   72MOL   N54648968   6.483   6.125   6.089  1.2589 -0.3420  0.3804
   72MOL   C54748969   6.516   6.259   6.148  0.0930 -0.6471 -0.6372
   72MOL   C54848970   6.639   6.317   6.094 -0.9114  0.3184  0.0912
   72MOL   C54948971   6.655   6.468   6.083  0.2651 -0.2086 -0.2456
   72MOL   C55048972   6.687   6.546   6.218  0.4989 -0.0444 -0.2505
   72MOL   C55148973   6.558   6.565   6.313  0.1196  0.0169  0.6469
   72MOL   C55248974   6.590   6.614   6.454  0.1646 -0.4320 -0.0796
   72MOL   C55348975   6.582   6.506   6.565 -0.2044 -0.5594  0.7823
   72MOL   C55448976   6.657   6.380   6.538 -0.5738  0.7487  0.1580
   72MOL   C55548977   6.631   6.256   6.628 -0.1267 -1.0690  0.0977
   72MOL   C55648978   6.620   6.290   6.782  0.2544 -1.0222 -0.5125
   72MOL   C55748979   6.728   6.370   6.845  0.4508  0.0727  0.0262
   72MOL   O55848980   6.838   6.315   6.860  0.3970  0.1593  0.1707
   72MOL   H55948981   6.561   6.071   6.054  2.9571  2.7369 -0.7373
   72MOL   H56048982   6.435   6.329   6.129  1.9960  1.5084 -1.0907
   72MOL   H56148983   6.516   6.251   6.257  0.9447  1.0382 -0.4799
   72MOL   H56248984   6.652   6.271   5.996 -3.6304  1.9482 -1.0878
   72MOL   H56348985   6.733   6.288   6.142  0.4957 -1.1100 -3.3077
   72MOL   H56448986   6.740   6.508   6.027  1.8188  0.1250  2.2420
   72MOL   H56548987   6.567   6.516   6.041  1.4779  0.2862 -2.2814
   72MOL   H56648988   6.721   6.645   6.190 -0.9107  0.0662 -1.6776
   72MOL   H56748989   6.766   6.489   6.266  0.8949 -0.9271 -1.9034
   72MOL   H56848990   6.492   6.479   6.310 -0.7095  0.6445  0.5831
   72MOL   H56948991   6.498   6.637   6.256  1.0339  0.6214  0.4302
   72MOL   H57048992   6.679   6.676   6.452  0.0278 -0.0888  2.4714
   72MOL   H57148993   6.502   6.672   6.484 -0.5395 -0.1378 -2.6186
   72MOL   H57248994   6.478   6.481   6.584 -0.1517 -1.4477 -0.0880
   72MOL   H57348995   6.615   6.532   6.666  0.1903 -0.7988  0.7188
   72MOL   H57448996   6.655   6.351   6.433  1.1888 -0.3559  0.4216
   72MOL   H57548997   6.760   6.413   6.550 -0.6192  0.8103  0.3884
   72MOL   H57648998   6.711   6.185   6.611 -0.8015 -1.8536  0.1666
   72MOL   H57748999   6.539   6.209   6.594 -0.6147  1.1913 -1.8870
   72MOL   H57849000   6.587   6.202   6.837  1.5895 -1.0467  0.2740
   72MOL   H57949001   6.531   6.353   6.792  0.9214 -0.0471 -0.6934
   72MOL   N58049002   6.703   6.485   6.915 -0.3975 -0.4740  0.1892
   72MOL   C58149003   6.795   6.553   7.005  0.1744 -0.3286  0.1756
   72MOL   C58249004   6.912   6.633   6.933 -0.1106  0.8600  0.0049
   72MOL   C58349005   7.012   6.690   7.023  0.0278 -0.4018  1.0467
   72MOL   C58449006   7.134   6.737   6.948 -0.3347 -0.3210 -0.1747
   72MOL   C58549007   7.232   6.628   6.913  0.1612  0.0197  0.0941
   72MOL   C58649008   7.330   6.651   6.802 -0.6734 -0.6658  0.1104
   72MOL   C58749009   7.440   6.754   6.811  0.0182  0.3321  0.0121
   72MOL   C58849010   7.545   6.714   6.913 -0.0256 -0.0079 -0.1995
   72MOL   C58949011   7.655   6.821   6.934 -0.6582  0.4816 -0.4933
   72MOL   C59049012   0.022   6.840   6.806  0.5428 -0.4153 -0.7004
   72MOL   C59149013   7.691   6.955   6.712 -0.3483  0.2355  0.0082
   72MOL   O59249014   7.651   7.057   6.769  0.3054  0.2912  0.1341
   72MOL   H59349015   6.618   6.538   6.909  0.6843  1.1101 -1.9672
   72MOL   H59449016   6.736   6.625   7.060 -3.5957 -0.9620 -2.8160
   72MOL   H59549017   6.835   6.481   7.077  1.0463  0.6141  0.6492
   72MOL   H59649018   6.871   6.717   6.877 -0.6607  1.2461  0.9810
   72MOL   H59749019   6.964   6.563   6.867 -0.0472  0.1334  0.8184
   72MOL   H59849020   6.957   6.777   7.060  0.4070  0.1901  0.2298
   72MOL   H59949021   7.035   6.629   7.110 -1.4757  1.0632  2.5058
   72MOL   H60049022   7.175   6.822   7.003 -0.9423 -0.7983  1.0171
   72MOL   H60149023   7.097   6.778   6.854  1.7232  1.1493 -0.3970
   72MOL   H60249024   7.174   6.538   6.889  0.9073 -0.3681 -0.2452
   72MOL   H60349025   7.279   6.596   7.006  0.1634 -1.7586 -0.5071
   72MOL   H60449026   7.379   6.558   6.774 -2.0894 -1.2175 -0.5805
   72MOL   H60549027   7.274   6.684   6.715 -0.9523 -0.9295  0.1886
   72MOL   H60649028   7.408   6.855   6.840  0.4980  0.8027 -1.0676
   72MOL   H60749029   7.483   6.759   6.711  0.9007  0.7373  0.4098
   72MOL   H60849030   7.492   6.701   7.007 -1.6708 -2.8252 -1.4389
   72MOL   H60949031   7.580   6.616   6.878 -0.7696  0.1046 -1.2939
   72MOL   H61049032   0.015   6.790   7.006 -1.1627  1.0402  0.2932
   72MOL   H61149033   7.613   6.912   6.977 -2.5301 -1.1946  1.3314
   72MOL   H61249034   0.031   6.740   6.763  0.4187 -0.1326 -1.3896
   72MOL   H61349035   0.122   6.883   6.816  0.1605  0.5545 -0.9373
   72MOL   N61449036   0.000   6.948   6.583 -0.0958  0.3800  0.6043
   72MOL   C61549037   7.670   7.047   6.488  0.3383  0.1905  0.1450
   72MOL   C61649038   7.554   7.004   6.391  0.3608  0.2331 -0.0512
   72MOL   C61749039   7.429   6.957   6.464 -0.3374  0.8123  0.0659
   72MOL   C61849040   7.328   6.922   6.355 -0.0162 -0.5729  0.1939
   72MOL   C61949041   7.194   6.874   6.406 -0.0555  0.2916 -0.1065
   72MOL   C62049042   7.190   6.722   6.422 -0.1512 -0.8226  0.2578
   72MOL   C62149043   7.053   6.678   6.479 -0.6700 -0.4445 -0.5147
   72MOL   C62249044   7.040   6.535   6.536 -0.1892  0.4992  0.3918
   72MOL   C62349045   7.075   6.414   6.449  0.5752 -1.5645 -0.3860
   72MOL   C62449046   7.081   6.283   6.528  0.3117  0.1506 -0.1050
   72MOL   C62549047   7.184   6.273   6.633 -0.3856  0.3645  0.5330
   72MOL   O62649048   7.300   6.272   6.608 -0.0441 -0.1486  0.1625
   72MOL   H62749049   0.021   6.858   6.541  0.6632  0.1296  1.4858
   72MOL   H62849050   0.043   7.073   6.430 -0.6487  0.0056 -1.4882
   72MOL   H62949051   7.645   7.139   6.540  1.1010  1.6543 -1.9666
   72MOL   H63049052   7.586   6.930   6.318  0.0883  1.5286 -1.5120
   72MOL   H63149053   7.534   7.089   6.326  2.0838 -0.0970 -1.0597
   72MOL   H63249054   7.438   6.868   6.526 -3.0952  0.0915 -0.5106
   72MOL   H63349055   7.392   7.042   6.521 -1.9365  1.0368 -1.2925
   72MOL   H63449056   7.374   6.861   6.278  1.1999 -0.1170  0.5482
   72MOL   H63549057   7.313   7.012   6.295 -1.8715 -0.6626  0.5031
   72MOL   H63649058   7.125   6.905   6.327  1.0072 -0.1047 -1.2135
   72MOL   H63749059   7.162   6.925   6.497  0.2086 -0.4959  0.4330
   72MOL   H63849060   7.210   6.666   6.331 -3.0892 -0.1980 -0.8213
   72MOL   H63949061   7.262   6.689   6.497  0.2770 -0.6311 -0.0717
   72MOL   H64049062   6.993   6.678   6.388  1.4398 -2.0817 -1.9410
   72MOL   H64149063   7.017   6.751   6.552 -0.0071  0.3308 -0.9518
   72MOL   H64249064   7.092   6.541   6.632 -0.9549 -2.0758  1.0173
   72MOL   H64349065   6.936   6.531   6.568 -1.0109  1.2387 -2.0901
   72MOL   H64449066   7.167   6.434   6.394 -0.3530 -1.0556 -1.7975
   72MOL   H64549067   6.989   6.407   6.382  0.4237 -1.6567 -0.1811
   72MOL   H64649068   7.112   6.207   6.456  1.2829  1.0730 -0.6838
   72MOL   H64749069   6.980   6.255   6.557 -0.2900 -0.3806 -2.5345
   72MOL   N64849070   7.138   6.269   6.759  0.3825  0.6469 -0.2478
   72MOL   C64949071   7.226   6.263   6.873  0.0896  0.3730  0.9851
   72MOL   C65049072   7.140   6.274   7.004  0.2052  0.2776 -0.1547
   72MOL   C65149073   7.226   6.295   7.133  0.1221  0.2022  0.2454
   72MOL   C65249074   7.134   6.320   7.253 -0.1358 -0.0057 -0.2652
   72MOL   C65349075   7.202   6.326   7.393 -0.8165  0.0827 -0.3272
   72MOL   C65449076   7.095   6.367   7.499  0.0644 -0.2995 -0.5290
   72MOL   C65549077   7.148   6.318   7.633 -0.1989 -0.2367  0.3769
   72MOL   C65649078   7.273   6.380   7.691  0.2373 -0.0387 -0.5460
   72MOL   C65749079   7.290   6.348   0.124  0.0129  0.0495 -0.7915
   72MOL   C65849080   7.432   6.373   0.176 -0.6494  0.1099 -0.2742
   72MOL   C65949081   7.540   6.284   0.114  0.1065  0.1601  0.0558
   72MOL   O66049082   7.507   6.163   0.104  0.7523  0.0578  0.0010
   72MOL   H66149083   7.039   6.273   6.777  0.4511  1.4544 -0.0596
   72MOL   H66249084   7.292   6.348   6.859  2.3885 -1.1136  2.4560
   72MOL   H66349085   7.300   6.183   6.879  0.9635  1.0985  0.0084
   72MOL   H66449086   7.061   6.199   7.001  0.9381 -0.4731 -0.5044
   72MOL   H66549087   7.071   6.356   6.981 -1.2881 -0.9694 -0.1539
   72MOL   H66649088   7.292   6.212   7.158  0.7434  0.6929  0.2787
   72MOL   H66749089   7.297   6.377   7.114  1.1860 -0.1970  2.3723
   72MOL   H66849090   7.061   6.239   7.255 -0.1645  0.0200 -0.2240
   72MOL   H66949091   7.093   6.420   7.235  3.9385  2.2135  2.2389
   72MOL   H67049092   7.273   6.409   7.396 -1.1936  0.5134 -2.2565
   72MOL   H67149093   7.254   6.232   7.406 -0.9298  0.1012  0.2622
   72MOL   H67249094   7.086   6.475   7.508 -0.4255 -0.3972  0.2034
   72MOL   H67349095   6.999   6.319   7.483 -1.1070  1.6711  0.4829
   72MOL   H67449096   7.180   6.214   7.632 -0.5656 -0.3555  0.7812
   72MOL   H67549097   7.067   6.325   7.706 -0.6249  2.3690 -0.2866
   72MOL   H67649098   7.355   6.381   7.619  1.0912  1.4003  0.4128
   72MOL   H67749099   7.258   6.488   7.687 -0.9748 -0.1320  1.2887
   72MOL   H67849100   7.252   6.248   0.145 -1.8055  0.4531 -1.9424
   72MOL   H67949101   7.227   6.417   0.180  0.8834  0.8676 -0.8095
   72MOL   H68049102   7.437   6.362   0.285 -0.6822  0.2252 -0.2607
   72MOL   H68149103   7.466   6.474   0.153 -0.8537  0.2324 -0.0361
   72MOL   H68249104   7.639   6.323   0.091  0.0982  0.2005  0.0884
   73MOL     N149105   2.319   3.562   6.615  0.4153 -0.5023  0.1019
   73MOL     C249106   2.275   3.461   6.519 -0.2128 -0.3476 -0.0189
   73MOL     C349107   2.187   3.535   6.418 -0.3118 -0.7197  0.3928
   73MOL     C449108   2.173   3.467   6.276 -0.6332  0.1138  0.3902
   73MOL     C549109   2.084   3.553   6.185 -0.0357 -0.3273 -0.4420
   73MOL     C649110   2.037   3.477   6.065 -0.0628 -0.0463 -0.3270
   73MOL     C749111   1.948   3.554   5.980 -0.2251 -0.1882  0.7318
   73MOL     C849112   1.868   3.477   5.867  0.2483 -0.6131  0.3349
   73MOL     C949113   1.781   3.569   5.780 -0.1503 -0.1969 -0.0919
   73MOL    C1049114   1.718   3.496   5.660  0.1192 -0.2059  0.3178
   73MOL    C1149115   1.633   3.581   5.570 -0.7486  0.4570  0.3040
   73MOL    C1249116   1.546   3.515   5.464 -0.4939 -0.1643 -0.5073
   73MOL    O1349117   1.535   3.391   5.461  0.2342 -0.5057  0.2049
   73MOL    H1449118   2.374   3.524   6.691  0.6891 -2.5867 -1.0820
   73MOL    H1549119   2.227   3.382   6.577 -2.2482  0.5861 -0.3802
   73MOL    H1649120   2.367   3.426   6.473 -1.7240 -0.9883 -2.6740
   73MOL    H1749121   2.218   3.639   6.405  1.5402 -1.2668  0.1946
   73MOL    H1849122   2.084   3.535   6.453 -0.1790 -4.1781  0.9264
   73MOL    H1949123   2.271   3.474   6.229 -1.2434 -1.8696 -1.2416
   73MOL    H2049124   2.137   3.366   6.296 -0.8787  0.4212  1.5514
   73MOL    H2149125   2.141   3.641   6.155 -1.5235  0.5744 -0.6774
   73MOL    H2249126   2.001   3.586   6.248 -0.6898 -3.2954  0.3449
   73MOL    H2349127   1.981   3.388   6.091 -0.4851  0.0417 -0.9064
   73MOL    H2449128   2.123   3.434   6.013 -1.3579 -3.7882  0.4732
   73MOL    H2549129   1.881   3.623   6.031 -1.0397  1.8785 -2.9690
   73MOL    H2649130   2.014   3.614   5.918  0.6592 -2.0943 -0.2133
   73MOL    H2749131   1.806   3.412   5.930 -0.3673 -0.1586  0.2010
   73MOL    H2849132   1.939   3.410   5.819  1.1570  1.7241 -1.6434
   73MOL    H2949133   1.700   3.614   5.837 -0.7651  0.3589 -1.3966
   73MOL    H3049134   1.840   3.653   5.743  1.7992 -1.0853  0.9287
   73MOL    H3149135   1.667   3.407   5.697  0.4946 -1.6646 -2.5561
   73MOL    H3249136   1.794   3.462   5.590 -0.8279  0.1496 -0.8944
   73MOL    H3349137   1.704   3.649   5.523  0.2841 -0.6506  0.2592
   73MOL    H3449138   1.559   3.639   5.626 -0.2185  2.0728 -0.6472
   73MOL    H3549139   2.241   3.613   6.653  1.7016  1.0393  0.7213
   73MOL    N3649140   1.471   3.581   5.379  0.2312 -0.1552 -0.3412
   73MOL    C3749141   1.457   3.729   5.369  0.2712 -0.6469 -0.2325
   73MOL    C3849142   1.429   3.765   5.219 -0.0657 -0.0554  0.2606
   73MOL    C3949143   1.401   3.911   5.202  0.3073  1.0667  0.1886
   73MOL    C4049144   1.352   3.953   5.056  0.0996 -0.5113  0.2793
   73MOL    C4149145   1.287   4.096   5.045 -0.3179 -0.2377 -0.6791
   73MOL    C4249146   1.239   4.120   4.898  0.5118 -0.2646  0.3126
   73MOL    C4349147   1.105   4.047   4.863  0.4258 -0.0846 -1.0609
   73MOL    C4449148   1.058   4.057   4.719  0.2915  0.0494  0.3149
   73MOL    C4549149   1.156   3.991   4.615  0.1685 -0.4368  0.3400
   73MOL    C4649150   1.100   3.997   4.474 -0.2984  0.0846 -0.3394
   73MOL    C4749151   1.208   3.978   4.369  0.7851 -0.1957  0.7353
   73MOL    O4849152   1.306   4.053   4.369  0.4341  0.9867  0.1582
   73MOL    H4949153   1.416   3.527   5.315 -1.9033  1.7225 -0.1337
   73MOL    H5049154   1.377   3.768   5.430 -0.6931 -1.1096 -1.1762
   73MOL    H5149155   1.528   3.798   5.414 -1.1664  1.8368 -1.6690
   73MOL    H5249156   1.349   3.697   5.190 -2.3802  2.8605 -0.4057
   73MOL    H5349157   1.521   3.735   5.168 -0.3229 -3.5970  1.7547
   73MOL    H5449158   1.319   3.934   5.270 -0.9534  2.3588 -1.7090
   73MOL    H5549159   1.482   3.973   5.240  0.4047  1.8551 -1.2831
   73MOL    H5649160   1.286   3.876   5.016 -1.5778  1.8675 -1.7014
   73MOL    H5749161   1.447   3.956   5.004  0.6709 -1.9857  1.2101
   73MOL    H5849162   1.365   4.171   5.056 -0.7336  0.1509 -0.3658
   73MOL    H5949163   1.211   4.114   5.121 -0.0507  2.6626 -1.0366
   73MOL    H6049164   1.215   4.226   4.885 -2.9649 -0.9018  0.9972
   73MOL    H6149165   1.310   4.088   4.822  0.8014 -0.5614  0.7096
   73MOL    H6249166   1.031   4.090   4.931  1.3910 -0.5229  0.2847
   73MOL    H6349167   1.114   3.941   4.887 -0.2431  0.6519  2.8494
   73MOL    H6449168   0.956   4.024   4.706  0.6402 -0.2434 -1.8867
   73MOL    H6549169   1.064   4.163   4.691  0.7976 -0.1749 -0.4435
   73MOL    H6649170   1.168   3.888   4.647  0.4856 -0.7759 -0.8336
   73MOL    H6749171   1.257   4.032   4.617 -0.5597  1.4281  0.0906
   73MOL    H6849172   1.048   4.092   4.465 -1.7723 -0.7330 -0.5276
   73MOL    H6949173   1.029   3.916   4.460  1.3949 -0.9719 -3.1877
   73MOL    N7049174   1.186   3.886   4.278 -0.0980  0.0510 -0.5596
   73MOL    C7149175   1.286   3.865   4.175  0.4542  0.7736 -0.2768
   73MOL    C7249176   1.292   3.726   4.119  0.0008  0.3450 -0.8062
   73MOL    C7349177   1.186   3.690   4.008 -0.7533 -0.5209 -0.5894
   73MOL    C7449178   1.181   3.544   3.968  0.1179 -0.1418  0.9167
   73MOL    C7549179   1.125   3.519   3.830  0.0165 -0.4536 -0.7667
   73MOL    C7649180   1.104   3.367   3.792  0.1357  0.1720  0.2298
   73MOL    C7749181   1.103   3.344   3.634  0.8476  0.0349  0.2019
   73MOL    C7849182   1.082   3.194   3.604  0.5401 -0.1811  0.3144
   73MOL    C7949183   1.053   3.162   3.455 -0.2521  0.2249 -0.5469
   73MOL    C8049184   1.074   3.011   3.418 -0.1298 -0.1402 -0.1249
   73MOL    C8149185   1.148   2.994   3.285  0.3355 -0.9276  0.3044
   73MOL    O8249186   1.116   3.060   3.185  0.5562 -0.9750  0.0129
   73MOL    H8349187   1.113   3.817   4.291 -1.1364  1.0598 -0.9399
   73MOL    H8449188   1.276   3.941   4.098 -1.1931  1.1333  0.2771
   73MOL    H8549189   1.387   3.869   4.216 -0.4974  1.1566  2.1061
   73MOL    H8649190   1.287   3.662   4.207 -1.6178  1.4927 -0.0323
   73MOL    H8749191   1.386   3.707   4.069  0.9431 -0.3259  1.1575
   73MOL    H8849192   1.088   3.721   4.046 -0.1873  0.2168  0.3086
   73MOL    H8949193   1.189   3.756   3.922  1.9078 -0.5572 -0.5470
   73MOL    H9049194   1.105   3.493   4.028  1.9065 -3.5538  0.3923
   73MOL    H9149195   1.272   3.495   4.004 -0.7965 -1.2073  1.8183
   73MOL    H9249196   1.191   3.570   3.759 -0.2598  1.2237  0.1576
   73MOL    H9349197   1.027   3.566   3.827  0.3473  0.3433  0.4302
   73MOL    H9449198   1.187   3.311   3.835 -0.7592 -0.2024  1.5285
   73MOL    H9549199   1.015   3.344   3.851  1.7582  1.4810  3.3683
   73MOL    H9649200   1.191   3.379   3.580  1.4462 -0.0764  1.0942
   73MOL    H9749201   1.022   3.403   3.590  1.7454  0.6091 -0.7128
   73MOL    H9849202   1.171   3.140   3.636  0.8289 -0.2306 -0.5669
   73MOL    H9949203   1.004   3.152   3.669 -0.3225  0.3788 -0.3435
   73MOL   H10049204   1.129   3.221   3.403  0.3469 -0.5953 -0.5968
   73MOL   H10149205   0.959   3.195   3.409 -0.7649  1.7718  1.5258
   73MOL   H10249206   0.975   2.966   3.411  1.6970 -4.4227 -0.0793
   73MOL   H10349207   1.133   2.955   3.491  0.3896  0.3016 -0.2067
   73MOL   N10449208   1.254   2.914   3.291 -0.0375  0.1774 -0.2984
   73MOL   C10549209   1.362   2.909   3.198  0.3445  0.4180  0.1382
   73MOL   C10649210   1.340   2.790   3.104 -0.5289  0.1124 -0.7308
   73MOL   C10749211   1.347   2.655   3.171  0.6031 -0.6658  0.0699
   73MOL   C10849212   1.343   2.532   3.071 -0.6932 -0.5912  0.0359
   73MOL   C10949213   1.208   2.499   3.017 -0.3859  0.3518  0.3917
   73MOL   C11049214   1.197   2.373   2.923  0.3246  0.2315 -0.2639
   73MOL   C11149215   1.259   2.389   2.785  0.3590 -0.2918  0.9474
   73MOL   C11249216   1.202   2.509   2.707 -0.1263  0.2357 -0.3329
   73MOL   C11349217   1.279   2.533   2.580 -0.5137  0.7526  0.0023
   73MOL   C11449218   1.236   2.657   2.507 -1.1163  0.5761  0.0916
   73MOL   C11549219   1.311   2.670   2.373 -0.1348  0.3010  0.7090
   73MOL   O11649220   1.392   2.593   2.337 -1.1554  0.6506  0.1647
   73MOL   H11749221   1.258   2.855   3.373  1.9679  0.6162 -0.0559
   73MOL   H11849222   1.363   3.003   3.142  1.9245 -1.5033 -3.2066
   73MOL   H11949223   1.454   2.893   3.254  0.5461  1.3275  0.0729
   73MOL   H12049224   1.426   2.786   3.036 -1.2259  2.5223 -1.8060
   73MOL   H12149225   1.257   2.795   3.033 -0.4580 -0.4000 -0.8472
   73MOL   H12249226   1.435   2.663   3.235  0.0140 -0.2899  0.8568
   73MOL   H12349227   1.266   2.639   3.242 -0.4778 -1.0117 -1.2249
   73MOL   H12449228   1.392   2.445   3.116 -1.5125 -1.2911 -0.4188
   73MOL   H12549229   1.407   2.564   2.988 -0.7092  1.8914  0.9555
   73MOL   H12649230   1.170   2.586   2.963 -1.8311 -0.2116  0.4716
   73MOL   H12749231   1.137   2.487   3.098 -0.5981  0.5216  0.2337
   73MOL   H12849232   1.241   2.287   2.975 -0.2782 -0.0922 -0.2848
   73MOL   H12949233   1.094   2.348   2.898  0.5282  0.7848 -1.6790
   73MOL   H13049234   1.247   2.292   2.737 -1.0426  0.1377  0.4119
   73MOL   H13149235   1.367   2.393   2.796  0.4926 -0.4755 -0.2334
   73MOL   H13249236   1.097   2.503   2.680 -0.0676 -0.5691 -0.4055
   73MOL   H13349237   1.212   2.600   2.767 -0.5626 -0.3819  0.6994
   73MOL   H13449238   1.260   2.447   2.515 -0.7238  1.7012 -1.1897
   73MOL   H13549239   1.386   2.534   2.601 -0.4000 -1.7004 -0.2587
   73MOL   H13649240   1.251   2.746   2.568 -0.5802  1.5577 -1.4494
   73MOL   H13749241   1.128   2.657   2.486 -1.2480 -1.0375  0.6345
   73MOL   N13849242   1.277   2.775   2.298 -0.1188  0.1904 -0.2456
   73MOL   C13949243   1.318   2.800   2.160  0.1707  0.2867  0.5247
   73MOL   C14049244   1.242   2.717   2.062  0.0001  0.1430 -0.5250
   73MOL   C14149245   1.275   2.747   1.915  0.2939 -0.7299  0.2364
   73MOL   C14249246   1.201   2.661   1.809 -0.1870 -0.3861  0.0287
   73MOL   C14349247   1.052   2.687   1.792  0.1380 -0.4599  0.9992
   73MOL   C14449248   0.962   2.598   1.884 -0.1046 -0.1347  0.3913
   73MOL   C14549249   0.818   2.644   1.889 -0.1912 -0.6043 -0.2526
   73MOL   C14649250   0.724   2.532   1.942 -0.4892 -0.0911  0.5931
   73MOL   C14749251   0.580   2.580   1.978 -0.3737 -0.2051  0.2810
   73MOL   C14849252   0.562   2.618   2.126 -0.1964 -0.6095  0.3300
   73MOL   C14949253   0.424   2.606   2.191 -0.3906 -0.2375  0.0793
   73MOL   O15049254   0.354   2.504   2.179 -0.1881 -0.1232  0.0101
   73MOL   H15149255   1.221   2.845   2.343  2.3071  2.4660 -0.6452
   73MOL   H15249256   1.308   2.906   2.135  0.7529 -0.0128 -0.9891
   73MOL   H15349257   1.420   2.774   2.131 -0.4028  2.8943 -4.3076
   73MOL   H15449258   1.136   2.741   2.070 -0.3203 -0.9375 -1.4238
   73MOL   H15549259   1.265   2.613   2.086  0.1125 -0.2010 -2.1221
   73MOL   H15649260   1.249   2.852   1.904 -0.1667 -0.7707  0.9798
   73MOL   H15749261   1.384   2.738   1.904  0.2868 -0.7487  0.1791
   73MOL   H15849262   1.205   2.559   1.848 -3.2883  0.4533  2.7664
   73MOL   H15949263   1.254   2.672   1.714 -2.6843 -0.8674 -1.4712
   73MOL   H16049264   1.025   2.673   1.687  4.1284 -1.2060  0.0012
   73MOL   H16149265   1.041   2.792   1.821  0.1493 -0.8360  2.3875
   73MOL   H16249266   0.970   2.491   1.867  0.0585 -0.4234  2.1418
   73MOL   H16349267   1.001   2.604   1.986  0.8519 -1.1126  0.0933
   73MOL   H16449268   0.787   2.670   1.787 -0.6885 -0.4217 -0.0549
   73MOL   H16549269   0.795   2.734   1.945 -3.2374 -0.8806 -0.9740
   73MOL   H16649270   0.715   2.465   1.856 -1.9287 -0.0128  0.6770
   73MOL   H16749271   0.787   2.490   2.020  1.5980  1.1136 -0.3741
   73MOL   H16849272   0.512   2.496   1.968  1.0506 -1.1285 -1.9961
   73MOL   H16949273   0.555   2.658   1.907  0.4568  0.2917  0.5303
   73MOL   H17049274   0.598   2.721   2.137  0.0007 -0.7940  1.4514
   73MOL   H17149275   0.631   2.563   2.190  0.5483 -0.8105 -0.6420
   73MOL   N17249276   0.384   2.701   2.271 -0.3273 -0.0447  0.1415
   73MOL   C17349277   0.279   2.694   2.370  0.1551 -0.3438  0.0832
   73MOL   C17449278   0.138   2.751   2.329 -0.4522  0.2857 -0.3461
   73MOL   C17549279   0.046   2.748   2.455 -0.3639 -0.3805  0.6321
   73MOL   C17649280   7.621   2.818   2.428 -0.5042  0.2192  0.4510
   73MOL   C17749281   7.534   2.849   2.554  0.4241  0.3136 -0.1191
   73MOL   C17849282   7.559   2.986   2.629  0.7077  0.4703  0.0078
   73MOL   C17949283   7.481   2.997   2.767  0.4224  0.2313 -0.0078
   73MOL   C18049284   7.517   2.897   2.877 -0.2626 -0.1674  0.4353
   73MOL   C18149285   7.460   2.938   3.009 -0.2219 -0.0433  0.0449
   73MOL   C18249286   7.449   2.827   3.110  0.3674  0.2036  0.0979
   73MOL   C18349287   7.584   2.765   3.150  0.0729  0.4405 -0.1597
   73MOL   O18449288   7.691   2.824   3.127  0.0305  0.5357  0.1356
   73MOL   H18549289   0.425   2.793   2.258 -0.4539 -0.1920 -1.3744
   73MOL   H18649290   0.280   2.588   2.392 -0.1249 -0.7472 -1.7645
   73MOL   H18749291   0.302   2.748   2.462  1.1673 -1.2596  0.3691
   73MOL   H18849292   0.090   2.703   2.244  0.3357 -1.5391  0.2151
   73MOL   H18949293   0.148   2.858   2.315  0.9355  0.2124 -0.0251
   73MOL   H19049294   0.026   2.648   2.494  0.8179 -0.1597  1.8551
   73MOL   H19149295   0.095   2.794   2.541 -2.4419  0.1528  1.5552
   73MOL   H19249296   7.567   2.744   2.368  1.5245 -0.8796 -0.0654
   73MOL   H19349297   7.634   2.911   2.371 -0.8461  1.2689  2.0638
   73MOL   H19449298   7.567   2.772   2.624  1.0834 -1.3987 -2.2453
   73MOL   H19549299   7.430   2.846   2.521  0.6529  2.1853 -1.0665
   73MOL   H19649300   7.663   3.000   2.659  0.5292 -0.7716  1.2312
   73MOL   H19749301   7.534   3.066   2.559 -0.5647 -0.6446 -0.8336
   73MOL   H19849302   7.375   2.989   2.741  0.7913  1.2313 -1.8097
   73MOL   H19949303   7.496   3.099   2.803  0.9196  0.3738 -0.6222
   73MOL   H20049304   7.481   2.796   2.855 -0.0678  0.0476 -0.9393
   73MOL   H20149305   7.625   2.890   2.884 -0.2491  0.0300  0.4288
   73MOL   H20249306   7.362   2.979   2.984  0.6522  1.8932 -0.2144
   73MOL   H20349307   7.513   3.020   3.057 -1.6880 -0.4784  2.5090
   73MOL   H20449308   7.381   2.747   3.082 -1.1245  2.2596 -2.4231
   73MOL   H20549309   7.405   2.866   3.201  0.7935 -1.5240  1.0622
   73MOL   N20649310   7.574   2.641   3.207 -0.1163  0.1621  0.4019
   73MOL   C20749311   7.683   2.556   3.256 -0.0085 -0.4392 -0.5117
   73MOL   C20849312   7.636   2.489   3.380  0.3277  0.1186 -0.0572
   73MOL   C20949313   7.595   2.592   3.494 -0.0798 -0.3275  0.1852
   73MOL   C21049314   7.705   2.687   3.538  0.2619  0.7931 -0.3732
   73MOL   C21149315   7.638   2.774   3.644  0.0221  0.2038 -1.0085
   73MOL   C21249316   0.026   2.868   3.712 -0.1991 -0.1520 -0.4662
   73MOL   C21349317   7.674   2.972   3.803 -0.0640 -0.1063 -0.4719
   73MOL   C21449318   0.066   3.060   3.862 -0.1565 -0.0500  0.2624
   73MOL   C21549319   7.710   3.179   3.939 -0.8973 -0.6730  0.4480
   73MOL   C21649320   7.675   3.137   4.079 -0.4914  0.1738  0.3730
   73MOL   C21749321   0.082   3.113   4.171 -0.4891  0.0985 -0.5552
   73MOL   O21849322   0.201   3.137   4.147 -0.5847  0.5771 -0.1260
   73MOL   H21949323   7.479   2.607   3.216 -0.0819  0.1731  0.8168
   73MOL   H22049324   0.052   2.619   3.282  0.7123 -1.5620 -0.1251
   73MOL   H22149325   7.707   2.482   3.180  1.4062  1.4850 -2.0040
   73MOL   H22249326   0.004   2.427   3.412 -0.6161 -1.8159 -1.2596
   73MOL   H22349327   7.561   2.415   3.352  2.2572 -2.1664  0.7148
   73MOL   H22449328   7.510   2.650   3.458  0.0534 -0.3547 -0.1829
   73MOL   H22549329   7.563   2.531   3.578 -1.1909  2.4825  1.8845
   73MOL   H22649330   0.027   2.753   3.460  1.6477  0.3140 -0.1314
   73MOL   H22749331   0.074   2.631   3.578 -0.2476  0.1564 -0.1697
   73MOL   H22849332   7.597   2.711   3.723 -3.0355  1.9285 -1.1278
   73MOL   H22949333   7.555   2.833   3.605 -1.3191  0.0459  1.4895
   73MOL   H23049334   0.098   2.808   3.767 -1.2833  0.5339  1.7668
   73MOL   H23149335   0.095   2.918   3.643 -0.2568 -0.8429 -1.0351
   73MOL   H23249336   7.625   2.919   3.884  0.8528 -1.4130 -0.7610
   73MOL   H23349337   7.611   3.036   3.741 -0.4403 -1.2478 -1.2908
   73MOL   H23449338   0.135   3.001   3.922  1.0993  1.3203  0.2198
   73MOL   H23549339   0.125   3.098   3.778  0.5645  0.4561  0.9993
   73MOL   H23649340   7.617   3.206   3.889 -1.3611  0.0810  1.6868
   73MOL   H23749341   0.062   3.265   3.949 -2.0879  0.1924  1.2096
   73MOL   H23849342   7.619   3.043   4.082 -0.3997  0.1280  0.7205
   73MOL   H23949343   7.610   3.213   4.123 -1.2158 -1.8492  2.9613
   73MOL   N24049344   0.046   3.058   4.290 -0.3975 -0.1778 -0.1215
   73MOL   C24149345   0.132   3.060   4.411 -0.3432  0.9021  0.1040
   73MOL   C24249346   0.220   2.932   4.415 -0.3101  0.8598 -0.3724
   73MOL   C24349347   0.270   2.904   4.561  0.4058  0.2923  0.2141
   73MOL   C24449348   0.174   2.835   4.655  0.1379  0.0143  0.5591
   73MOL   C24549349   0.243   2.807   4.790 -0.1277  0.1768 -0.0502
   73MOL   C24649350   0.135   2.760   4.893  0.2139 -0.0500 -0.1010
   73MOL   C24749351   0.183   2.741   5.035  0.1142  0.2478  0.4238
   73MOL   C24849352   0.264   2.623   5.054  0.4760 -0.9834  0.4606
   73MOL   C24949353   0.287   2.597   5.206  0.0869 -0.9602  0.3822
   73MOL   C25049354   0.337   2.468   5.253 -0.6423 -0.1433  0.2959
   73MOL   C25149355   0.486   2.441   5.219 -0.2426  0.4835  0.4190
   73MOL   O25249356   0.541   2.494   5.123 -0.0230 -0.2633 -0.7611
   73MOL   H25349357   7.665   3.073   4.312 -1.3444 -1.4709 -3.1573
   73MOL   H25449358   0.067   3.067   4.499 -0.7331 -0.7247 -0.0533
   73MOL   H25549359   0.184   3.156   4.407 -0.7313  1.1474  0.7494
   73MOL   H25649360   0.306   2.947   4.349  0.6469  1.1940  0.9369
   73MOL   H25749361   0.167   2.841   4.385 -0.7523  0.5371  1.3517
   73MOL   H25849362   0.359   2.842   4.556 -0.2898 -0.6873 -0.1650
   73MOL   H25949363   0.310   2.997   4.601  0.2986  0.5799 -0.3463
   73MOL   H26049364   0.136   2.748   4.603 -0.0667  0.6987 -0.4380
   73MOL   H26149365   0.092   2.903   4.678  0.1149  0.1025  0.2173
   73MOL   H26249366   0.287   2.904   4.815 -2.9699  1.2562  0.9974
   73MOL   H26349367   0.322   2.736   4.768 -0.5132 -0.0475 -0.7113
   73MOL   H26449368   0.046   2.823   4.895  0.0664 -0.2861  1.0335
   73MOL   H26549369   0.102   2.663   4.855  1.9445 -0.9567  0.6118
   73MOL   H26649370   0.091   2.735   5.094 -1.6878 -1.2845 -2.4417
   73MOL   H26749371   0.239   2.827   5.073  2.5050 -0.3783 -1.5232
   73MOL   H26849372   0.217   2.534   5.012  1.0646 -0.9334 -0.3042
   73MOL   H26949373   0.367   2.630   5.018 -0.0088  0.1874 -0.7182
   73MOL   H27049374   0.191   2.589   5.256  0.4421 -0.3581  1.1584
   73MOL   H27149375   0.350   2.675   5.248 -1.8924  0.1313  1.3662
   73MOL   H27249376   0.282   2.382   5.214 -1.0572 -0.7609  2.2194
   73MOL   H27349377   0.315   2.463   5.359 -1.5837  3.3152  0.3006
   73MOL   N27449378   0.556   2.357   5.296  0.4097  0.1589  0.1731
   73MOL   C27549379   0.701   2.307   5.282 -0.3209  0.5846 -0.3447
   73MOL   C27649380   0.692   2.157   5.307  0.0682 -0.0277 -0.6399
   73MOL   C27749381   0.729   2.129   5.454  0.0818  0.3325  0.3441
   73MOL   C27849382   0.712   1.979   5.475 -0.1189 -0.6456  0.0556
   73MOL   C27949383   0.783   1.922   5.592  0.5383  0.8005  0.0588
   73MOL   C28049384   0.772   1.775   5.627  0.5406 -0.4264  0.3427
   73MOL   C28149385   0.868   1.741   5.745  0.4258  0.2689 -0.0003
   73MOL   C28249386   1.014   1.726   5.714 -0.4603 -0.2017  0.9434
   73MOL   C28349387   1.086   1.660   5.838  0.3281 -0.1261 -0.2923
   73MOL   C28449388   1.232   1.612   5.799 -0.5262 -0.3397  0.2545
   73MOL   C28549389   1.235   1.504   5.695  0.1309  0.8501 -0.1521
   73MOL   O28649390   1.270   1.523   5.582  1.0790  0.3891  0.1670
   73MOL   H28749391   0.504   2.334   5.379  0.5207 -2.5536 -0.4536
   73MOL   H28849392   0.774   2.362   5.342  1.8799 -2.0651 -0.4889
   73MOL   H28949393   0.720   2.321   5.176 -2.6736 -1.9608 -1.1390
   73MOL   H29049394   0.756   2.108   5.233  2.4899  1.7254  0.2254
   73MOL   H29149395   0.587   2.133   5.298 -0.4664  0.6586  3.0101
   73MOL   H29249396   0.834   2.151   5.473  1.0322 -2.5853 -1.1893
   73MOL   H29349397   0.670   2.177   5.532 -0.4716 -2.1235  1.4626
   73MOL   H29449398   0.727   1.920   5.385 -0.2173  1.7007 -1.5253
   73MOL   H29549399   0.610   1.963   5.509 -0.0840 -2.9454 -0.8371
   73MOL   H29649400   0.742   1.986   5.670 -0.4560  1.4536 -0.9804
   73MOL   H29749401   0.887   1.956   5.596  1.1997 -1.2811  1.6333
   73MOL   H29849402   0.675   1.733   5.653  0.8329  0.4534  2.9291
   73MOL   H29949403   0.799   1.717   5.538  0.2850 -0.1981  0.1136
   73MOL   H30049404   0.828   1.645   5.778  2.0617 -0.7764 -0.9724
   73MOL   H30149405   0.846   1.815   5.821  0.1552 -0.1034  0.2816
   73MOL   H30249406   1.029   1.661   5.628  1.2042 -1.6004  2.2490
   73MOL   H30349407   1.057   1.824   5.697 -3.0702  0.7999 -0.0793
   73MOL   H30449408   1.027   1.576   5.874 -1.5463  2.1879  2.2877
   73MOL   H30549409   1.083   1.743   5.909  0.6391 -1.9217  1.8702
   73MOL   H30649410   1.285   1.571   5.884  0.1468 -2.0172 -0.9514
   73MOL   H30749411   1.299   1.690   5.763  0.2185 -0.6042  1.0658
   73MOL   N30849412   1.161   1.393   5.735 -0.1208 -0.4188  0.5663
   73MOL   C30949413   1.134   1.278   5.651 -0.4397 -0.3958 -0.9105
   73MOL   C31049414   1.020   1.300   5.545  0.2432  0.3690 -0.2302
   73MOL   C31149415   0.893   1.335   5.623  0.2586  0.0662  0.1479
   73MOL   C31249416   0.766   1.386   5.539 -0.0294  0.2152 -0.1863
   73MOL   C31349417   0.633   1.410   5.619 -0.3376 -0.2160 -0.1916
   73MOL   C31449418   0.528   1.459   5.522  0.6052  0.5252  0.7377
   73MOL   C31549419   0.377   1.468   5.569  0.1958 -0.3994 -0.2855
   73MOL   C31649420   0.352   1.614   5.607  0.3359 -0.1122  0.7483
   73MOL   C31749421   0.226   1.639   5.682  0.8960 -1.0553 -0.3864
   73MOL   C31849422   0.097   1.605   5.605  0.4756 -0.2153 -0.4869
   73MOL   C31949423   0.093   1.672   5.468  0.1025  0.3215  0.3029
   73MOL   O32049424   0.125   1.794   5.454  1.0809 -0.1145  0.2793
   73MOL   H32149425   1.124   1.387   5.829  1.1564 -1.3338  1.0374
   73MOL   H32249426   1.095   1.202   5.718 -1.1378 -1.1247 -2.1107
   73MOL   H32349427   1.228   1.241   5.609  0.9550  0.9519  0.9487
   73MOL   H32449428   1.013   1.207   5.488  0.7462  0.9327 -1.2208
   73MOL   H32549429   1.054   1.373   5.472 -1.1690 -0.3683 -1.6557
   73MOL   H32649430   0.872   1.251   5.688 -1.6341  0.4871  0.1105
   73MOL   H32749431   0.906   1.417   5.693 -1.6886 -1.3039  2.1800
   73MOL   H32849432   0.735   1.311   5.466  0.4913  1.4461 -1.6883
   73MOL   H32949433   0.795   1.478   5.489  0.2566  0.2672  0.0750
   73MOL   H33049434   0.650   1.496   5.684  0.5184  1.0869 -2.1092
   73MOL   H33149435   0.589   1.322   5.667  1.0993 -0.5733  0.5121
   73MOL   H33249436   0.566   1.548   5.472 -2.0059  0.4348 -1.5231
   73MOL   H33349437   0.528   1.386   5.442  0.9004  2.0215 -0.6524
   73MOL   H33449438   0.361   1.402   5.655  0.5696  1.1076  0.9706
   73MOL   H33549439   0.302   1.439   5.496 -1.8175  1.1599  1.0876
   73MOL   H33649440   0.430   1.650   5.674  0.7843  1.0794 -0.3966
   73MOL   H33749441   0.357   1.678   5.518 -0.0252 -1.8473 -0.5492
   73MOL   H33849442   0.228   1.742   5.717  0.7837 -0.5376 -1.8567
   73MOL   H33949443   0.231   1.582   5.775  1.5945 -0.9890 -0.3798
   73MOL   H34049444   0.007   1.634   5.659 -0.7823  3.7533 -4.3998
   73MOL   H34149445   0.084   1.498   5.588 -3.1075 -0.4923  3.2177
   73MOL   N34249446   0.041   1.585   5.381 -0.0166  0.3739  0.0787
   73MOL   C34349447   0.024   1.600   5.234  0.3437 -0.1601 -0.4029
   73MOL   C34449448   0.046   1.466   5.164 -0.3337  0.6254 -0.0135
   73MOL   C34549449   0.003   1.465   5.015 -0.2821  0.2115  0.0257
   73MOL   C34649450   0.018   1.324   4.955  0.5900  0.1415 -0.2256
   73MOL   C34749451   7.697   1.325   4.804 -0.0498 -0.0367 -0.0835
   73MOL   C34849452   0.010   1.192   4.726  0.5583 -0.6708 -0.0334
   73MOL   C34949453   7.702   1.192   4.578 -0.2554  1.4789 -0.7458
   73MOL   C35049454   7.683   1.050   4.517 -0.4403 -0.2801  0.2227
   73MOL   C35149455   0.098   0.975   4.503 -0.1559  0.0694  0.7359
   73MOL   C35249456   0.088   0.831   4.459  0.3819 -0.0229  0.5162
   73MOL   C35349457   0.048   0.826   4.314 -0.2958  0.2482 -0.6081
   73MOL   O35449458   0.127   0.854   4.224  0.0960 -0.1659 -0.2829
   73MOL   H35549459   0.003   1.501   5.423  3.4006 -2.8261 -2.8947
   73MOL   H35649460   7.644   1.650   5.218  0.0862 -0.2272  0.8611
   73MOL   H35749461   0.096   1.675   5.200  1.7036 -0.8902  0.7964
   73MOL   H35849462   7.712   1.380   5.210  1.0995  1.3966  3.1036
   73MOL   H35949463   0.152   1.441   5.171 -0.1882  0.9341 -1.1181
   73MOL   H36049464   7.615   1.498   5.023  0.0095  1.2819 -0.4564
   73MOL   H36149465   0.064   1.544   4.972  1.3268 -1.5783 -1.0172
   73MOL   H36249466   7.678   1.253   5.016  0.7770 -0.6462 -0.9733
   73MOL   H36349467   0.122   1.294   4.958  0.6737  0.2276 -1.5968
   73MOL   H36449468   0.032   1.407   4.753  0.7513  1.7142  3.3883
   73MOL   H36549469   7.591   1.349   4.790  0.3802  1.9147 -0.2141
   73MOL   H36649470   0.112   1.158   4.742  0.6284 -1.1976 -1.5547
   73MOL   H36749471   7.669   1.112   4.775 -0.4229 -0.2579 -0.4800
   73MOL   H36849472   0.070   1.249   4.538  1.6580  0.4837  1.7106
   73MOL   H36949473   7.613   1.251   4.555 -2.1802 -2.0914 -3.0654
   73MOL   H37049474   7.610   0.990   4.571  1.2471 -1.2374  1.5075
   73MOL   H37149475   7.650   1.058   4.414 -0.2868 -2.6461 -0.0395
   73MOL   H37249476   0.153   0.980   4.597  2.6906  0.2769 -0.8976
   73MOL   H37349477   0.154   1.032   4.429  1.9344 -3.3949 -0.4763
   73MOL   H37449478   0.024   0.774   4.525 -0.4157  0.7338  0.4017
   73MOL   H37549479   0.192   0.798   4.469  0.4003 -0.5185 -1.0208
   73MOL   N37649480   7.637   0.814   4.284  0.6411 -0.1549  0.0607
   73MOL   C37749481   7.576   0.832   4.154  0.3651  0.0198  0.0780
   73MOL   C37849482   7.419   0.825   4.175 -0.0263 -0.6041  0.9226
   73MOL   C37949483   7.337   0.843   4.046  0.1715  0.5709  0.2035
   73MOL   C38049484   7.185   0.848   4.071  0.8558 -0.1461 -0.7372
   73MOL   C38149485   7.083   0.882   3.958  0.2023 -0.0275 -0.2239
   73MOL   C38249486   6.932   0.867   4.000 -0.6519  0.1799  1.4204
   73MOL   C38349487   6.897   0.965   4.114 -0.2558 -0.2937 -0.3036
   73MOL   C38449488   6.750   0.958   4.157  0.5088  0.1746  0.3498
   73MOL   C38549489   6.724   0.883   4.286 -0.2986  0.8225  0.2724
   73MOL   C38649490   6.763   0.732   4.280  0.4950  0.2915 -0.1596
   73MOL   C38749491   6.735   0.649   4.405  0.0452 -0.1145  1.0883
   73MOL   O38849492   6.665   0.689   4.494 -0.1333  0.3464 -0.4762
   73MOL   H38949493   7.582   0.809   4.369  2.8022  0.9227  1.5569
   73MOL   H39049494   7.620   0.924   4.114  0.2040  0.9505  1.9833
   73MOL   H39149495   7.601   0.746   4.092 -0.7758 -0.9351  0.9219
   73MOL   H39249496   7.392   0.900   4.249  1.5069  0.2518  0.6193
   73MOL   H39349497   7.388   0.731   4.222 -0.5504 -1.6759 -1.4844
   73MOL   H39449498   7.364   0.942   4.010 -1.4121  0.8455 -0.2673
   73MOL   H39549499   7.360   0.778   3.962 -0.3728  2.5573 -1.5415
   73MOL   H39649500   7.171   0.927   4.145  1.8596 -0.2865 -0.3951
   73MOL   H39749501   7.158   0.751   4.113  0.6574 -0.2707 -1.1516
   73MOL   H39849502   7.091   0.816   3.872 -0.9407  0.1341 -0.4735
   73MOL   H39949503   7.104   0.986   3.935 -1.9984  0.8384  1.3964
   73MOL   H40049504   6.876   0.898   3.912  0.3542 -1.4619  0.1686
   73MOL   H40149505   6.902   0.767   4.032  0.6811 -0.8921 -0.5633
   73MOL   H40249506   6.905   1.068   4.078  1.3576 -0.6222 -0.9372
   73MOL   H40349507   6.966   0.943   4.195  0.3105  0.4748 -0.5700
   73MOL   H40449508   6.710   1.056   4.182  0.0373  0.7153 -2.2877
   73MOL   H40549509   6.685   0.919   4.078  0.4319 -0.5565  0.7773
   73MOL   H40649510   6.617   0.876   4.310 -0.4884 -0.5476 -0.9408
   73MOL   H40749511   6.765   0.938   4.371  1.4981  0.5356 -0.3908
   73MOL   H40849512   6.867   0.726   4.247  0.5226  0.8856 -0.1971
   73MOL   H40949513   6.707   0.685   4.200 -0.0415 -0.2537  0.5348
   73MOL   N41049514   6.787   0.525   4.405  0.2089  0.0592  0.3959
   73MOL   C41149515   6.798   0.430   4.513  0.1852 -0.7444  0.0249
   73MOL   C41249516   6.946   0.414   4.560  0.0619  0.7840 -0.6788
   73MOL   C41349517   6.958   0.356   4.705  0.1462  0.1490  0.0836
   73MOL   C41449518   6.915   0.203   4.711 -0.0876  0.0628 -0.1129
   73MOL   C41549519   6.886   0.164   4.856 -0.1458 -0.4215  0.5699
   73MOL   C41649520   6.830   0.022   4.861 -0.0826 -0.0102  1.3703
   73MOL   C41749521   6.775   7.687   4.997  0.1659  0.7105 -0.1178
   73MOL   C41849522   6.730   7.544   4.998 -1.0892  0.1285  0.4983
   73MOL   C41949523   6.696   7.504   5.141 -0.0246 -0.7829 -0.2922
   73MOL   C42049524   6.598   7.379   5.141 -0.1341  0.4754  0.0956
   73MOL   C42149525   6.666   7.242   5.128  0.3414 -0.1861  0.3052
   73MOL   O42249526   6.743   7.227   5.039 -0.1608  0.4539 -0.3381
   73MOL   H42349527   6.850   0.509   4.328 -0.8028  0.0635 -0.4439
   73MOL   H42449528   6.734   0.469   4.592  0.2792  1.0478 -0.7667
   73MOL   H42549529   6.753   0.336   4.482  0.6610 -1.6133  1.8961
   73MOL   H42649530   6.988   0.515   4.562  0.4156  0.6660 -1.7923
   73MOL   H42749531   7.000   0.348   4.491  0.5379 -0.6476  1.0377
   73MOL   H42849532   7.058   0.364   4.746  0.5350 -0.8774 -0.6318
   73MOL   H42949533   6.900   0.418   4.773  1.7667  1.5185  0.2458
   73MOL   H43049534   6.997   0.148   4.665  0.3648  0.6421 -0.0051
   73MOL   H43149535   6.826   0.176   4.654  0.0597 -0.9012  0.1126
   73MOL   H43249536   6.809   0.231   4.893 -0.6812 -0.4176 -0.5237
   73MOL   H43349537   6.975   0.173   4.918 -0.2401 -0.5592  0.7261
   73MOL   H43449538   6.756   0.009   4.782  0.0465 -3.5146  1.7197
   73MOL   H43549539   6.907   7.669   4.825  0.8527  1.6915  0.0528
   73MOL   H43649540   6.690   0.035   5.019  0.5551  0.3575  2.6660
   73MOL   H43749541   6.851   7.707   5.073  0.8180 -2.1871  0.0471
   73MOL   H43849542   6.644   7.521   4.936 -1.0425  2.4217 -0.4575
   73MOL   H43949543   6.811   7.477   4.970 -0.6724  0.3525  1.1473
   73MOL   H44049544   6.660   7.589   5.198  1.9615  0.9833 -1.6431
   73MOL   H44149545   6.791   7.484   5.191 -1.3774 -2.8286  1.5888
   73MOL   H44249546   6.515   7.386   5.071 -0.8594  0.7596  0.9606
   73MOL   H44349547   6.547   7.376   5.238  0.0532 -1.6016  0.1324
   73MOL   N44449548   6.646   7.153   5.224  0.0340 -0.2570 -0.0923
   73MOL   C44549549   6.712   7.022   5.240  0.2582  0.1233 -0.9884
   73MOL   C44649550   6.662   6.939   5.363  0.0197 -0.0985 -0.3393
   73MOL   C44749551   6.728   6.802   5.383 -0.0575 -0.0715  0.0434
   73MOL   C44849552   6.869   6.802   5.439 -0.4063  0.2508 -0.1832
   73MOL   C44949553   6.933   6.665   5.462 -0.0654 -0.2406  0.2590
   73MOL   C45049554   7.068   6.671   5.528  0.2219 -0.8472 -0.0905
   73MOL   C45149555   7.126   6.530   5.555  1.0613 -0.3247  0.0894
   73MOL   C45249556   7.277   6.536   5.598  0.3206  0.5585  0.6974
   73MOL   C45349557   7.345   6.397   5.622  0.0945  0.2800 -0.8492
   73MOL   C45449558   7.496   6.404   5.632  0.2273  0.6960  0.0192
   73MOL   C45549559   7.566   6.273   5.669  0.1472 -0.5011  0.3095
   73MOL   O45649560   7.534   6.216   5.774  0.8206  0.4845 -0.6212
   73MOL   H45749561   6.607   7.193   5.308 -0.5556  0.7918 -0.8595
   73MOL   H45849562   6.694   6.965   5.149  1.3216 -1.9463  0.0635
   73MOL   H45949563   6.819   7.042   5.246  0.1403  0.4125  0.2530
   73MOL   H46049564   6.555   6.918   5.369  0.4854 -2.0239  1.7083
   73MOL   H46149565   6.689   6.998   5.451  2.4201 -2.3935  0.4914
   73MOL   H46249566   6.668   6.749   5.457 -0.8026 -0.7841 -1.0697
   73MOL   H46349567   6.730   6.743   5.292  0.4356 -0.0940  0.0694
   73MOL   H46449568   6.874   6.846   5.539 -2.2938  1.3480 -0.5612
   73MOL   H46549569   6.932   6.867   5.378  0.2107 -2.5408 -2.6090
   73MOL   H46649570   6.937   6.612   5.366  0.3062  0.3354 -0.0436
   73MOL   H46749571   6.866   6.606   5.525  1.6802 -1.2852  1.1597
   73MOL   H46849572   7.142   6.728   5.471  0.3213 -0.9430 -0.0589
   73MOL   H46949573   7.060   6.731   5.619 -2.9601 -0.0015 -0.8775
   73MOL   H47049574   7.126   6.471   5.463  0.4725 -0.8069  0.3957
   73MOL   H47149575   7.062   6.473   5.622 -1.8624  3.9888  1.1910
   73MOL   H47249576   7.333   6.591   5.522 -1.2618  2.9779  1.2295
   73MOL   H47349577   7.288   6.591   5.691 -0.2159  0.3866  0.8602
   73MOL   H47449578   7.322   6.329   5.540 -1.4494  1.2719 -1.2505
   73MOL   H47549579   7.318   6.351   5.718  1.8044  0.3765 -0.2999
   73MOL   H47649580   7.521   6.487   5.698 -3.0215  1.1714  0.7330
   73MOL   H47749581   7.540   6.435   5.537 -0.9787 -0.7164 -1.0174
   73MOL   N47849582   7.663   6.225   5.584 -0.4769 -0.0050 -0.2404
   73MOL   C47949583   0.004   6.094   5.609  0.1457  0.4515  0.0817
   73MOL   C48049584   0.081   6.052   5.488 -0.2429 -0.0752  0.3122
   73MOL   C48149585   0.132   5.906   5.499  0.0470 -0.1086  0.3251
   73MOL   C48249586   0.262   5.899   5.433 -1.0795 -0.4251  0.0224
   73MOL   C48349587   0.348   5.782   5.483 -0.4072 -0.2752 -0.0907
   73MOL   C48449588   0.477   5.779   5.399  1.0937 -0.9920  0.0085
   73MOL   C48549589   0.583   5.883   5.450 -0.3306  0.1369 -0.2733
   73MOL   C48649590   0.685   5.910   5.340 -0.3313  0.6330 -0.2881
   73MOL   C48749591   0.641   6.033   5.260  0.4626  0.0894 -0.0995
   73MOL   C48849592   0.710   6.032   5.122  0.2296 -0.6016 -0.3770
   73MOL   C48949593   0.703   6.172   5.059  0.9747  0.4324 -0.0509
   73MOL   O49049594   0.606   6.242   5.079  0.4379 -0.3529  0.2018
   73MOL   H49149595   7.681   6.276   5.499  0.1956  1.4923  0.7778
   73MOL   H49249596   0.076   6.094   5.690  0.4238 -0.8512 -0.1524
   73MOL   H49349597   7.640   6.022   5.628 -0.7375  1.1580 -0.8936
   73MOL   H49449598   0.168   6.117   5.482 -0.6255  0.7949  3.1933
   73MOL   H49549599   0.025   6.071   5.396 -0.8167  0.9217  0.8648
   73MOL   H49649600   0.142   5.883   5.605  0.5349  0.1800  0.3449
   73MOL   H49749601   0.053   5.847   5.454 -0.3342  0.6695 -0.0199
   73MOL   H49849602   0.329   5.984   5.442 -0.6456 -0.9979  2.5472
   73MOL   H49949603   0.243   5.889   5.326 -0.3952  0.0492 -0.1477
   73MOL   H50049604   0.307   5.681   5.480 -0.3629 -0.3149  0.5081
   73MOL   H50149605   0.377   5.787   5.588 -3.6969  0.0862  0.8571
   73MOL   H50249606   0.525   5.682   5.394  1.5188 -0.7216 -1.3332
   73MOL   H50349607   0.457   5.811   5.297  0.7088  2.0026  0.9692
   73MOL   H50449608   0.621   5.861   5.550 -2.3916 -0.2238  0.4487
   73MOL   H50549609   0.536   5.980   5.466  1.0867  1.0294 -1.2988
   73MOL   H50649610   0.786   5.922   5.380 -0.8762  0.6133  1.1277
   73MOL   H50749611   0.691   5.819   5.281  1.5552 -1.2075  2.6240
   73MOL   H50849612   0.669   6.127   5.307 -0.9684 -0.5190  2.0453
   73MOL   H50949613   0.532   6.037   5.247  0.6957  0.0095 -2.3425
   73MOL   H51049614   0.665   5.966   5.048  1.0610 -0.8013 -0.7149
   73MOL   H51149615   0.813   6.002   5.140  0.6388 -0.9600 -3.1317
   73MOL   N51249616   0.809   6.222   4.995  0.9396  0.0234 -0.1213
   73MOL   C51349617   0.812   6.348   4.926  0.1740 -0.4104 -0.2616
   73MOL   C51449618   0.942   6.354   4.848  0.0712  0.0084  0.1391
   73MOL   C51549619   0.959   6.487   4.769 -0.2275  0.1499 -0.0888
   73MOL   C51649620   1.104   6.524   4.747  0.1900  0.3783  0.2057
   73MOL   C51749621   1.182   6.422   4.673  0.0813  0.0384 -0.2403
   73MOL   C51849622   1.132   6.362   4.535  0.1929  0.0543  0.2955
   73MOL   C51949623   1.105   6.476   4.431 -0.6029 -0.2815 -0.1593
   73MOL   C52049624   1.044   6.415   4.304 -0.3116 -0.3262 -0.6405
   73MOL   C52149625   1.007   6.527   4.199 -0.3080  0.4137 -0.1357
   73MOL   C52249626   0.974   6.473   4.060 -0.6242  0.5572  0.1286
   73MOL   C52349627   0.932   6.580   3.963  0.1567 -0.3616  0.6049
   73MOL   O52449628   0.964   6.697   3.986  0.0717 -0.8002 -0.2566
   73MOL   H52549629   0.897   6.172   4.990  0.5349 -0.7377  0.2235
   73MOL   H52649630   0.720   6.347   4.866 -0.4621 -2.8635  0.6827
   73MOL   H52749631   0.806   6.423   5.005  2.6695 -0.8625  0.3782
   73MOL   H52849632   0.947   6.269   4.780  1.3356 -1.4182  1.9641
   73MOL   H52949633   1.017   6.347   4.927  2.1074  0.7447 -1.6836
   73MOL   H53049634   0.909   6.479   4.673  0.2407 -0.0610 -0.3163
   73MOL   H53149635   0.927   6.570   4.832 -0.3726  0.3363 -0.4060
   73MOL   H53249636   1.161   6.529   4.840 -0.4802  0.1672  0.6275
   73MOL   H53349637   1.112   6.620   4.696 -0.7065 -0.4069 -1.4451
   73MOL   H53449638   1.199   6.332   4.733  0.3066  0.2643  0.0388
   73MOL   H53549639   1.282   6.462   4.658  0.2289 -0.4155 -0.4830
   73MOL   H53649640   1.206   6.296   4.491 -1.6144 -1.6960 -0.2207
   73MOL   H53749641   1.046   6.297   4.555 -0.1821 -0.1811 -1.9918
   73MOL   H53849642   1.191   6.540   4.410 -0.5586  0.3012  1.6952
   73MOL   H53949643   1.036   6.548   4.474 -0.4407 -0.7751  0.9312
   73MOL   H54049644   1.116   6.346   4.258 -0.8309 -0.6493 -0.9687
   73MOL   H54149645   0.950   6.366   4.329  0.3443 -1.4274 -0.2744
   73MOL   H54249646   1.096   6.589   4.187  1.4298 -1.9917 -0.0672
   73MOL   H54349647   0.925   6.594   4.226 -0.4417 -0.3011  1.2752
   73MOL   H54449648   0.890   6.404   4.069 -0.9155  0.9689  0.6101
   73MOL   H54549649   1.062   6.428   4.013  0.5393  1.7118  1.1570
   73MOL   N54649650   0.856   6.546   3.855  0.7190 -0.3503 -0.6593
   73MOL   C54749651   0.809   6.637   3.754  0.5927  0.3543 -0.3059
   73MOL   C54849652   0.690   6.717   3.818 -0.4037  0.4508 -0.1429
   73MOL   C54949653   0.618   6.809   3.725  0.8563 -0.7322 -0.4304
   73MOL   C55049654   0.516   6.895   3.796  0.5612  0.4822  0.0474
   73MOL   C55149655   0.454   7.005   3.713 -0.5372 -0.2871 -0.1577
   73MOL   C55249656   0.349   7.092   3.787 -0.0876  0.1381  0.3275
   73MOL   C55349657   0.393   7.160   3.913 -0.2076 -0.0823  0.6945
   73MOL   C55449658   0.281   7.245   3.970 -0.7163  0.1055  0.0192
   73MOL   C55549659   0.319   7.276   4.115 -0.8688  0.3083  0.1240
   73MOL   C55649660   0.223   7.381   4.184  0.5439  0.6353 -0.0434
   73MOL   C55749661   0.110   7.310   4.263 -0.0304 -0.5442  0.3633
   73MOL   O55849662   0.141   7.213   4.328 -0.6858  0.5149  0.4543
   73MOL   H55949663   0.833   6.448   3.839 -1.0929 -0.1067  0.2792
   73MOL   H56049664   0.889   6.699   3.714 -0.3791 -0.2221 -3.2932
   73MOL   H56149665   0.772   6.579   3.669 -1.5711  1.7441 -0.3255
   73MOL   H56249666   0.720   6.771   3.907 -1.7204  0.7310  0.1458
   73MOL   H56349667   0.616   6.646   3.855  0.6513 -0.4590  0.2408
   73MOL   H56449668   0.682   6.883   3.678  0.6323 -0.7565 -0.7712
   73MOL   H56549669   0.564   6.763   3.642 -0.0508  0.0830 -0.3069
   73MOL   H56649670   0.549   6.932   3.893 -2.2473  2.4791  0.2690
   73MOL   H56749671   0.437   6.822   3.807  0.9435 -0.3447 -2.4123
   73MOL   H56849672   0.408   6.952   3.629  0.0082 -0.6491 -0.2335
   73MOL   H56949673   0.532   7.071   3.675 -0.2492  0.9202  2.4432
   73MOL   H57049674   0.297   7.168   3.728 -2.1178 -1.3457  0.1457
   73MOL   H57149675   0.273   7.018   3.810  0.7245 -0.0519  2.4997
   73MOL   H57249676   0.476   7.226   3.887  0.3585 -1.4719 -1.1077
   73MOL   H57349677   0.428   7.091   3.991  0.6770  0.2484  0.5990
   73MOL   H57449678   0.260   7.327   3.901 -1.5406  2.3038  2.7998
   73MOL   H57549679   0.185   7.195   3.971 -0.4913 -0.3119  1.7941
   73MOL   H57649680   0.414   7.328   4.109 -1.4584  1.4685  0.7045
   73MOL   H57749681   0.339   7.189   4.178 -0.6945  1.8041  2.1966
   73MOL   H57849682   0.181   7.449   4.110 -1.4908 -0.7066 -0.1745
   73MOL   H57949683   0.279   7.436   4.260  1.2146 -0.3831  0.2186
   73MOL   N58049684   7.701   7.361   4.253 -0.0377 -0.1849  0.5844
   73MOL   C58149685   7.574   7.298   4.292 -0.3607 -0.6660  0.2600
   73MOL   C58249686   7.457   7.337   4.194  0.6281  0.4682 -0.4063
   73MOL   C58349687   7.322   7.275   4.229 -0.2390 -0.5825  0.0943
   73MOL   C58449688   7.216   7.316   4.130  0.5970  0.5858  0.3270
   73MOL   C58549689   7.148   7.446   4.167  0.5154 -0.5648 -0.3197
   73MOL   C58649690   7.018   7.472   4.084  1.3105 -0.3485  0.0951
   73MOL   C58749691   7.025   7.510   3.939 -0.5754 -0.0145 -0.5651
   73MOL   C58849692   6.891   7.570   3.897 -0.5398  0.4019  0.6355
   73MOL   C58949693   6.899   7.616   3.756  1.0297 -0.7698 -0.0509
   73MOL   C59049694   6.758   7.641   3.700  0.6542 -0.0001  0.6620
   73MOL   C59149695   6.764   7.689   3.558  0.1744  0.3976 -0.0218
   73MOL   O59249696   6.787   0.090   3.532  0.5159  0.3436  0.2209
   73MOL   H59349697   7.697   7.447   4.199 -1.6144 -0.4434  0.2668
   73MOL   H59449698   7.588   7.190   4.297 -1.7013 -0.8013  1.5817
   73MOL   H59549699   7.551   7.329   4.394 -0.3793 -0.0988  0.0830
   73MOL   H59649700   7.486   7.310   4.093 -0.2695  1.0733 -0.8350
   73MOL   H59749701   7.449   7.446   4.194  1.8176  0.5770 -2.1097
   73MOL   H59849702   7.346   7.169   4.234  0.1258 -0.5158 -0.2271
   73MOL   H59949703   7.293   7.302   4.331  1.4960 -0.9070  0.7067
   73MOL   H60049704   7.132   7.248   4.129 -1.9714  3.6147  2.1042
   73MOL   H60149705   7.263   7.312   4.032 -1.4292 -2.0519 -0.5924
   73MOL   H60249706   7.223   7.521   4.145 -2.8001  2.0407 -3.2231
   73MOL   H60349707   7.135   7.442   4.276 -0.4674 -1.1423 -0.4516
   73MOL   H60449708   6.951   7.388   4.101 -1.0977  1.6000  0.4514
   73MOL   H60549709   6.960   7.544   4.141 -0.2340  0.3874 -2.3516
   73MOL   H60649710   7.066   7.430   3.877  1.1189  2.4234 -2.6833
   73MOL   H60749711   7.108   7.581   3.933 -1.7545  1.3574 -0.7152
   73MOL   H60849712   6.819   7.488   3.891  0.6826 -0.7253  1.1332
   73MOL   H60949713   6.857   7.649   3.964  0.9187  0.5168  1.2607
   73MOL   H61049714   6.952   7.540   3.699  0.1307 -1.3116 -0.1778
   73MOL   H61149715   6.952   7.712   3.751 -0.3251 -0.0222 -0.3853
   73MOL   H61249716   6.710   0.006   3.755  0.9533  0.3686  0.3816
   73MOL   H61349717   6.693   7.553   3.708 -0.2370  0.5457 -0.4338
   73MOL   N61449718   6.744   7.591   3.467 -0.1050  0.0270 -0.4118
   73MOL   C61549719   6.751   7.609   3.324 -0.7879 -0.4430  0.5498
   73MOL   C61649720   6.614   7.629   3.253  0.2767 -0.2718 -0.3018
   73MOL   C61749721   6.537   0.032   3.299 -0.3966 -0.4702  0.0865
   73MOL   C61849722   6.409   0.056   3.213  0.0717  0.6382 -0.3467
   73MOL   C61949723   6.300   7.664   3.243  0.0105 -0.3046 -0.9026
   73MOL   C62049724   6.171   7.694   3.161 -0.0313 -0.0577  0.0281
   73MOL   C62149725   6.181   7.685   3.007 -0.4589  0.2135  0.6100
   73MOL   C62249726   6.256   7.560   2.959  0.2878 -0.4587 -0.0886
   73MOL   C62349727   6.173   7.428   2.987  0.0158  0.5403 -0.6327
   73MOL   C62449728   6.260   7.308   2.959  0.1519  0.0608 -0.6010
   73MOL   C62549729   6.178   7.182   2.937 -0.1120 -0.3697 -0.6549
   73MOL   O62649730   6.123   7.120   3.027  0.1371  0.0088  0.2949
   73MOL   H62749731   6.715   7.501   3.503 -0.7068  0.1800 -0.5023
   73MOL   H62849732   6.797   7.521   3.279  0.0717  0.4304 -0.3092
   73MOL   H62949733   6.828   7.684   3.303 -1.9493  0.5287 -0.3246
   73MOL   H63049734   6.556   7.538   3.262 -0.4470  0.2271  0.1785
   73MOL   H63149735   6.644   7.650   3.150 -0.7068  1.8457 -0.2034
   73MOL   H63249736   6.501   0.008   3.400 -1.0336 -0.1858 -0.0680
   73MOL   H63349737   6.604   0.118   3.302  1.1571 -1.6041 -1.2668
   73MOL   H63449738   6.440   0.071   3.110 -1.6693 -2.3044 -1.3668
   73MOL   H63549739   6.383   0.155   3.250  2.1706  0.6445  1.2179
   73MOL   H63649740   6.279   7.678   3.350  1.3968 -3.5987 -0.1472
   73MOL   H63749741   6.326   7.559   3.233  2.6172  0.3532 -1.3369
   73MOL   H63849742   6.094   7.634   3.210 -1.5792  1.7942 -0.0752
   73MOL   H63949743   6.147   0.081   3.185  1.0874  0.4878 -1.1066
   73MOL   H64049744   6.221   0.057   2.955  1.2685  0.4168  2.2423
   73MOL   H64149745   6.075   7.689   2.982 -0.6306  1.0549  1.4340
   73MOL   H64249746   6.273   7.573   2.852  2.5203  0.4944  0.3656
   73MOL   H64349747   6.357   7.560   3.000  0.2495 -0.7994  0.0039
   73MOL   H64449748   6.094   7.433   2.912 -1.5288  0.6492  0.9717
   73MOL   H64549749   6.152   7.432   3.094  0.7187  0.5020 -0.4918
   73MOL   H64649750   6.327   7.281   3.041 -2.5515 -1.1283  1.2770
   73MOL   H64749751   6.320   7.318   2.868  0.4174 -0.8259 -0.5245
   73MOL   N64849752   6.166   7.144   2.808  0.6894  0.4541 -0.5981
   73MOL   C64949753   6.074   7.041   2.773  0.9184  0.4838 -0.0659
   73MOL   C65049754   6.107   6.998   2.630  0.0287  0.6040 -0.5136
   73MOL   C65149755   6.031   6.881   2.570 -0.1860 -0.6530  0.0207
   73MOL   C65249756   6.033   6.897   2.415  0.3646 -0.0743  0.2268
   73MOL   C65349757   5.991   6.766   2.351 -0.2666  0.3311 -0.4541
   73MOL   C65449758   6.022   6.763   2.201  0.0831  0.4560  0.4113
   73MOL   C65549759   5.944   6.865   2.121  1.2593 -0.4670  0.3107
   73MOL   C65649760   5.790   6.868   2.146 -0.5120  0.1847  0.0254
   73MOL   C65749761   5.705   6.962   2.052  0.2691 -0.0368  0.2152
   73MOL   C65849762   5.558   6.988   2.105 -0.1067 -0.2521  0.0544
   73MOL   C65949763   5.470   7.081   2.020  0.7279 -0.8198  0.2627
   73MOL   O66049764   5.523   7.149   1.934 -0.7320 -0.2312 -0.3102
   73MOL   H66149765   6.214   7.195   2.735  0.6469  2.0225  0.4318
   73MOL   H66249766   5.969   7.068   2.790  0.2840 -0.9946 -1.5405
   73MOL   H66349767   6.089   6.952   2.833  3.7623  0.1289 -1.2158
   73MOL   H66449768   6.214   6.976   2.628 -0.5448 -2.4089 -0.6390
   73MOL   H66549769   6.102   7.094   2.579  1.3810  1.0705  0.2174
   73MOL   H66649770   6.074   6.784   2.595  1.8551 -0.1263 -1.3218
   73MOL   H66749771   5.926   6.882   2.598 -0.0050  0.7526  0.6400
   73MOL   H66849772   6.139   6.916   2.397  0.4306 -1.3405 -0.7206
   73MOL   H66949773   5.975   6.983   2.380  1.0237  1.2443  2.2370
   73MOL   H67049774   5.886   6.746   2.371 -0.2067  1.5705  1.1840
   73MOL   H67149775   6.052   6.687   2.395  1.2804  2.5221  1.4720
   73MOL   H67249776   6.124   6.788   2.176  1.0475 -2.1474  1.5018
   73MOL   H67349777   6.002   6.660   2.169 -0.0899 -0.1358  2.3130
   73MOL   H67449778   5.962   6.850   2.014 -1.4641  2.8946 -0.7359
   73MOL   H67549779   5.977   6.968   2.137 -1.4263  0.8072 -1.9535
   73MOL   H67649780   5.757   6.764   2.142  1.4603 -0.4540 -0.7566
   73MOL   H67749781   5.764   6.909   2.243  0.2097  2.2990 -0.6476
   73MOL   H67849782   5.701   6.921   1.951 -0.7063  2.7976 -0.9438
   73MOL   H67949783   5.752   7.061   2.052  0.9488 -0.3326 -1.7016
   73MOL   H68049784   5.572   7.023   2.207 -1.0110 -0.1134  0.1357
   73MOL   H68149785   5.500   6.897   2.113  1.0344 -1.0363 -0.3366
   73MOL   H68249786   5.361   7.085   2.018  0.6535 -1.9958  1.0500
   7.71574   7.71574   7.71574
