Control file title. For DL_FIELD 4.10 t= 30000.00000 step= 30000000
49910
    1MOL     C1    1   1.575   3.337   5.478 -0.3186 -0.2243  0.3948
    1MOL     C2    2   1.434   3.397   5.499  0.7997 -0.5232  0.0685
    1MOL     C3    3   1.407   3.533   5.499  0.1259 -0.6582 -0.0177
    1MOL     C4    4   1.286   3.580   5.544 -0.1301 -0.4402 -0.3153
    1MOL     C5    5   1.183   3.488   5.585 -0.2590 -0.2935 -0.2277
    1MOL     C6    6   1.054   3.535   5.645  0.4531  0.0091  0.8158
    1MOL     C7    7   1.200   3.349   5.570 -0.4759  0.0220 -0.3457
    1MOL     C8    8   1.329   3.306   5.535  0.3888  0.4451 -0.5717
    1MOL     H9    9   1.647   3.419   5.486 -0.0056 -0.6113  1.7329
    1MOL    H10   10   1.614   3.266   5.551  2.5052 -1.0509 -1.8014
    1MOL    H11   11   1.483   3.602   5.467  1.4825 -3.6817 -3.7001
    1MOL    H12   12   1.268   3.686   5.544 -0.3266 -0.4571  1.7068
    1MOL    H13   13   1.035   3.471   5.731 -0.1158 -1.2459 -0.2365
    1MOL    H14   14   1.068   3.640   5.670 -0.3985  0.1108  0.8620
    1MOL    H15   15   1.124   3.289   5.617  0.1830 -0.0436  0.6406
    1MOL    H16   16   1.345   3.200   5.526  1.5365  0.5193  0.5462
    1MOL    H17   17   1.592   3.301   5.376  2.1189  1.5278  0.1425
    1MOL    C18   18   0.936   3.526   5.538 -0.3412 -1.0286 -0.2101
    1MOL    C19   19   0.811   3.595   5.594  0.3934  0.7516  0.7522
    1MOL    C20   20   0.809   3.730   5.634 -0.3062  0.3968 -0.3343
    1MOL    C21   21   0.690   3.791   5.676  0.8393 -0.5661 -0.3030
    1MOL    C22   22   0.571   3.711   5.691 -0.1471 -0.0154 -0.0061
    1MOL    C23   23   0.434   3.765   5.740  0.1585  0.5663 -0.0181
    1MOL    C24   24   0.565   3.583   5.631  0.3667  0.4053 -0.8826
    1MOL    C25   25   0.687   3.521   5.590  0.3072  0.3274  0.1591
    1MOL    H26   26   0.971   3.569   5.444  0.1763 -1.8819 -0.4109
    1MOL    H27   27   0.914   3.423   5.508 -2.4449 -1.4012  2.3573
    1MOL    H28   28   0.900   3.787   5.632  0.4941 -0.8882 -1.5924
    1MOL    H29   29   0.680   3.891   5.715  0.5750 -0.5057 -0.5259
    1MOL    H30   30   0.440   3.833   5.825 -0.7298  1.0749 -0.3573
    1MOL    H31   31   0.388   3.670   5.770  0.9229  0.4951  0.9850
    1MOL    H32   32   0.468   3.535   5.622  1.7480 -2.4816 -1.0888
    1MOL    H33   33   0.695   3.423   5.545  2.6339  0.9539 -0.8515
    1MOL    C34   34   0.341   3.815   5.628 -0.8734 -0.7363  0.5028
    1MOL    C35   35   0.197   3.824   5.668 -0.2058  0.1690  0.2029
    1MOL    C36   36   0.095   3.770   5.585  0.2016  1.0674 -0.1388
    1MOL    C37   37  -0.042   3.773   5.627  0.5367  0.3430  0.0665
    1MOL    C38   38  -0.076   3.845   5.741 -0.6007  0.2267  0.2936
    1MOL    C39   39  -0.219   3.853   5.791 -0.1563  0.3028 -0.4223
    1MOL    C40   40   0.025   3.893   5.823  0.2815 -0.7258  0.2185
    1MOL    C41   41   0.160   3.886   5.788 -0.6455  0.3675 -0.2772
    1MOL    H42   42   0.345   3.745   5.544  0.0198 -2.1347  1.6837
    1MOL    H43   43   0.372   3.914   5.596 -1.3209 -0.6834  0.2329
    1MOL    H44   44   0.127   3.733   5.488 -1.3461  0.3545 -0.3972
    1MOL    H45   45  -0.123   3.736   5.566  1.6276 -5.1612  1.6677
    1MOL    H46   46  -0.260   3.754   5.769  0.0649  0.5100 -1.7768
    1MOL    H47   47  -0.223   3.869   5.899 -1.2377 -1.6581 -0.1324
    1MOL    H48   48  -0.013   3.942   5.912 -1.4124 -0.8396 -0.4155
    1MOL    H49   49   0.235   3.935   5.849  2.3505 -2.8544 -1.2082
    1MOL    C50   50  -0.313   3.951   5.707  0.7099  0.1645 -1.0274
    1MOL    C51   51  -0.458   3.940   5.748  0.7761 -1.3493 -0.0235
    1MOL    C52   52  -0.557   3.876   5.678 -0.8217  0.0103 -0.0642
    1MOL    C53   53  -0.689   3.869   5.720  0.1207 -0.0205  0.2789
    1MOL    C54   54  -0.728   3.932   5.836  0.0119  0.2505 -0.2794
    1MOL    C55   55  -0.875   3.939   5.884  0.3751 -0.6120 -0.1194
    1MOL    C56   56  -0.631   4.003   5.909 -0.3138  0.3394  0.5119
    1MOL    C57   57  -0.501   4.009   5.865  0.0094  0.2524 -0.0739
    1MOL    H58   58  -0.306   3.937   5.599  0.9069  2.8636 -1.4006
    1MOL    H59   59  -0.285   4.054   5.728 -0.5839 -0.0336  1.9367
    1MOL    H60   60  -0.531   3.829   5.585 -0.3369 -0.0990  0.1293
    1MOL    H61   61  -0.752   3.803   5.662  0.6304  1.0460 -1.5375
    1MOL    H62   62  -0.926   3.862   5.826 -3.2561  0.2302  1.7890
    1MOL    H63   63  -0.881   3.907   5.988 -0.5027  1.4249  0.4998
    1MOL    H64   64  -0.656   4.060   5.997 -2.5047  0.9977 -0.4952
    1MOL    H65   65  -0.415   4.053   5.912  0.0722  0.8499 -0.7383
    1MOL    C66   66  -0.950   4.071   5.869 -0.4896 -0.2424  0.5179
    1MOL    C67   67  -1.092   4.068   5.912 -0.2106  0.3570  0.0807
    1MOL    C68   68  -1.190   4.012   5.821 -0.0100  0.5605  0.1959
    1MOL    C69   69  -1.325   4.004   5.859  0.1477 -0.1835  0.4433
    1MOL    C70   70  -1.369   4.051   5.985  0.0061 -1.1996 -0.2676
    1MOL    C71   71  -1.523   4.060   6.006 -0.3004  0.4989 -0.2562
    1MOL    C72   72  -1.281   4.113   6.074  0.4238 -0.2740 -0.0761
    1MOL    C73   73  -1.143   4.121   6.038 -0.0371 -0.2855  0.2957
    1MOL    H74   74  -0.948   4.095   5.762 -0.2362  0.2377  0.6272
    1MOL    H75   75  -0.903   4.149   5.929 -1.3824  0.1417  0.7188
    1MOL    H76   76  -1.167   3.957   5.731  1.0469  0.5623  0.4622
    1MOL    H77   77  -1.399   3.970   5.788 -0.0601  2.9395 -0.9233
    1MOL    H78   78  -1.559   3.998   6.087 -1.2429 -0.3979 -1.3461
    1MOL    H79   79  -1.561   4.016   5.914 -0.0367 -0.1930 -0.0336
    1MOL    H80   80  -1.316   4.153   6.168  1.3765  0.6946 -0.1247
    1MOL    H81   81  -1.072   4.173   6.101 -0.0503  0.3978 -0.2541
    1MOL    C82   82  -1.569   4.208   6.023 -0.5723  0.4644 -0.6045
    1MOL    C83   83  -1.718   4.216   6.050 -0.8290  0.5644 -0.0638
    1MOL    C84   84  -1.771   4.285   6.162 -0.7283  0.1661 -0.0128
    1MOL    C85   85  -1.904   4.276   6.201  0.2971 -0.0521 -0.0338
    1MOL    C86   86  -1.996   4.213   6.110  0.5463 -0.7040 -0.4738
    1MOL    C87   87  -2.151   4.217   6.134  0.0321 -0.5815 -0.2941
    1MOL    C88   88  -1.940   4.141   5.996  0.5927  0.0899  0.2951
    1MOL    C89   89  -1.803   4.131   5.973  0.2075  0.4419 -0.5060
    1MOL    H90   90  -1.544   4.255   5.927  2.8000  0.4827  0.1991
    1MOL    H91   91  -1.512   4.258   6.102 -0.1830 -1.0717  0.0980
    1MOL    H92   92  -1.702   4.334   6.229 -0.2467  1.3436 -1.3550
    1MOL    H93   93  -1.937   4.336   6.284  1.9169  1.4179 -0.4087
    1MOL    H94   94  -2.187   4.311   6.175 -0.6400 -1.2355  0.6337
    1MOL    H95   95  -2.171   4.137   6.205  0.6175  0.4572  1.0594
    1MOL    H96   96  -1.995   4.077   5.928  1.7554 -0.9843  0.3620
    1MOL    H97   97  -1.778   4.075   5.884  0.0364 -1.6860  0.7504
    1MOL    C98   98  -2.244   4.197   6.015 -0.0110 -0.1420  0.1071
    1MOL    C99   99  -2.395   4.197   6.042  0.3509  0.6727 -0.5365
    1MOL   C100  100  -2.478   4.298   5.989 -0.1709 -0.2608  0.6308
    1MOL   C101  101  -2.609   4.306   6.040 -0.1396  0.4376 -0.1545
    1MOL   C102  102  -2.668   4.208   6.122  0.2200 -0.4971 -0.6619
    1MOL   C103  103  -2.815   4.217   6.172 -0.0811  0.2929  0.2415
    1MOL   C104  104  -2.589   4.105   6.167 -0.0559  0.2306 -0.3946
    1MOL   C105  105  -2.452   4.098   6.131 -0.0889  0.1165 -0.0293
    1MOL   H106  106  -2.213   4.103   5.970 -2.0421 -0.1931 -1.2730
    1MOL   H107  107  -2.219   4.273   5.942 -0.1203  0.5618  0.7901
    1MOL   H108  108  -2.445   4.383   5.931 -2.0184  0.3579  0.4411
    1MOL   H109  109  -2.668   4.389   6.004  0.6600  1.6948  1.3775
    1MOL   H110  110  -2.868   4.251   6.084 -2.2432  0.9940  1.7837
    1MOL   H111  111  -2.856   4.124   6.213  0.8564 -1.1941 -2.1001
    1MOL   H112  112  -2.635   4.028   6.228  3.1291 -0.6489  0.9654
    1MOL   H113  113  -2.381   4.027   6.170 -0.9267 -0.6266  0.1482
    1MOL   C114  114  -2.834   4.321   6.288 -0.2751  0.5380 -0.0384
    1MOL   C115  115  -2.984   4.347   6.303 -0.5365  0.1073 -0.0344
    1MOL   C116  116  -3.050   4.440   6.225 -0.5729  0.1567  0.8280
    1MOL   C117  117  -3.190   4.453   6.229  0.4992 -0.5731 -0.5764
    1MOL   C118  118  -3.268   4.386   6.333 -0.1931  0.0746 -0.2030
    1MOL   C119  119  -3.414   4.407   6.366  0.5948 -0.7534  0.1210
    1MOL   C120  120  -3.193   4.300   6.417  0.0177  0.0727  0.9349
    1MOL   C121  121  -3.057   4.274   6.402 -0.1506 -0.0537  0.3773
    1MOL   H122  122  -2.786   4.415   6.262 -2.0675  1.1705 -1.1887
    1MOL   H123  123  -2.791   4.287   6.383  1.6762  2.5082 -0.1870
    1MOL   H124  124  -3.004   4.496   6.145 -0.6879  0.0378  0.6793
    1MOL   H125  125  -3.232   4.530   6.165 -0.8234 -1.3333 -0.6450
    1MOL   H126  126  -3.463   4.309   6.365  0.0556 -0.4833 -0.0308
    1MOL   H127  127  -3.439   4.448   6.464  2.3438 -1.3216  0.8190
    1MOL   H128  128  -3.237   4.251   6.502  0.1560 -0.2840  0.8008
    1MOL   H129  129  -3.005   4.200   6.461 -0.9780 -0.7385  0.2531
    1MOL   C130  130  -3.492   4.481   6.255 -0.6425 -0.2237  0.4186
    1MOL   C131  131  -3.644   4.457   6.281  0.6399 -0.0748 -0.1077
    1MOL   C132  132  -3.714   4.566   6.329  0.1823 -0.6419  0.0064
    1MOL   C133  133  -3.843   4.547   6.385  0.4657  0.0119 -0.2592
    1MOL   C134  134  -3.917   4.427   6.363  0.1203  0.3987 -0.0227
    1MOL   C135  135  -4.056   4.407   6.413  0.6622 -0.2307  0.1266
    1MOL   C136  136  -3.853   4.330   6.289  0.0177  0.0466 -0.0292
    1MOL   C137  137  -3.718   4.342   6.252  0.1241 -0.6085  0.7238
    1MOL   H138  138  -3.466   4.461   6.151  0.1658  0.1094  0.5560
    1MOL   H139  139  -3.474   4.589   6.261 -1.4376 -0.1136  0.8743
    1MOL   H140  140  -3.659   4.659   6.325  2.5916 -2.1009 -2.0532
    1MOL   H141  141  -3.892   4.635   6.426 -0.6107 -1.4096  1.5851
    1MOL   H142  142  -4.067   4.302   6.437  0.3726 -0.5089 -1.1568
    1MOL   H143  143  -4.061   4.454   6.511  1.9318 -2.2029  1.1810
    1MOL   H144  144  -3.901   4.235   6.275 -0.3615  0.3187 -0.6158
    1MOL   H145  145  -3.673   4.250   6.217 -0.8315 -0.1945 -1.7288
    1MOL   C146  146  -4.169   4.442   6.312 -0.5714  0.1398 -0.0478
    1MOL   C147  147  -4.304   4.430   6.372  0.5296  0.0985  0.2702
    1MOL   C148  148  -4.363   4.308   6.402 -0.0316  0.3687  0.5862
    1MOL   C149  149  -4.501   4.290   6.429  0.0402  0.4300  0.5905
    1MOL   C150  150  -4.582   4.404   6.430  0.9682 -0.9203 -0.1602
    1MOL   C151  151  -4.729   4.400   6.458 -0.1583  0.4717 -0.4215
    1MOL   C152  152  -4.522   4.533   6.427 -0.0257 -0.3259  0.3848
    1MOL   C153  153  -4.387   4.543   6.386 -0.0692 -0.1594 -0.1363
    1MOL   H154  154  -4.159   4.393   6.215  1.6879  1.2134 -0.3701
    1MOL   H155  155  -4.156   4.548   6.291 -2.8247  0.5596  0.4846
    1MOL   H156  156  -4.297   4.223   6.409  0.6155  0.7050 -1.1884
    1MOL   H157  157  -4.536   4.188   6.433 -4.1257  1.7198 -0.1054
    1MOL   H158  158  -4.744   4.322   6.533  0.0146  1.4374  0.6090
    1MOL   H159  159  -4.756   4.487   6.517 -0.9727 -0.3739  0.4765
    1MOL   H160  160  -4.578   4.625   6.432  0.3539 -0.0246 -0.6173
    1MOL   H161  161  -4.351   4.643   6.367  0.6427 -0.2967  0.4882
    1MOL   C162  162  -4.812   4.385   6.323  0.3964  0.2681  0.0248
    1MOL   C163  163  -4.958   4.384   6.343  0.8084  0.1601 -0.6309
    1MOL   C164  164  -5.036   4.270   6.313 -0.5850  0.2519  0.0979
    1MOL   C165  165  -5.175   4.267   6.324  0.2679  0.4073 -0.7414
    1MOL   C166  166  -5.241   4.380   6.380 -0.1308 -0.0794  0.0939
    1MOL   C167  167  -5.388   4.379   6.416  0.6367  0.7556 -0.6155
    1MOL   C168  168  -5.163   4.494   6.416 -0.1841  0.7249  0.7185
    1MOL   C169  169  -5.025   4.496   6.398  0.1267  0.1947  0.1849
    1MOL   H170  170  -4.772   4.295   6.276 -1.3645  0.3248 -1.6484
    1MOL   H171  171  -4.782   4.469   6.262  0.7333  1.0470  1.2530
    1MOL   H172  172  -4.997   4.176   6.276 -1.1723 -0.2196  0.6460
    1MOL   H173  173  -5.239   4.187   6.289 -0.2161 -0.0402  1.1069
    1MOL   H174  174  -5.423   4.474   6.377 -3.1841  0.2665  1.3871
    1MOL   H175  175  -5.429   4.292   6.365  2.0677 -0.2941 -0.0231
    1MOL   H176  176  -5.211   4.571   6.475 -0.5742  1.9929 -1.2026
    1MOL   H177  177  -4.977   4.586   6.431  2.4203 -1.9248  2.8848
    1MOL   C178  178  -5.418   4.366   6.570  0.4846 -0.1920 -0.3425
    1MOL   C179  179  -5.563   4.397   6.604  0.0277  0.0608 -0.3158
    1MOL   C180  180  -5.598   4.529   6.609 -0.1917 -0.4735  0.0660
    1MOL   C181  181  -5.723   4.573   6.649  0.6096 -0.0389  0.2220
    1MOL   C182  182  -5.817   4.478   6.703  1.4304  0.2521  0.4336
    1MOL   C183  183  -5.945   4.527   6.764  0.8438 -0.0585 -0.4758
    1MOL   C184  184  -5.780   4.346   6.702  0.9093  0.4913 -0.3884
    1MOL   C185  185  -5.654   4.305   6.653 -0.7976 -0.5349 -0.3277
    1MOL   H186  186  -5.357   4.443   6.617 -1.4361 -0.7365  3.2652
    1MOL   H187  187  -5.394   4.266   6.606 -0.7386  0.1853  1.5834
    1MOL   H188  188  -5.537   4.612   6.579 -1.6984  1.1469  1.3862
    1MOL   H189  189  -5.748   4.678   6.659  2.0029  0.2803  0.4140
    1MOL   H190  190  -5.988   4.452   6.831  3.1558 -0.3328  0.7577
    1MOL   H191  191  -5.906   4.598   6.838 -0.7334  1.1300 -0.7581
    1MOL   H192  192  -5.843   4.270   6.745  0.5770  0.5077 -0.8435
    1MOL   H193  193  -5.618   4.204   6.658  0.6653  0.0267  1.0802
    1MOL   C194  194  -6.052   4.588   6.664  0.3453 -0.5610  0.3541
    1MOL   C195  195  -6.172   4.635   6.751  0.0291 -0.1185  0.2614
    1MOL   C196  196  -6.216   4.769   6.766 -1.3593  0.2009 -0.1663
    1MOL   C197  197  -6.329   4.797   6.846 -0.2688 -0.8922  0.5052
    1MOL   C198  198  -6.395   4.696   6.917 -0.2521  0.4563  0.7166
    1MOL   C199  199  -6.515   4.730   7.002  0.0238 -0.2445 -0.6038
    1MOL   C200  200  -6.355   4.564   6.894  0.0832  1.0289  0.0933
    1MOL   C201  201  -6.246   4.537   6.814  0.3805 -0.3851 -0.1051
    1MOL   H202  202  -6.083   4.517   6.588 -0.4434 -0.9672  1.0350
    1MOL   H203  203  -6.003   4.666   6.608  1.0254  0.1264  1.8741
    1MOL   H204  204  -6.171   4.851   6.712  0.9500 -0.0535  1.2891
    1MOL   H205  205  -6.356   4.899   6.868  1.0344 -0.6477  1.0456
    1MOL   H206  206  -6.544   4.654   7.075 -2.2063 -0.4620 -1.6821
    1MOL   H207  207  -6.494   4.816   7.065  0.7183  0.3487 -1.6249
    1MOL   H208  208  -6.411   4.483   6.938 -0.0166  1.6769  1.1795
    1MOL   H209  209  -6.232   4.433   6.789  2.4183 -0.3885  0.9742
    1MOL   C210  210  -6.637   4.776   6.916  0.6088  0.4541  0.4663
    1MOL   C211  211  -6.760   4.813   6.993 -0.3135 -0.5785  0.0733
    1MOL   C212  212  -6.807   4.947   7.004  0.1786 -0.1778  0.3617
    1MOL   C213  213  -6.923   4.976   7.077  0.1906  0.1750  0.6503
    1MOL   C214  214  -6.995   4.871   7.133 -0.1099  0.1372  0.2017
    1MOL   C215  215  -7.125   4.905   7.192  0.1768 -0.5721  0.1537
    1MOL   C216  216  -6.956   4.738   7.123  0.3231 -0.6458 -0.2128
    1MOL   C217  217  -6.834   4.711   7.055  0.1161  0.2564 -0.1381
    1MOL   H218  218  -6.668   4.691   6.855  3.1983 -1.7736  2.1464
    1MOL   H219  219  -6.622   4.860   6.847 -1.8742  0.1437 -0.4912
    1MOL   H220  220  -6.758   5.029   6.954 -0.9251 -0.2664 -0.8790
    1MOL   H221  221  -6.941   5.082   7.081  0.1868  0.2465 -1.0018
    1MOL   H222  222  -7.144   4.827   7.265  2.8927 -2.3617 -0.9928
    1MOL   H223  223  -7.100   4.997   7.246 -1.3979  0.1346 -0.2775
    1MOL   H224  224  -7.017   4.659   7.164 -1.4933  1.5935  1.5644
    1MOL   H225  225  -6.800   4.609   7.039 -1.4724 -0.2770 -0.1747
    1MOL   C226  226  -7.239   4.911   7.090  0.5519 -0.0655 -0.3569
    1MOL   C227  227  -7.369   4.959   7.144  0.7007  0.4544 -0.1061
    1MOL   C228  228  -7.460   4.863   7.198  0.0687 -0.6656 -0.0788
    1MOL   C229  229  -7.588   4.907   7.245  0.4500 -0.3268  0.3974
    1MOL   C230  230  -7.628   5.037   7.241  0.5781  0.2001  0.0379
    1MOL   C231  231  -7.759   5.091   7.288  0.8777 -0.4735  0.3598
    1MOL   C232  232  -7.537   5.133   7.186 -0.1512 -0.1978  0.5277
    1MOL   C233  233  -7.409   5.095   7.128 -0.0241  0.3109  0.8889
    1MOL   H234  234  -7.245   4.811   7.047 -0.8637  0.3153 -1.0936
    1MOL   H235  235  -7.216   4.976   7.005 -1.1468  1.7069  0.5184
    1MOL   H236  236  -7.432   4.759   7.198 -1.1188 -1.0272 -2.2394
    1MOL   H237  237  -7.657   4.835   7.287  1.7062  0.0512  3.2088
    1MOL   H238  238  -7.793   5.037   7.376 -0.4263  0.8817  0.7197
    1MOL   H239  239  -7.736   5.191   7.325 -2.6224  0.8895 -0.9483
    1MOL   H240  240  -7.574   5.234   7.187 -0.7637 -0.3789 -1.7006
    1MOL   H241  241  -7.348   5.166   7.073  0.3946 -0.9891 -0.3535
    1MOL   C242  242  -7.869   5.096   7.184  0.7395 -0.1745 -0.4023
    1MOL   C243  243  -8.008   5.132   7.246  0.0180  0.0730 -0.2247
    1MOL   C244  244  -8.086   5.033   7.308 -0.2282  0.0577 -0.2987
    1MOL   C245  245  -8.212   5.065   7.361 -0.8327 -0.0651  0.3587
    1MOL   C246  246  -8.256   5.196   7.348 -0.4484 -0.6439  0.4326
    1MOL   C247  247  -8.394   5.237   7.399  0.2876 -0.5620  0.0511
    1MOL   C248  248  -8.178   5.298   7.298 -0.2805  0.6752  0.0923
    1MOL   C249  249  -8.056   5.265   7.233 -0.3457  0.3070  0.3428
    1MOL   H250  250  -7.837   5.157   7.100 -0.5229  0.1705 -0.6543
    1MOL   H251  251  -7.873   4.991   7.155  0.2517 -0.5846  1.0920
    1MOL   H252  252  -8.045   4.933   7.307 -0.5409 -0.1055  1.8022
    1MOL   H253  253  -8.275   4.990   7.405  1.6862 -1.3648  1.8594
    1MOL   H254  254  -8.396   5.168   7.484  0.0105 -0.2559  0.2955
    1MOL   H255  255  -8.406   5.335   7.445 -2.6651 -1.0652  0.4690
    1MOL   H256  256  -8.202   5.403   7.290  0.3640  0.8127 -0.0840
    1MOL   H257  257  -7.999   5.341   7.182 -1.2790  1.6313  1.2547
    1MOL   C258  258  -8.507   5.188   7.308 -0.5588 -0.6598 -0.4300
    1MOL   C259  259  -8.637   5.241   7.355  0.4501 -0.1359  0.6630
    1MOL   C260  260  -8.677   5.373   7.313  0.3935 -0.3812 -0.4304
    1MOL   C261  261  -8.794   5.427   7.371  0.3214 -0.3050  0.2083
    1MOL   C262  262  -8.866   5.349   7.466 -0.0550  0.0612  0.5949
    1MOL   C263  263  -8.983   5.414   7.535 -0.0643  0.1227 -0.6857
    1MOL   C264  264  -8.829   5.220   7.496 -0.0181  0.6644  0.6252
    1MOL   C265  265  -8.709   5.167   7.446  0.8080  0.7125  0.0544
    1MOL   H266  266  -8.519   5.082   7.288 -2.9774 -0.9011  1.9341
    1MOL   H267  267  -8.484   5.240   7.215  1.1649  1.8308  1.3266
    1MOL   H268  268  -8.609   5.428   7.250 -0.4786  1.8423  0.5161
    1MOL   H269  269  -8.810   5.532   7.350 -0.2144 -0.4899 -0.3551
    1MOL   H270  270  -8.992   5.383   7.639 -2.2231  0.7126 -0.6743
    1MOL   H271  271  -8.979   5.523   7.540  0.3017  0.0031  2.0247
    1MOL   H272  272  -8.887   5.165   7.569 -2.4658  1.7251 -0.4458
    1MOL   H273  273  -8.676   5.068   7.473  0.9774 -0.1008 -3.0224
    1MOL   C274  274  -9.120   5.384   7.467 -0.6605  0.8481 -0.3748
    1MOL   C275  275  -9.236   5.425   7.560 -0.2109  0.0699  0.2546
    1MOL   C276  276  -9.298   5.333   7.640  0.4120  0.6754  0.1951
    1MOL   C277  277  -9.398   5.369   7.728  0.0556  0.3972  0.3151
    1MOL   C278  278  -9.444   5.497   7.733 -0.0353 -0.5215 -0.6828
    1MOL   C279  279  -9.559   5.525   7.828  0.1314 -0.2259  0.0154
    1MOL   C280  280  -9.391   5.596   7.645  0.0422  0.2194 -0.4145
    1MOL   C281  281  -9.280   5.560   7.565  0.6698  0.3742  0.0773
    1MOL   H282  282  -9.127   5.422   7.365  0.6683  0.0361 -0.7865
    1MOL   H283  283  -9.121   5.277   7.452 -0.3271  1.2453 -3.5568
    1MOL   H284  284  -9.262   5.232   7.639 -1.9870 -0.1983 -0.0730
    1MOL   H285  285  -9.438   5.292   7.792 -3.3900  0.8100 -1.2228
    1MOL   H286  286  -9.573   5.439   7.895  0.1677  1.5194  2.3123
    1MOL   H287  287  -9.536   5.611   7.890  1.4282 -1.3753  1.1663
    1MOL   H288  288  -9.421   5.700   7.644  1.3249  0.5934 -0.1494
    1MOL   H289  289  -9.240   5.635   7.498  0.3093  0.6778  0.2033
    1MOL   C290  290  -9.689   5.542   7.743 -0.6176  0.2336  0.7011
    1MOL   C291  291  -9.810   5.571   7.829  0.7100 -0.1634  0.2882
    1MOL   C292  292  -9.872   5.466   7.899  0.5470 -0.0151 -0.2784
    1MOL   C293  293  -9.981   5.494   7.979  0.1883  0.0422  0.2896
    1MOL   C294  294 -10.042   5.621   7.991  0.0897  0.1668 -0.1170
    1MOL   C295  295 -10.154   5.641   8.091  0.2458  0.4048  0.1365
    1MOL   C296  296  -9.973   5.729   7.931 -1.0081  0.8133 -0.1818
    1MOL   C297  297  -9.861   5.701   7.842 -0.0632 -0.6649 -0.8821
    1MOL   H298  298  -9.703   5.451   7.684  1.1445  1.2007 -1.2615
    1MOL   H299  299  -9.669   5.618   7.668  3.3507 -2.3855 -1.0803
    1MOL   H300  300  -9.839   5.365   7.880  3.3667  0.5538  1.4012
    1MOL   H301  301 -10.027   5.408   8.025 -1.2954  1.6792  1.9679
    1MOL   H302  302 -10.185   5.538   8.110  3.2069 -0.2068  2.0094
    1MOL   H303  303 -10.115   5.661   8.191  1.0580 -1.2532  0.1683
    1MOL   H304  304 -10.013   5.828   7.948 -2.8377  0.1196 -0.3035
    1MOL   H305  305  -9.818   5.778   7.780 -0.1257  1.1801  1.3050
    1MOL   C306  306 -10.258   5.742   8.046  0.0033  0.2977  0.2559
    1MOL   C307  307 -10.390   5.738   8.123  0.4326 -0.3822 -0.0358
    1MOL   C308  308 -10.403   5.808   8.245  0.5065 -0.3295 -0.2400
    1MOL   C309  309 -10.522   5.816   8.317  0.5074 -0.4154  0.7010
    1MOL   C310  310 -10.640   5.751   8.261 -0.0029  0.4897  0.3871
    1MOL   C311  311 -10.768   5.758   8.344 -0.4836  0.2950 -0.1547
    1MOL   C312  312 -10.628   5.673   8.144 -0.5659  0.5617  0.0324
    1MOL   C313  313 -10.508   5.671   8.073  0.2649 -0.0996  0.0069
    1MOL   H314  314 -10.273   5.746   7.938  1.9645  2.2113  0.0194
    1MOL   H315  315 -10.216   5.840   8.072  1.2194 -0.2598  0.4358
    1MOL   H316  316 -10.320   5.865   8.283 -1.1844  2.7079 -0.9223
    1MOL   H317  317 -10.532   5.871   8.409  0.5761  0.2692  0.3002
    1MOL   H318  318 -10.853   5.709   8.296 -0.3327 -1.5860  1.4458
    1MOL   H319  319 -10.763   5.710   8.441  0.7856 -1.3767 -1.0183
    1MOL   H320  320 -10.714   5.618   8.108 -0.5043  1.5262 -1.6357
    1MOL   H321  321 -10.509   5.626   7.975  1.5433  1.8936 -0.9590
    1MOL   H322  322 -10.794   5.864   8.339 -2.1180 -0.0722  0.5227
    2MOL     C1  323   6.924   7.486   7.789  0.3983  0.3700  0.4337
    2MOL     C2  324   7.058   7.424   7.801 -0.1065 -0.4372 -0.2426
    2MOL     C3  325   7.125   7.428   7.922 -0.4125  0.1628  1.1535
    2MOL     C4  326   7.241   7.353   7.936 -0.3021 -0.0527 -0.2039
    2MOL     C5  327   7.309   7.296   7.823 -0.5196 -0.1359  0.1570
    2MOL     C6  328   7.447   7.232   7.839 -0.0845 -0.6053  0.7540
    2MOL     C7  329   7.251   7.308   7.696  0.3364 -1.1464  0.1354
    2MOL     C8  330   7.123   7.359   7.693  0.3270 -0.2192  0.7430
    2MOL     H9  331   6.934   7.594   7.798 -1.3565  0.5479  0.2800
    2MOL    H10  332   6.856   7.464   7.707  0.9573  0.0168  0.0580
    2MOL    H11  333   7.082   7.476   8.009  0.2911 -1.9840  2.7134
    2MOL    H12  334   7.286   7.340   8.034 -3.7568 -0.7748  1.3483
    2MOL    H13  335   7.493   7.269   7.931 -1.0466  0.0989  0.9624
    2MOL    H14  336   7.418   7.128   7.856  0.4821 -0.5125  2.4170
    2MOL    H15  337   7.296   7.274   7.604 -0.0344 -2.9402  0.5877
    2MOL    H16  338   7.069   7.369   7.600  0.3111 -1.7548  0.5795
    2MOL    H17  339   6.863   7.461   7.876 -2.0938 -0.8277 -1.6031
    2MOL    C18  340   7.544   7.247   7.724  0.1336  0.1105  0.0632
    2MOL    C19  341   7.674   7.163   7.732 -0.2040 -0.1215  0.2337
    2MOL    C20  342   7.684   7.025   7.690  0.6852  0.0824  1.1483
    2MOL    C21  343   7.805   6.956   7.717  0.1215  0.5012 -0.1471
    2MOL    C22  344   7.912   7.022   7.779  0.1479  0.4003 -0.2121
    2MOL    C23  345   8.040   6.943   7.797 -0.0833 -0.9273  0.1631
    2MOL    C24  346   7.908   7.158   7.818 -0.9017  0.2741 -0.7220
    2MOL    C25  347   7.784   7.223   7.798  0.2726 -0.1400  0.1838
    2MOL    H26  348   7.503   7.210   7.630  0.1432  0.5243 -0.1049
    2MOL    H27  349   7.561   7.355   7.724  0.3205  0.0813  0.7226
    2MOL    H28  350   7.602   6.985   7.633 -0.0937  1.3076  1.3810
    2MOL    H29  351   7.825   6.854   7.688  1.6588  0.0492  2.3142
    2MOL    H30  352   8.022   6.836   7.786  0.9980 -1.1219  0.2601
    2MOL    H31  353   8.078   6.945   7.899  0.5346 -1.8576 -0.0472
    2MOL    H32  354   7.997   7.198   7.864 -2.0068  0.7228  1.0677
    2MOL    H33  355   7.776   7.324   7.835 -0.4509  0.1523 -0.7435
    2MOL    C34  356   8.160   6.979   7.704  0.1774 -0.2847  0.1488
    2MOL    C35  357   8.292   6.912   7.731  0.7881  0.0140  0.1890
    2MOL    C36  358   8.335   6.865   7.855 -0.2223  0.4731 -0.1366
    2MOL    C37  359   8.459   6.800   7.869  0.9404 -0.5617  0.2455
    2MOL    C38  360   8.548   6.790   7.759  0.4638 -0.9587  0.6032
    2MOL    C39  361   8.685   6.730   7.765 -0.7371  0.0713 -0.3254
    2MOL    C40  362   8.504   6.843   7.636  0.3139  0.0458  0.8214
    2MOL    C41  363   8.379   6.902   7.620  0.2129  0.9209  0.1212
    2MOL    H42  364   8.169   7.086   7.683  1.4099 -0.6146 -0.9772
    2MOL    H43  365   8.133   6.952   7.602 -2.9226  0.3322  0.7299
    2MOL    H44  366   8.268   6.870   7.940 -2.3955 -0.1793 -1.7723
    2MOL    H45  367   8.488   6.764   7.967 -1.4826 -1.1469  0.7902
    2MOL    H46  368   8.710   6.701   7.867  1.8971  0.5832 -0.8044
    2MOL    H47  369   8.668   6.636   7.712  0.5686  1.1258 -2.7281
    2MOL    H48  370   8.571   6.838   7.551 -0.5951  1.5875 -0.0110
    2MOL    H49  371   8.348   6.940   7.524 -0.0267 -0.2153 -0.2619
    2MOL    C50  372   8.799   6.825   7.709  0.1313  0.5544  0.6089
    2MOL    C51  373   8.934   6.761   7.712 -0.0763 -0.1345  0.1374
    2MOL    C52  374   9.001   6.735   7.831 -0.4512  0.8585 -0.5178
    2MOL    C53  375   9.136   6.684   7.833  0.3006 -0.6950 -0.3868
    2MOL    C54  376   9.201   6.659   7.709  0.7422  0.3765 -0.2705
    2MOL    C55  377   9.334   6.590   7.702  0.2658 -0.1405 -0.2279
    2MOL    C56  378   9.130   6.684   7.590 -0.3735  0.2997  0.2270
    2MOL    C57  379   9.002   6.738   7.591  0.1211 -0.2549  0.0195
    2MOL    H58  380   8.809   6.921   7.760  1.0603  1.9616 -2.1120
    2MOL    H59  381   8.781   6.851   7.605 -1.0554 -1.3344  0.3329
    2MOL    H60  382   8.953   6.738   7.927  0.6735 -2.9063  0.2148
    2MOL    H61  383   9.188   6.668   7.926 -0.1520  2.9881  0.5556
    2MOL    H62  384   9.368   6.554   7.799 -0.2603 -0.9364 -0.3352
    2MOL    H63  385   9.328   6.504   7.636 -0.4145  0.6291 -1.1878
    2MOL    H64  386   9.168   6.661   7.492  1.1523  0.0303  0.8639
    2MOL    H65  387   8.956   6.755   7.496  1.3263 -0.6516 -0.6490
    2MOL    C66  388   9.440   6.680   7.643 -1.0075  0.0220  0.2545
    2MOL    C67  389   9.570   6.600   7.626  0.2237  0.2378  0.3935
    2MOL    C68  390   9.598   6.532   7.508  0.4284 -0.0911 -0.3189
    2MOL    C69  391   9.720   6.475   7.486 -0.2092 -0.0511  0.2897
    2MOL    C70  392   9.821   6.468   7.585 -0.0272  0.0748 -0.5044
    2MOL    C71  393   9.948   6.393   7.565 -0.0013 -0.5885 -0.1013
    2MOL    C72  394   9.791   6.522   7.712  0.3334 -0.0738  0.8539
    2MOL    C73  395   9.664   6.590   7.729  0.0476  0.6399 -0.4963
    2MOL    H74  396   9.463   6.760   7.713 -0.5395  0.4362 -0.3604
    2MOL    H75  397   9.402   6.709   7.545 -1.8183 -0.3152  0.4658
    2MOL    H76  398   9.526   6.521   7.428 -2.1298 -1.2548  2.0345
    2MOL    H77  399   9.750   6.431   7.392  3.0178  2.9631 -0.1906
    2MOL    H78  400   9.934   6.331   7.477  0.3018  1.4066 -1.5914
    2MOL    H79  401   9.969   6.314   7.637  0.1718 -0.5339 -0.0922
    2MOL    H80  402   9.860   6.509   7.794 -2.8952 -0.3791  3.6268
    2MOL    H81  403   9.644   6.632   7.827  0.3037  0.6633 -0.4533
    2MOL    C82  404  10.060   6.492   7.529  0.1436 -0.1277 -0.0150
    2MOL    C83  405  10.198   6.426   7.512 -0.0712 -0.4109 -0.4009
    2MOL    C84  406  10.233   6.383   7.383 -0.9401  0.0844 -0.3415
    2MOL    C85  407  10.350   6.311   7.363  0.6925  0.3331 -0.0498
    2MOL    C86  408  10.433   6.279   7.477  0.2110 -0.6492  1.0019
    2MOL    C87  409  10.560   6.201   7.463 -0.4549 -0.3303 -0.1929
    2MOL    C88  410  10.401   6.318   7.606  0.0034  0.5119  0.4577
    2MOL    C89  411  10.283   6.395   7.621  0.3932  0.3068  0.4039
    2MOL    H90  412  10.080   6.567   7.605 -1.0792  0.1244  0.0626
    2MOL    H91  413  10.033   6.540   7.435 -2.5763 -0.7570  0.4191
    2MOL    H92  414  10.170   6.418   7.303 -1.2364  1.1095  0.3299
    2MOL    H93  415  10.389   6.277   7.267  0.2636 -0.2800 -0.0122
    2MOL    H94  416  10.530   6.128   7.387  0.2901 -0.9374  0.0924
    2MOL    H95  417  10.586   6.160   7.561  0.8022  0.7562 -0.0653
    2MOL    H96  418  10.469   6.303   7.690 -0.3205  0.1874  0.6616
    2MOL    H97  419  10.255   6.428   7.720 -0.1853  1.3158 -0.0880
    2MOL    C98  420  10.669   6.290   7.416 -0.1235 -0.1225  0.7576
    2MOL    C99  421  10.789   6.202   7.377 -0.1790  0.2267 -0.6361
    2MOL   C100  422  10.795   6.152   7.247 -0.1061  0.0389 -0.5950
    2MOL   C101  423  10.898   6.079   7.198 -0.2801  0.0402 -0.1412
    2MOL   C102  424  11.001   6.043   7.293 -0.1103  0.4158  0.6382
    2MOL   C103  425  11.112   5.954   7.227  0.0784  0.1728 -0.4576
    2MOL   C104  426  10.992   6.080   7.429  0.0148  0.2771 -0.2145
    2MOL   C105  427  10.887   6.166   7.468  0.1504  0.2637 -0.5128
    2MOL   H106  428  10.695   6.378   7.475  0.3281  0.9813 -1.0533
    2MOL   H107  429  10.630   6.336   7.326 -0.6774 -0.7960  0.6479
    2MOL   H108  430  10.714   6.174   7.179 -0.7573  0.4967  0.3115
    2MOL   H109  431  10.908   6.037   7.099  0.9796 -0.0784  0.0273
    2MOL   H110  432  11.069   5.858   7.199 -0.3309  0.1941  0.0881
    2MOL   H111  433  11.139   5.996   7.130  1.7536 -0.2516 -0.1834
    2MOL   H112  434  11.060   6.045   7.505 -0.1865 -1.1385 -0.6754
    2MOL   H113  435  10.891   6.218   7.563  0.7323 -0.6177 -0.0492
    2MOL   C114  436  11.240   5.934   7.313  0.0466  0.3376 -0.2460
    2MOL   C115  437  11.350   5.863   7.241 -0.3090  0.6012  0.3335
    2MOL   C116  438  11.411   5.923   7.129 -0.5791 -0.0889  0.1631
    2MOL   C117  439  11.522   5.861   7.067  0.2399 -0.8047  0.1943
    2MOL   C118  440  11.558   5.734   7.107  0.5233  0.5599 -0.7884
    2MOL   C119  441  11.677   5.672   7.031  0.0662 -0.6144  0.0700
    2MOL   C120  442  11.485   5.671   7.211 -0.3686  0.3958 -0.0633
    2MOL   C121  443  11.378   5.730   7.274  0.5883  0.1197 -0.3501
    2MOL   H122  444  11.210   5.876   7.401  0.1283 -0.6735 -0.8684
    2MOL   H123  445  11.266   6.035   7.343 -0.9016 -0.0608  2.0666
    2MOL   H124  446  11.377   6.023   7.104 -2.9055 -1.2722 -1.6224
    2MOL   H125  447  11.576   5.917   6.992 -0.9284  1.1118  0.7430
    2MOL   H126  448  11.655   5.566   7.044 -0.0322 -0.7111 -0.8110
    2MOL   H127  449  11.674   5.702   6.926  0.9266 -3.3239 -0.7731
    2MOL   H128  450  11.501   5.568   7.238 -0.5716  0.2559 -0.4730
    2MOL   H129  451  11.321   5.668   7.342  0.3205  1.1637  0.3848
    2MOL   C130  452  11.809   5.719   7.091 -0.4168  0.0223  0.0899
    2MOL   C131  453  11.929   5.641   7.037 -0.0660 -0.4454  0.5375
    2MOL   C132  454  12.016   5.703   6.941  0.8223 -0.7167 -0.6589
    2MOL   C133  455  12.149   5.663   6.921 -0.2461  0.0856 -0.1019
    2MOL   C134  456  12.190   5.538   6.978  0.2865  0.4044  0.2319
    2MOL   C135  457  12.323   5.479   6.944 -0.0589  0.0633  0.2190
    2MOL   C136  458  12.098   5.465   7.057 -0.2473 -0.4588 -0.6005
    2MOL   C137  459  11.967   5.516   7.090 -0.5005 -0.2124  0.1678
    2MOL   H138  460  11.805   5.698   7.198  2.7134 -0.2506  0.1775
    2MOL   H139  461  11.811   5.826   7.074 -2.8528 -0.1075 -1.4068
    2MOL   H140  462  11.989   5.793   6.889  0.2744 -0.1669  0.5452
    2MOL   H141  463  12.201   5.717   6.844  0.8227 -2.8461 -1.5059
    2MOL   H142  464  12.397   5.558   6.962 -1.1826  0.8270  1.6306
    2MOL   H143  465  12.343   5.395   7.010 -0.3749  0.2617  0.5691
    2MOL   H144  466  12.111   5.366   7.099 -2.3509 -0.8913 -0.8708
    2MOL   H145  467  11.910   5.476   7.173 -1.3906  2.7759  1.0754
    2MOL   C146  468  12.342   5.424   6.802  0.3137 -0.0758  0.4380
    2MOL   C147  469  12.481   5.388   6.767  0.5259  0.0965  0.0782
    2MOL   C148  470  12.573   5.489   6.736  0.1637  0.2743  0.1432
    2MOL   C149  471  12.707   5.451   6.733  0.3361 -0.0324  0.1945
    2MOL   C150  472  12.757   5.315   6.731 -0.1780 -0.0370  0.0644
    2MOL   C151  473  12.906   5.271   6.733 -0.6150 -0.5731 -0.0380
    2MOL   C152  474  12.660   5.217   6.762 -0.0745  0.2071  0.3425
    2MOL   C153  475  12.523   5.252   6.775 -0.6612  0.1347 -0.6095
    2MOL   H154  476  12.303   5.496   6.730 -1.4874 -1.2198  0.2398
    2MOL   H155  477  12.271   5.342   6.788 -0.2729 -0.0461  3.1078
    2MOL   H156  478  12.552   5.592   6.710 -0.7971  0.4930  1.6692
    2MOL   H157  479  12.787   5.519   6.711  1.7152 -1.4528  0.7366
    2MOL   H158  480  12.944   5.296   6.832 -0.1295  0.5922 -0.5057
    2MOL   H159  481  12.906   5.163   6.721 -1.5138 -0.8475  2.1872
    2MOL   H160  482  12.701   5.119   6.779 -0.0184  0.2206  0.2799
    2MOL   H161  483  12.445   5.180   6.791  0.7199 -2.3652 -4.3206
    2MOL   C162  484  12.991   5.341   6.626 -0.2358  0.3822  0.5571
    2MOL   C163  485  13.134   5.287   6.617  0.3110 -0.3355 -0.4281
    2MOL   C164  486  13.207   5.285   6.737 -0.2056 -0.8387 -0.1091
    2MOL   C165  487  13.340   5.229   6.730 -0.1006 -0.2975 -0.0150
    2MOL   C166  488  13.398   5.202   6.606  0.4189 -0.4366  0.0836
    2MOL   C167  489  13.540   5.150   6.607  0.3400  0.2150  0.3059
    2MOL   C168  490  13.329   5.227   6.492  0.4092 -0.6925 -0.2773
    2MOL   C169  491  13.195   5.250   6.496  0.3639 -0.2660 -0.3611
    2MOL   H170  492  13.007   5.447   6.641 -0.5889  0.7180 -1.2768
    2MOL   H171  493  12.930   5.326   6.536 -1.1199 -2.2915  1.5466
    2MOL   H172  494  13.177   5.309   6.837 -2.2556 -3.0061 -0.1801
    2MOL   H173  495  13.396   5.219   6.822  2.7898 -0.9551 -1.8039
    2MOL   H174  496  13.583   5.194   6.518  1.1938  1.3140  1.2461
    2MOL   H175  497  13.602   5.191   6.687  1.2861  0.7450 -0.6806
    2MOL   H176  498  13.375   5.205   6.397  0.6211 -2.1079  0.1412
    2MOL   H177  499  13.141   5.261   6.404  0.0703  0.1864 -0.1349
    2MOL   C178  500  13.553   4.996   6.589  0.4536  0.8362  0.2559
    2MOL   C179  501  13.689   4.952   6.545  0.0362  0.2321  0.9038
    2MOL   C180  502  13.740   4.994   6.413 -0.9609  0.1466 -0.3985
    2MOL   C181  503  13.868   4.947   6.367  0.4989 -0.1077 -0.0781
    2MOL   C182  504  13.941   4.861   6.451 -0.0688 -0.5168 -0.0870
    2MOL   C183  505  14.078   4.816   6.411  0.0899  1.1466 -0.7222
    2MOL   C184  506  13.892   4.820   6.575  1.0034 -0.3910 -0.3479
    2MOL   C185  507  13.767   4.867   6.628 -0.3683  0.1843  0.3949
    2MOL   H186  508  13.478   4.966   6.517  0.6523 -5.3993  2.3722
    2MOL   H187  509  13.517   4.942   6.676  0.8530  0.7291  0.3561
    2MOL   H188  510  13.678   5.056   6.350 -1.0749  0.8114  0.3532
    2MOL   H189  511  13.915   5.002   6.287 -1.2133  1.0256 -0.3443
    2MOL   H190  512  14.099   4.863   6.314  0.5298  0.4061 -0.9904
    2MOL   H191  513  14.148   4.859   6.482 -0.5376 -0.7839  1.1014
    2MOL   H192  514  13.958   4.761   6.636  0.5807 -2.4061 -1.7996
    2MOL   H193  515  13.742   4.827   6.726  1.1217  0.5119  0.9233
    2MOL   C194  516  14.083   4.665   6.386  0.3313 -0.2253  0.0298
    2MOL   C195  517  14.227   4.613   6.354  0.0333 -0.3936  0.0402
    2MOL   C196  518  14.269   4.570   6.224  0.0535  0.5816 -0.1406
    2MOL   C197  519  14.397   4.518   6.208  0.3891  0.1055  0.4378
    2MOL   C198  520  14.482   4.504   6.319  0.0920  0.4496  0.0718
    2MOL   C199  521  14.621   4.452   6.299  0.5072 -0.7580 -0.2446
    2MOL   C200  522  14.443   4.544   6.449 -0.5837  0.3250  0.3547
    2MOL   C201  523  14.314   4.603   6.462  0.5980  0.4376 -0.8432
    2MOL   H202  524  14.010   4.648   6.307  0.9682  0.8899 -0.8092
    2MOL   H203  525  14.050   4.611   6.475  0.3032 -2.9168 -1.5325
    2MOL   H204  526  14.197   4.580   6.144 -0.9266  1.0171  0.7785
    2MOL   H205  527  14.426   4.490   6.108  2.4145  2.1758  0.4008
    2MOL   H206  528  14.661   4.454   6.401 -0.2655  0.6040  0.0434
    2MOL   H207  529  14.610   4.348   6.267  2.8510 -1.4005  0.8794
    2MOL   H208  530  14.507   4.524   6.533 -1.7172 -0.3034  1.0782
    2MOL   H209  531  14.277   4.629   6.560 -2.9401  2.4404 -2.6289
    2MOL   C210  532  14.709   4.544   6.214 -0.0624  0.3786  0.5450
    2MOL   C211  533  14.855   4.506   6.217 -0.2532 -0.2386  0.2537
    2MOL   C212  534  14.907   4.432   6.106  0.0380  0.5296  0.6141
    2MOL   C213  535  15.034   4.383   6.109 -0.5708  0.2682  0.1489
    2MOL   C214  536  15.121   4.425   6.212 -0.1322 -0.0233  0.0686
    2MOL   C215  537  15.268   4.389   6.204 -0.0419  0.0926  0.0825
    2MOL   C216  538  15.075   4.514   6.314 -0.1879  0.1762  0.1387
    2MOL   C217  539  14.942   4.546   6.317  0.1071 -0.3418 -0.0271
    2MOL   H218  540  14.698   4.648   6.245  3.2823  0.8709  0.2473
    2MOL   H219  541  14.680   4.544   6.108  2.7449 -0.7322 -0.2576
    2MOL   H220  542  14.850   4.417   6.016  0.5758 -0.4912  0.4438
    2MOL   H221  543  15.077   4.325   6.029  1.0768  1.0819  0.4307
    2MOL   H222  544  15.315   4.414   6.300 -1.9760  1.0501  0.8082
    2MOL   H223  545  15.261   4.280   6.207 -1.7627  0.0911 -2.7304
    2MOL   H224  546  15.138   4.553   6.392  0.0376 -1.9478  1.0683
    2MOL   H225  547  14.902   4.615   6.390 -0.8178  1.6369 -2.3685
    2MOL   C226  548  15.339   4.447   6.083 -0.2057  0.3674 -0.1112
    2MOL   C227  549  15.486   4.418   6.084 -0.0089  0.5630  0.1576
    2MOL   C228  550  15.568   4.476   6.181  0.0240  0.4531  0.0286
    2MOL   C229  551  15.702   4.427   6.193 -0.0760  0.4677 -0.0523
    2MOL   C230  552  15.752   4.327   6.104 -1.0591 -0.3361  0.3773
    2MOL   C231  553  15.900   4.296   6.114  0.3635 -0.3184 -0.4077
    2MOL   C232  554  15.669   4.275   6.006 -0.1093  0.3909  0.2993
    2MOL   C233  555  15.535   4.320   5.998 -0.6191 -0.1010  0.3500
    2MOL   H234  556  15.321   4.554   6.095  1.4026  0.7807 -1.2801
    2MOL   H235  557  15.294   4.414   5.989 -1.2476  3.6272 -0.8289
    2MOL   H236  558  15.525   4.542   6.256  1.3485  0.0861  1.1500
    2MOL   H237  559  15.769   4.461   6.270  1.4807 -2.7278  0.0541
    2MOL   H238  560  15.938   4.374   6.180 -0.7966  1.4281 -1.7808
    2MOL   H239  561  15.914   4.199   6.162 -1.8609 -1.0753 -1.2558
    2MOL   H240  562  15.706   4.214   5.926  0.0931 -0.0156  0.7047
    2MOL   H241  563  15.467   4.281   5.923 -1.0742  1.6409 -0.1696
    2MOL   C242  564  15.972   4.290   5.981  0.1652  0.6562 -0.5451
    2MOL   C243  565  16.118   4.264   6.010 -0.2610 -0.3214 -0.8173
    2MOL   C244  566  16.210   4.369   6.004 -0.0549  0.2636  0.2941
    2MOL   C245  567  16.347   4.346   6.021 -0.0435  0.4081  0.3504
    2MOL   C246  568  16.385   4.213   6.055 -0.2477 -0.7116  0.6300
    2MOL   C247  569  16.540   4.180   6.045 -0.4270  0.3727  0.4475
    2MOL   C248  570  16.295   4.106   6.054  0.3880  0.1608 -0.6157
    2MOL   C249  571  16.158   4.131   6.033 -0.0273  0.0356  0.2266
    2MOL   H250  572  15.942   4.211   5.913 -2.1782  1.0811 -0.0527
    2MOL   H251  573  15.968   4.382   5.921  0.2999  0.5316 -0.7451
    2MOL   H252  574  16.164   4.466   5.991  3.3053  2.4088  3.3005
    2MOL   H253  575  16.416   4.428   6.010 -0.8841  0.9627 -1.0565
    2MOL   H254  576  16.599   4.265   6.079  1.8653 -0.5111 -1.2333
    2MOL   H255  577  16.554   4.097   6.114  1.7605  0.6568  0.3766
    2MOL   H256  578  16.336   4.006   6.063  1.0661  0.2704 -2.2700
    2MOL   H257  579  16.085   4.052   6.037 -0.2398  0.2646  1.0157
    2MOL   C258  580  16.588   4.141   5.907  0.4584  0.6253  0.4627
    2MOL   C259  581  16.739   4.108   5.910  0.1785 -0.3392  0.1475
    2MOL   C260  582  16.772   3.972   5.911  0.7500 -0.1578  0.1819
    2MOL   C261  583  16.901   3.929   5.901  0.2667  0.4774  0.0331
    2MOL   C262  584  17.008   4.024   5.906 -0.1586  0.7275  0.0752
    2MOL   C263  585  17.151   3.983   5.891 -0.1268 -0.3546 -0.0320
    2MOL   C264  586  16.974   4.160   5.911  0.0933 -0.2922  0.1114
    2MOL   C265  587  16.842   4.207   5.917 -0.0697  0.3444  0.5913
    2MOL   H266  588  16.574   4.210   5.824  1.2064  2.2388  1.6434
    2MOL   H267  589  16.538   4.055   5.863  0.2455  0.7843  0.3942
    2MOL   H268  590  16.688   3.905   5.919  1.9482 -1.7648 -0.4381
    2MOL   H269  591  16.917   3.822   5.896 -2.2240  0.0850 -0.2039
    2MOL   H270  592  17.219   4.062   5.924 -1.0701  1.0311 -1.3423
    2MOL   H271  593  17.172   3.908   5.967  3.1485  0.6270  0.1060
    2MOL   H272  594  17.056   4.230   5.901 -0.8187  0.8720  0.5959
    2MOL   H273  595  16.818   4.312   5.925  1.1705  0.4431  4.0228
    2MOL   C274  596  17.190   3.940   5.746 -0.7691  0.2285 -0.1774
    2MOL   C275  597  17.336   3.910   5.727 -1.0370  0.4093 -0.5897
    2MOL   C276  598  17.438   4.011   5.736 -0.0045 -1.7457 -0.3308
    2MOL   C277  599  17.579   3.981   5.723  0.7074 -0.0630 -0.5582
    2MOL   C278  600  17.618   3.848   5.718  0.4031 -0.2261  0.3498
    2MOL   C279  601  17.761   3.807   5.721  0.6515  0.0976  0.3285
    2MOL   C280  602  17.519   3.745   5.712 -0.6365  0.1106  0.2301
    2MOL   C281  603  17.382   3.775   5.712 -0.2335 -0.0508  0.0474
    2MOL   H282  604  17.135   3.857   5.703  2.1805 -1.7967 -0.2142
    2MOL   H283  605  17.165   4.022   5.679 -2.4107 -0.7953 -0.8266
    2MOL   H284  606  17.406   4.112   5.756 -0.3010 -1.7407 -0.8133
    2MOL   H285  607  17.660   4.047   5.747 -0.5645  0.1247  3.5150
    2MOL   H286  608  17.817   3.884   5.775  1.4130 -2.3388  3.1151
    2MOL   H287  609  17.770   3.712   5.773 -0.6229  0.5101  1.3382
    2MOL   H288  610  17.554   3.646   5.688 -0.5041  0.1862  0.1109
    2MOL   H289  611  17.311   3.695   5.698 -3.5857  2.4367  2.1549
    2MOL   C290  612  17.827   3.797   5.584 -0.0061  0.0011 -1.0200
    2MOL   C291  613  17.976   3.772   5.587 -0.9729 -0.0568 -0.4308
    2MOL   C292  614  18.063   3.852   5.515  0.1482  0.2556 -0.0782
    2MOL   C293  615  18.200   3.829   5.522 -0.0511 -0.0649 -0.4392
    2MOL   C294  616  18.256   3.733   5.602 -0.6301 -0.3158  0.0487
    2MOL   C295  617  18.404   3.716   5.607 -0.4713 -0.9876 -0.2591
    2MOL   C296  618  18.167   3.650   5.679 -0.1139 -0.1165 -0.1102
    2MOL   C297  619  18.029   3.674   5.671 -0.7165 -0.0395  0.1382
    2MOL   H298  620  17.813   3.894   5.537  2.3885  0.4255 -0.9297
    2MOL   H299  621  17.761   3.732   5.527 -1.4418  0.6315 -0.1123
    2MOL   H300  622  18.020   3.934   5.459  1.0986 -0.0510 -1.2901
    2MOL   H301  623  18.254   3.901   5.462 -1.8916  0.8926 -0.9716
    2MOL   H302  624  18.430   3.627   5.664  2.0930  1.4603  2.6032
    2MOL   H303  625  18.441   3.706   5.505  0.8453  1.1134 -0.0299
    2MOL   H304  626  18.217   3.574   5.737  0.2120 -0.6545 -1.0844
    2MOL   H305  627  17.973   3.608   5.735 -1.4693  0.3184 -0.1515
    2MOL   C306  628  18.479   3.822   5.682  0.2100  0.8799 -0.2150
    2MOL   C307  629  18.627   3.790   5.687  0.4528 -0.3956 -0.2707
    2MOL   C308  630  18.716   3.859   5.602  0.3455 -0.0267  0.8945
    2MOL   C309  631  18.855   3.831   5.619  0.2428  0.9041  0.4565
    2MOL   C310  632  18.904   3.740   5.704  0.0792  0.1812 -0.5800
    2MOL   C311  633  19.046   3.708   5.716  0.0658 -1.1764 -0.0440
    2MOL   C312  634  18.810   3.680   5.796  0.3389 -0.3668 -0.4947
    2MOL   C313  635  18.673   3.705   5.787 -0.1106  0.1117  0.1254
    2MOL   H314  636  18.446   3.817   5.785  2.5016 -0.1253  0.4879
    2MOL   H315  637  18.459   3.924   5.651  2.9342  0.8087 -2.4704
    2MOL   H316  638  18.687   3.926   5.522  0.5820 -0.3255  0.5553
    2MOL   H317  639  18.917   3.883   5.546  0.6637 -0.2534 -0.0160
    2MOL   H318  640  19.113   3.785   5.677  0.2374 -2.4975 -2.4800
    2MOL   H319  641  19.080   3.700   5.819  2.4864  0.5152 -0.6645
    2MOL   H320  642  18.844   3.616   5.876  0.0861 -1.7162 -1.4332
    2MOL   H321  643  18.603   3.667   5.860  0.8877 -0.9536  0.5419
    2MOL   H322  644  19.059   3.617   5.657  1.1980 -0.6948 -0.5561
    3MOL     C1  645   7.307   0.158   5.376  0.2017 -0.1379  0.9161
    3MOL     C2  646   7.199   0.255   5.404  0.0373  0.6438  0.5840
    3MOL     C3  647   7.078   0.210   5.469 -0.0291 -1.0642  0.2162
    3MOL     C4  648   6.977   0.307   5.498  0.7045  0.2736  0.5871
    3MOL     C5  649   6.986   0.441   5.452 -0.4966 -0.0258 -0.7746
    3MOL     C6  650   6.862   0.528   5.472 -0.9415 -0.2278  0.0393
    3MOL     C7  651   7.105   0.479   5.382  0.0420  0.0226  0.5237
    3MOL     C8  652   7.204   0.385   5.357 -0.3311  0.3401 -0.2345
    3MOL     H9  653   7.373   0.141   5.461  0.6663  1.6698  0.9376
    3MOL    H10  654   7.254   0.067   5.349 -1.3697  0.1948  2.7032
    3MOL    H11  655   7.054   0.112   5.508  0.6191 -1.6888 -0.9302
    3MOL    H12  656   6.881   0.270   5.531  0.4054 -0.7440 -1.3276
    3MOL    H13  657   6.779   0.470   5.433 -1.2951 -0.3824  0.9938
    3MOL    H14  658   6.839   0.540   5.578 -0.2656 -2.2081  0.4242
    3MOL    H15  659   7.114   0.577   5.338  2.0093 -0.1629  0.4590
    3MOL    H16  660   7.286   0.423   5.299 -0.3753  1.4942  0.4557
    3MOL    H17  661   7.369   0.188   5.292 -0.7756  3.5358  1.3963
    3MOL    C18  662   6.856   0.665   5.393 -0.8587 -0.2393  0.5746
    3MOL    C19  663   6.716   0.726   5.403  0.6041 -0.5228 -0.1949
    3MOL    C20  664   6.713   0.868   5.398  0.7094 -0.0352  0.5010
    3MOL    C21  665   6.590   0.943   5.396  0.4281 -0.2144 -0.2916
    3MOL    C22  666   6.468   0.872   5.405  0.2394 -0.1866  0.4739
    3MOL    C23  667   6.333   0.945   5.402 -0.1371 -0.0556  0.4296
    3MOL    C24  668   6.470   0.729   5.417 -0.1243  0.4801  0.7207
    3MOL    C25  669   6.592   0.649   5.407  0.1501 -1.2263  0.0812
    3MOL    H26  670   6.935   0.732   5.426  0.2624 -1.7054  0.9636
    3MOL    H27  671   6.882   0.643   5.289  1.3912  1.9946  0.6146
    3MOL    H28  672   6.805   0.925   5.392  1.6099 -1.6150 -1.1735
    3MOL    H29  673   6.605   1.050   5.397  0.4060 -0.2183  0.8051
    3MOL    H30  674   6.287   0.907   5.311  1.8532 -1.1500 -0.1321
    3MOL    H31  675   6.363   1.048   5.383  0.3648 -0.7958 -3.0670
    3MOL    H32  676   6.379   0.673   5.435  0.5463 -0.7253  0.3875
    3MOL    H33  677   6.576   0.544   5.388 -1.8142 -0.7289 -1.0886
    3MOL    C34  678   6.246   0.915   5.524 -0.1236 -0.1217 -0.3031
    3MOL    C35  679   6.105   0.966   5.506 -0.1184 -0.2723 -0.1473
    3MOL    C36  680   6.082   1.109   5.485  0.4483  0.2694  0.1540
    3MOL    C37  681   5.952   1.169   5.485  0.1243 -0.5055 -0.4902
    3MOL    C38  682   5.842   1.086   5.503  0.1411 -0.3305  0.8609
    3MOL    C39  683   5.704   1.146   5.500 -0.0400  0.0827 -0.6355
    3MOL    C40  684   5.866   0.949   5.519 -0.1802 -0.1050  0.0769
    3MOL    C41  685   5.993   0.886   5.516 -0.4932  0.7528 -0.2186
    3MOL    H42  686   6.284   0.983   5.600  0.9728 -0.5696 -0.4319
    3MOL    H43  687   6.249   0.814   5.565 -2.7336 -0.2893 -0.4152
    3MOL    H44  688   6.163   1.181   5.488  1.0287 -0.3805  0.1528
    3MOL    H45  689   5.934   1.273   5.464  0.2689 -0.2018  0.8542
    3MOL    H46  690   5.712   1.225   5.426  0.6107 -1.6197 -2.4536
    3MOL    H47  691   5.630   1.073   5.467 -1.8918  1.1345  1.0968
    3MOL    H48  692   5.783   0.881   5.536 -0.9506  0.9041  0.3919
    3MOL    H49  693   6.014   0.783   5.539  2.4828  0.7928 -2.4165
    3MOL    C50  694   5.657   1.198   5.640  0.5656  0.6936  0.7264
    3MOL    C51  695   5.523   1.275   5.642  0.2845  0.0950  0.3148
    3MOL    C52  696   5.509   1.368   5.749  0.0433 -0.0535  0.4045
    3MOL    C53  697   5.387   1.444   5.759 -0.8062 -0.0782 -0.2478
    3MOL    C54  698   5.284   1.425   5.669  1.3233 -0.1733  0.0787
    3MOL    C55  699   5.151   1.495   5.700  0.5696 -0.0336  0.4005
    3MOL    C56  700   5.306   1.340   5.556 -0.1233  0.1179  0.3025
    3MOL    C57  701   5.419   1.260   5.545  0.7733  0.2561 -0.3706
    3MOL    H58  702   5.743   1.255   5.675  3.3474 -1.0456 -2.9181
    3MOL    H59  703   5.651   1.111   5.705 -0.4393  0.5176  0.3977
    3MOL    H60  704   5.587   1.390   5.821 -0.9845 -1.1092  1.8634
    3MOL    H61  705   5.365   1.508   5.844 -1.5241  0.9799 -1.2033
    3MOL    H62  706   5.184   1.597   5.721 -2.1605  0.7530  0.9914
    3MOL    H63  707   5.098   1.484   5.606 -0.9466 -2.7540  1.5182
    3MOL    H64  708   5.222   1.323   5.490  0.4412 -1.2123 -0.0968
    3MOL    H65  709   5.424   1.189   5.464  1.0450  0.3771 -0.4609
    3MOL    C66  710   5.071   1.421   5.808 -0.6402 -0.5043  0.2458
    3MOL    C67  711   4.946   1.502   5.839 -0.3482 -0.3830  0.4432
    3MOL    C68  712   4.942   1.628   5.903  0.0128 -0.6278 -0.3975
    3MOL    C69  713   4.819   1.694   5.932 -0.6216 -0.0490 -0.2471
    3MOL    C70  714   4.700   1.636   5.881 -0.2086  0.6230 -0.2579
    3MOL    C71  715   4.568   1.692   5.906  1.0527 -0.3833  0.7396
    3MOL    C72  716   4.708   1.517   5.808  0.3386  0.2846 -0.1274
    3MOL    C73  717   4.828   1.446   5.788 -0.5799  0.4600  0.2026
    3MOL    H74  718   5.134   1.409   5.896  0.1696 -0.7868 -0.3556
    3MOL    H75  719   5.056   1.322   5.766  0.9231 -0.9204  0.6510
    3MOL    H76  720   5.034   1.671   5.941 -0.6353 -0.5680  1.1637
    3MOL    H77  721   4.815   1.795   5.972 -0.4357 -0.3630  0.5731
    3MOL    H78  722   4.508   1.696   5.815 -0.0702 -3.8700  1.2653
    3MOL    H79  723   4.585   1.797   5.932 -0.9134 -0.0257  0.6234
    3MOL    H80  724   4.623   1.467   5.765  1.1886 -0.2028 -1.2488
    3MOL    H81  725   4.834   1.351   5.737  1.9203  0.2075  0.8786
    3MOL    C82  726   4.479   1.623   6.009  0.1307 -0.0282 -0.3537
    3MOL    C83  727   4.341   1.688   6.030 -0.3456 -0.1099  0.2173
    3MOL    C84  728   4.309   1.763   6.146  0.2136  0.3594 -0.1462
    3MOL    C85  729   4.174   1.808   6.164  0.1523 -0.1630  0.0768
    3MOL    C86  730   4.080   1.789   6.064 -0.5920 -0.0212  0.2521
    3MOL    C87  731   3.945   1.850   6.069  0.3237  0.2830  0.1418
    3MOL    C88  732   4.116   1.727   5.945 -0.2408  0.2217  0.4515
    3MOL    C89  733   4.248   1.679   5.926 -0.1420  0.1735  0.6194
    3MOL    H90  734   4.539   1.615   6.099  0.8323 -0.8805 -0.8826
    3MOL    H91  735   4.460   1.524   5.968 -1.2153  1.5164 -3.6780
    3MOL    H92  736   4.377   1.775   6.229 -2.1081 -0.4623  1.9540
    3MOL    H93  737   4.140   1.858   6.253 -1.5102 -0.3040 -0.4691
    3MOL    H94  738   3.909   1.811   6.165 -1.1045  0.7449 -0.1938
    3MOL    H95  739   3.891   1.819   5.980  1.1721  1.9433 -0.9824
    3MOL    H96  740   4.043   1.716   5.866 -1.1410  1.0215  1.1720
    3MOL    H97  741   4.276   1.627   5.836  0.1778  2.9336 -0.9130
    3MOL    C98  742   3.949   2.000   6.078  0.7653  0.0205  0.8379
    3MOL    C99  743   3.814   2.062   6.113  0.0787 -0.6667 -0.4928
    3MOL   C100  744   3.752   2.153   6.031  0.0605 -0.0576 -1.0585
    3MOL   C101  745   3.633   2.206   6.066  0.3424  0.1218 -0.1240
    3MOL   C102  746   3.569   2.177   6.188 -0.0374  0.7122  0.4041
    3MOL   C103  747   3.440   2.247   6.220 -0.1874 -0.0433  0.0137
    3MOL   C104  748   3.625   2.082   6.274  0.3778  0.0094 -0.2738
    3MOL   C105  749   3.753   2.030   6.241 -0.2200  0.1004  0.4954
    3MOL   H106  750   3.983   2.052   5.989 -0.8080 -2.9817 -1.5879
    3MOL   H107  751   4.007   2.030   6.165 -0.5100 -0.5906  1.9177
    3MOL   H108  752   3.785   2.180   5.932  0.9658  1.4927 -0.3522
    3MOL   H109  753   3.589   2.283   6.004 -0.0979 -0.2088 -0.2261
    3MOL   H110  754   3.434   2.259   6.328  0.6529  1.6462 -0.1301
    3MOL   H111  755   3.440   2.352   6.192 -0.7498 -0.2559 -0.8274
    3MOL   H112  756   3.584   2.051   6.369  0.2169 -0.4826 -0.5000
    3MOL   H113  757   3.800   1.953   6.300  2.5778 -1.8322 -3.9102
    3MOL   C114  758   3.316   2.161   6.184  0.0912  0.1099  0.0256
    3MOL   C115  759   3.186   2.232   6.224 -0.3980  0.0274 -0.4624
    3MOL   C116  760   3.119   2.189   6.342 -1.0413  0.2186  0.0759
    3MOL   C117  761   2.991   2.244   6.378 -1.1768 -0.3161  0.0500
    3MOL   C118  762   2.934   2.349   6.297  0.1188  0.0104 -0.5207
    3MOL   C119  763   2.804   2.416   6.339  0.3355  0.3032  0.3398
    3MOL   C120  764   3.010   2.394   6.191 -0.9499 -0.0315  0.4660
    3MOL   C121  765   3.130   2.334   6.150 -0.0097  0.2608 -0.6143
    3MOL   H122  766   3.332   2.060   6.222 -0.4929 -0.1212 -0.3328
    3MOL   H123  767   3.319   2.148   6.075  0.7114  0.3148  0.0142
    3MOL   H124  768   3.159   2.118   6.413 -4.4060 -2.7725 -0.8471
    3MOL   H125  769   2.941   2.223   6.471 -2.4998  0.8946 -0.3810
    3MOL   H126  770   2.786   2.394   6.444 -2.6987 -1.2531 -0.4530
    3MOL   H127  771   2.807   2.525   6.337 -2.1590  0.3819 -0.6598
    3MOL   H128  772   2.973   2.478   6.134 -1.0969 -0.2481  0.2458
    3MOL   H129  773   3.183   2.378   6.068  0.8095  1.8790  0.7580
    3MOL   C130  774   2.678   2.374   6.254  1.5781 -0.4997  0.0070
    3MOL   C131  775   2.546   2.453   6.292 -0.2661 -0.3888  0.6082
    3MOL   C132  776   2.504   2.564   6.216  0.4958 -1.1741  0.8757
    3MOL   C133  777   2.398   2.641   6.260 -0.0905  0.2364 -0.6172
    3MOL   C134  778   2.325   2.602   6.373  0.0803 -0.2039  0.1473
    3MOL   C135  779   2.203   2.684   6.419  0.2227  0.1339 -0.0670
    3MOL   C136  780   2.376   2.500   6.456  0.1289 -0.2165 -1.1520
    3MOL   C137  781   2.484   2.425   6.414 -0.4338 -0.2966 -0.6701
    3MOL   H138  782   2.663   2.268   6.275  0.8734 -0.0054  2.1501
    3MOL   H139  783   2.700   2.390   6.149 -0.5044  1.1989 -0.2110
    3MOL   H140  784   2.553   2.599   6.126  2.2077  0.7718  2.5449
    3MOL   H141  785   2.377   2.733   6.208  2.5706  2.7977  2.6108
    3MOL   H142  786   2.217   2.723   6.520 -2.6193  0.0466  0.4041
    3MOL   H143  787   2.180   2.772   6.360  0.6937  1.3484  1.5185
    3MOL   H144  788   2.323   2.485   6.549 -0.2773  0.5126 -1.2549
    3MOL   H145  789   2.516   2.344   6.476 -0.9769 -1.3787 -1.7783
    3MOL   C146  790   2.077   2.592   6.413  0.2209  0.0250  0.6956
    3MOL   C147  791   1.954   2.653   6.474  0.0002 -0.3893 -0.3886
    3MOL   C148  792   1.930   2.793   6.478 -0.7291 -0.5396 -0.9863
    3MOL   C149  793   1.811   2.842   6.530  0.2513  0.3648 -0.6878
    3MOL   C150  794   1.705   2.754   6.565  0.4309  0.0840 -0.7683
    3MOL   C151  795   1.572   2.810   6.618 -0.6474  0.2222 -0.5095
    3MOL   C152  796   1.724   2.617   6.551  0.8331  0.0177 -0.0976
    3MOL   C153  797   1.847   2.567   6.515  0.5253 -0.8389  0.6642
    3MOL   H154  798   2.086   2.485   6.434 -2.5541 -0.3704  0.0805
    3MOL   H155  799   2.051   2.595   6.307 -0.6201 -2.8805  0.7676
    3MOL   H156  800   2.010   2.861   6.452 -0.1196 -0.4862  0.8867
    3MOL   H157  801   1.792   2.949   6.533 -0.1982  0.2654  0.3300
    3MOL   H158  802   1.541   2.738   6.695  0.1788 -0.1448 -0.5170
    3MOL   H159  803   1.580   2.909   6.663 -0.8041 -0.6233  1.4676
    3MOL   H160  804   1.643   2.549   6.575  0.4040  1.4736  2.8177
    3MOL   H161  805   1.866   2.461   6.506 -0.0846 -1.0361  1.6693
    3MOL   C162  806   1.460   2.840   6.511 -0.0034  0.6949 -0.3088
    3MOL   C163  807   1.329   2.893   6.570  0.6617 -0.8639 -0.4604
    3MOL   C164  808   1.288   3.029   6.543 -0.1900  0.2833 -0.4089
    3MOL   C165  809   1.174   3.082   6.610 -0.7410 -0.0523 -0.1637
    3MOL   C166  810   1.100   2.998   6.696  0.3033 -0.0367 -0.0085
    3MOL   C167  811   0.966   3.049   6.751  0.1334  0.6048 -0.2248
    3MOL   C168  812   1.145   2.870   6.731  0.0746 -0.2558 -0.3358
    3MOL   C169  813   1.252   2.814   6.664 -0.5834 -0.2085  0.1137
    3MOL   H170  814   1.443   2.754   6.447  3.0191  0.8688 -1.4708
    3MOL   H171  815   1.491   2.923   6.446  3.2907 -1.7776 -2.0493
    3MOL   H172  816   1.340   3.094   6.475 -0.5136 -0.7839 -1.6815
    3MOL   H173  817   1.139   3.180   6.584  1.5136  0.3481 -1.8428
    3MOL   H174  818   0.940   2.984   6.834 -2.5476 -0.6492 -1.9734
    3MOL   H175  819   0.979   3.149   6.793  0.6915 -0.1421  1.4313
    3MOL   H176  820   1.086   2.820   6.808 -1.9116 -0.6051 -2.0317
    3MOL   H177  821   1.290   2.715   6.687  1.4119  1.2355  3.3141
    3MOL   C178  822   0.848   3.030   6.649 -0.4466 -0.2837 -0.0193
    3MOL   C179  823   0.714   3.076   6.705 -0.3527 -0.1324 -0.3740
    3MOL   C180  824   0.676   3.213   6.693  0.6566 -0.1740  0.8863
    3MOL   C181  825   0.558   3.258   6.755 -0.6455 -0.0378 -0.3265
    3MOL   C182  826   0.477   3.161   6.826 -0.3182 -0.8232 -0.6946
    3MOL   C183  827   0.346   3.203   6.892 -0.1314  0.4015 -0.2046
    3MOL   C184  828   0.507   3.024   6.828  0.4693 -0.0388  0.2046
    3MOL   C185  829   0.628   2.985   6.765 -0.3219 -0.6369 -0.2845
    3MOL   H186  830   0.829   2.934   6.601 -1.6413 -0.4880  0.8203
    3MOL   H187  831   0.873   3.097   6.567  0.4046  1.9760  2.0505
    3MOL   H188  832   0.743   3.285   6.647 -0.2141 -0.0465 -0.2077
    3MOL   H189  833   0.540   3.364   6.758 -0.2570  0.0020  0.6992
    3MOL   H190  834   0.340   3.144   6.983 -0.0308 -0.0441 -0.4864
    3MOL   H191  835   0.351   3.307   6.925 -1.0576  0.2351  0.4784
    3MOL   H192  836   0.453   2.957   6.894  0.8458  0.8034  1.4009
    3MOL   H193  837   0.645   2.879   6.764  0.3122 -0.5307 -1.1637
    3MOL   C194  838   0.229   3.188   6.793  0.3943  0.8464 -0.2711
    3MOL   C195  839   0.099   3.238   6.850  0.3275  0.0706  0.0645
    3MOL   C196  840   0.059   3.369   6.816  0.7372 -0.1546 -0.7932
    3MOL   C197  841  -0.053   3.422   6.873  0.7693 -0.5103 -0.0912
    3MOL   C198  842  -0.136   3.342   6.957  0.5485 -0.0885 -0.4457
    3MOL   C199  843  -0.263   3.399   7.026 -0.5895 -0.2113  0.8138
    3MOL   C200  844  -0.094   3.212   6.995  0.4116  0.7075  0.2320
    3MOL   C201  845   0.019   3.155   6.934 -0.1903 -0.2656  0.1273
    3MOL   H202  846   0.213   3.085   6.762  1.5749  0.8861 -1.0466
    3MOL   H203  847   0.237   3.240   6.697 -1.0266 -1.8179 -1.8999
    3MOL   H204  848   0.119   3.439   6.760  2.1719  0.6059  1.6223
    3MOL   H205  849  -0.075   3.523   6.841 -0.0431 -0.1918  1.4148
    3MOL   H206  850  -0.291   3.341   7.113 -0.6983 -0.7484  0.4270
    3MOL   H207  851  -0.240   3.501   7.057  1.0934 -0.1775 -0.4324
    3MOL   H208  852  -0.149   3.155   7.070  0.9108 -0.7326 -0.4765
    3MOL   H209  853   0.060   3.060   6.964 -1.6742 -0.6088  1.0955
    3MOL   C210  854  -0.390   3.375   6.938  0.2324  0.4907  0.5663
    3MOL   C211  855  -0.515   3.402   7.007  0.5105  0.4410 -0.9824
    3MOL   C212  856  -0.562   3.534   7.000  0.0144 -0.2870 -0.4449
    3MOL   C213  857  -0.683   3.573   7.059  0.2671  0.2899  0.0479
    3MOL   C214  858  -0.761   3.483   7.133  0.5101  0.1172  0.3814
    3MOL   C215  859  -0.888   3.518   7.204  0.0173  0.7978  0.4858
    3MOL   C216  860  -0.714   3.345   7.148 -0.0133 -0.3792 -0.2671
    3MOL   C217  861  -0.589   3.306   7.089 -0.2514  0.6917  0.5198
    3MOL   H218  862  -0.390   3.268   6.913  2.7619  0.7849 -0.8659
    3MOL   H219  863  -0.378   3.435   6.848  1.9948  0.9629  1.1009
    3MOL   H220  864  -0.492   3.607   6.963  1.9602 -0.5713  2.4631
    3MOL   H221  865  -0.703   3.679   7.057 -2.0325 -0.1397 -1.5692
    3MOL   H222  866  -0.923   3.441   7.272  0.5784  0.5589  0.5042
    3MOL   H223  867  -0.870   3.607   7.264  1.5297  1.0448 -0.2994
    3MOL   H224  868  -0.770   3.261   7.184  0.2957 -1.4687 -2.2097
    3MOL   H225  869  -0.543   3.213   7.116  0.5477  0.7101 -0.7433
    3MOL   C226  870  -1.006   3.537   7.103 -0.5415  0.2111  0.4987
    3MOL   C227  871  -1.128   3.568   7.176  1.0403  0.3727  0.9485
    3MOL   C228  872  -1.171   3.700   7.189 -0.3803  0.7320  0.6401
    3MOL   C229  873  -1.290   3.732   7.262 -0.3079 -0.3434 -0.0385
    3MOL   C230  874  -1.361   3.627   7.336 -0.1404  0.1066 -0.0361
    3MOL   C231  875  -1.490   3.661   7.407 -0.7015  0.2587  0.3505
    3MOL   C232  876  -1.312   3.498   7.316  0.6671 -1.0224  0.2365
    3MOL   C233  877  -1.197   3.473   7.241 -0.6793  0.1292  0.0380
    3MOL   H234  878  -1.012   3.446   7.042  0.1148  1.0771 -0.8911
    3MOL   H235  879  -0.986   3.621   7.036 -0.5375 -1.7312 -2.0258
    3MOL   H236  880  -1.123   3.785   7.143  0.0190 -0.3722 -1.0384
    3MOL   H237  881  -1.311   3.838   7.269  0.1208 -0.1921 -0.9313
    3MOL   H238  882  -1.523   3.576   7.465 -1.2312  1.4094  1.7536
    3MOL   H239  883  -1.472   3.735   7.485 -1.8324 -2.1199  2.9510
    3MOL   H240  884  -1.355   3.410   7.362  0.1902 -0.3215  1.1461
    3MOL   H241  885  -1.155   3.374   7.246 -0.4024  0.2118 -0.6185
    3MOL   C242  886  -1.604   3.699   7.306 -0.1314 -0.2262 -0.1295
    3MOL   C243  887  -1.732   3.718   7.388  0.5133  0.9221  0.1403
    3MOL   C244  888  -1.799   3.611   7.446  0.5061  0.5854 -0.0059
    3MOL   C245  889  -1.909   3.628   7.532  0.4419 -0.7337 -0.1989
    3MOL   C246  890  -1.968   3.758   7.534  0.4233  0.2100 -0.0125
    3MOL   C247  891  -2.098   3.787   7.619  0.6037 -0.0961 -0.1272
    3MOL   C248  892  -1.905   3.871   7.479  0.3399  0.5249 -0.0622
    3MOL   C249  893  -1.786   3.848   7.403 -0.1581 -0.1172  0.3911
    3MOL   H250  894  -1.583   3.796   7.261  0.0843  0.4072  1.2942
    3MOL   H251  895  -1.612   3.626   7.226 -1.5816  1.6614 -1.7492
    3MOL   H252  896  -1.772   3.508   7.427 -1.1710  0.0246  0.5965
    3MOL   H253  897  -1.954   3.543   7.580  0.0749 -0.5071 -0.1362
    3MOL   H254  898  -2.142   3.691   7.643  1.7643 -0.1687  1.8389
    3MOL   H255  899  -2.071   3.830   7.716  2.7043 -2.9783  0.6514
    3MOL   H256  900  -1.940   3.971   7.499 -2.3326 -0.6585  1.5120
    3MOL   H257  901  -1.736   3.930   7.354  0.5772 -0.9672 -0.2881
    3MOL   C258  902  -2.188   3.889   7.554 -0.0705  0.0170  0.3342
    3MOL   C259  903  -2.322   3.897   7.626  0.0299 -0.2206 -0.4279
    3MOL   C260  904  -2.328   3.974   7.746 -0.3834  0.5317  0.0303
    3MOL   C261  905  -2.454   4.000   7.795 -0.1991 -0.0027 -0.2116
    3MOL   C262  906  -2.568   3.932   7.744 -0.8174 -0.1094 -0.0779
    3MOL   C263  907  -2.709   3.961   7.793  0.2429  1.1344  0.0446
    3MOL   C264  908  -2.553   3.842   7.636  0.3579 -0.2479 -0.3164
    3MOL   C265  909  -2.428   3.829   7.578 -0.0298  0.4118  0.5665
    3MOL   H266  910  -2.222   3.858   7.455 -2.2034 -0.8685  1.2965
    3MOL   H267  911  -2.140   3.986   7.541 -2.3712  1.3431  1.2239
    3MOL   H268  912  -2.245   4.026   7.791  0.0905  1.2055 -1.5658
    3MOL   H269  913  -2.476   4.056   7.885  2.8855 -1.8221  1.8018
    3MOL   H270  914  -2.766   3.873   7.764  0.5802  0.5495  1.1510
    3MOL   H271  915  -2.700   3.964   7.901  1.4439 -1.1077  0.0214
    3MOL   H272  916  -2.639   3.791   7.595  1.2049 -1.3809 -0.7160
    3MOL   H273  917  -2.421   3.765   7.490 -1.9328  0.9039  0.0354
    3MOL   C274  918  -2.765   4.093   7.733 -0.0126 -0.1559  0.4022
    3MOL   C275  919  -2.905   4.128   7.785 -0.2901  0.5881 -0.4385
    3MOL   C276  920  -2.923   4.243   7.865 -0.7526 -0.1090  0.1236
    3MOL   C277  921  -3.051   4.273   7.906 -0.1908  1.0891 -0.4561
    3MOL   C278  922  -3.169   4.211   7.852  0.4242  0.2700  0.5005
    3MOL   C279  923  -3.306   4.268   7.885  0.2879 -0.5103 -0.6321
    3MOL   C280  924  -3.147   4.099   7.766 -0.1779 -0.9314 -0.0980
    3MOL   C281  925  -3.015   4.057   7.735 -0.1732  0.3605  0.1859
    3MOL   H282  926  -2.701   4.177   7.760 -1.7534  2.6938 -3.7491
    3MOL   H283  927  -2.764   4.103   7.624  0.5461  2.9635  0.6512
    3MOL   H284  928  -2.845   4.309   7.900 -1.8160  1.1071  0.2189
    3MOL   H285  929  -3.073   4.351   7.978 -2.2463 -0.9514  1.2228
    3MOL   H286  930  -3.383   4.190   7.889  1.6595 -1.9126 -0.9338
    3MOL   H287  931  -3.297   4.300   7.989  0.7821 -0.7997 -0.5832
    3MOL   H288  932  -3.233   4.049   7.723 -0.3959  0.1918 -0.9839
    3MOL   H289  933  -3.012   3.970   7.671 -0.9010  0.7702 -0.4302
    3MOL   C290  934  -3.354   4.387   7.808 -0.0761  0.2056 -0.0302
    3MOL   C291  935  -3.487   4.442   7.848 -0.2859  0.1752  0.3381
    3MOL   C292  936  -3.503   4.582   7.889  0.7653  1.1701  1.4500
    3MOL   C293  937  -3.623   4.622   7.944 -0.2392 -0.4444  0.2555
    3MOL   C294  938  -3.732   4.530   7.959  0.5081 -1.0200 -0.1484
    3MOL   C295  939  -3.863   4.571   8.029  0.5028 -0.0377  0.0374
    3MOL   C296  940  -3.717   4.396   7.911  0.9249  0.5529 -0.0309
    3MOL   C297  941  -3.601   4.354   7.847 -0.0742  0.2753 -0.5563
    3MOL   H298  942  -3.358   4.348   7.707 -0.7866 -0.3853  0.2203
    3MOL   H299  943  -3.271   4.458   7.810  2.0682 -2.2672 -0.2321
    3MOL   H300  944  -3.426   4.658   7.887  1.7870  0.1616 -1.2607
    3MOL   H301  945  -3.623   4.728   7.964  1.7043 -0.0231 -1.7959
    3MOL   H302  946  -3.882   4.522   8.124 -1.0021  1.7852  0.7021
    3MOL   H303  947  -3.845   4.676   8.051 -0.3639  0.0773  0.2337
    3MOL   H304  948  -3.797   4.325   7.921  0.5479  0.8822 -0.6895
    3MOL   H305  949  -3.595   4.253   7.811 -0.4741 -0.1017  0.4328
    3MOL   C306  950  -3.979   4.546   7.931 -0.5957 -0.0185 -0.4399
    3MOL   C307  951  -4.111   4.586   7.997  0.2744 -0.0760  0.0506
    3MOL   C308  952  -4.127   4.723   8.022  0.2291  0.0322 -0.1436
    3MOL   C309  953  -4.248   4.777   8.070  0.0830 -0.3028  0.0779
    3MOL   C310  954  -4.358   4.694   8.094  0.5434 -0.2480  0.7559
    3MOL   C311  955  -4.481   4.756   8.143  0.5674  0.0046 -0.3372
    3MOL   C312  956  -4.347   4.557   8.063 -0.3127  0.7586  0.2192
    3MOL   C313  957  -4.220   4.502   8.024  0.6963  0.8989 -0.2587
    3MOL   H314  958  -3.975   4.440   7.907  1.5537  0.1128 -0.6783
    3MOL   H315  959  -3.962   4.597   7.837  1.8279 -1.6869 -0.9376
    3MOL   H316  960  -4.040   4.786   8.011 -0.8617  1.7085  0.7515
    3MOL   H317  961  -4.250   4.885   8.075  2.4458 -0.1548 -1.4503
    3MOL   H318  962  -4.456   4.827   8.221  0.9999 -0.2435 -0.2456
    3MOL   H319  963  -4.525   4.825   8.071 -1.1710 -1.6785 -0.9470
    3MOL   H320  964  -4.440   4.502   8.061  1.2615 -1.9902  0.7693
    3MOL   H321  965  -4.217   4.396   8.001 -0.8260  0.6504  0.6276
    3MOL   H322  966  -4.560   4.686   8.174 -0.7644  1.6339  0.0203
    4MOL     C1  967   1.382   6.376   5.521  0.8207  0.2278 -0.2601
    4MOL     C2  968   1.228   6.389   5.510  0.8580  0.1085 -0.1319
    4MOL     C3  969   1.151   6.414   5.628 -0.0916  0.4330 -0.6336
    4MOL     C4  970   1.014   6.453   5.618 -0.2586  0.0186  0.0597
    4MOL     C5  971   0.958   6.462   5.487 -0.1168 -0.2944 -0.1568
    4MOL     C6  972   0.806   6.501   5.476  0.8065 -0.8528 -0.2137
    4MOL     C7  973   1.030   6.420   5.375  0.0150 -0.7422  0.5023
    4MOL     C8  974   1.165   6.388   5.388 -0.6147 -0.6254  0.4159
    4MOL     H9  975   1.422   6.458   5.582  1.1699 -1.0591  1.2749
    4MOL    H10  976   1.415   6.286   5.573  2.3677 -0.7608 -2.8769
    4MOL    H11  977   1.199   6.399   5.724  0.5430 -0.9583 -1.1623
    4MOL    H12  978   0.956   6.471   5.707 -1.5142  1.0564 -0.9471
    4MOL    H13  979   0.786   6.574   5.555 -0.2752 -2.3283  0.8794
    4MOL    H14  980   0.785   6.542   5.377 -1.2129 -3.1934 -0.7967
    4MOL    H15  981   0.994   6.424   5.273  0.6048 -0.8629  0.2867
    4MOL    H16  982   1.216   6.357   5.298 -0.8133 -0.0116  0.0951
    4MOL    H17  983   1.431   6.361   5.425 -0.4248 -1.4388 -0.6559
    4MOL    C18  984   0.705   6.385   5.491  0.6894  0.3377  0.1270
    4MOL    C19  985   0.569   6.429   5.526  0.6780  0.0952 -0.2593
    4MOL    C20  986   0.505   6.389   5.648 -0.2347 -0.5512 -0.7575
    4MOL    C21  987   0.382   6.437   5.685  0.4477  0.7693  0.6472
    4MOL    C22  988   0.314   6.533   5.610 -0.2082 -0.1761 -0.1390
    4MOL    C23  989   0.177   6.576   5.662 -0.2463 -0.2099  0.1679
    4MOL    C24  990   0.371   6.565   5.481  0.8038 -0.1528  0.6052
    4MOL    C25  991   0.496   6.519   5.446 -0.7437 -0.4918 -0.3623
    4MOL    H26  992   0.710   6.320   5.404 -0.6050  1.6456 -0.9504
    4MOL    H27  993   0.746   6.331   5.577  2.0045  0.5910 -0.3275
    4MOL    H28  994   0.555   6.326   5.719 -2.8040 -2.6189 -0.7073
    4MOL    H29  995   0.366   6.411   5.789 -0.3070  1.6870  0.7604
    4MOL    H30  996   0.178   6.685   5.670  0.0617 -0.2296  0.3578
    4MOL    H31  997   0.150   6.536   5.759 -1.7566 -1.6660 -0.8203
    4MOL    H32  998   0.320   6.628   5.410  2.3276 -1.8692 -2.1042
    4MOL    H33  999   0.537   6.557   5.354 -3.8542  1.2355 -1.1308
    4MOL    C34 1000   0.063   6.531   5.568  0.1863 -0.0218 -0.3303
    4MOL    C35 1001  -0.079   6.561   5.614  0.0572  0.2384 -0.1646
    4MOL    C36 1002  -0.145   6.671   5.562  0.6959  0.2284  0.1358
    4MOL    C37 1003  -0.276   6.695   5.601  0.2325 -0.5021 -0.6117
    4MOL    C38 1004  -0.336   6.619   5.703  0.6361  0.2584  0.3062
    4MOL    C39 1005  -0.476   6.659   5.747  0.2736  0.1899 -0.9083
    4MOL    C40 1006  -0.275   6.506   5.755  0.2010 -0.2439  0.0272
    4MOL    C41 1007  -0.141   6.482   5.716 -0.2563 -0.8568  0.5259
    4MOL    H42 1008   0.069   6.422   5.560  0.3702  0.0039 -0.5556
    4MOL    H43 1009   0.082   6.566   5.467 -2.7745  1.3405 -0.4447
    4MOL    H44 1010  -0.103   6.728   5.480  0.8202 -0.1269 -0.0481
    4MOL    H45 1011  -0.323   6.776   5.547  0.7728 -0.7388 -1.4538
    4MOL    H46 1012  -0.472   6.741   5.819 -0.8768  0.8391 -1.5539
    4MOL    H47 1013  -0.528   6.693   5.658 -1.2403  0.1021 -0.0830
    4MOL    H48 1014  -0.323   6.439   5.825 -0.5725 -1.9909 -2.0984
    4MOL    H49 1015  -0.087   6.398   5.757  2.4669 -0.1094 -1.4060
    4MOL    C50 1016  -0.572   6.556   5.815 -0.8970 -0.2303 -0.3581
    4MOL    C51 1017  -0.702   6.620   5.855 -0.4104  0.1318 -0.2149
    4MOL    C52 1018  -0.714   6.688   5.976  0.1255  0.3511 -0.0259
    4MOL    C53 1019  -0.836   6.744   6.020 -0.2022  0.1472 -0.8307
    4MOL    C54 1020  -0.950   6.732   5.940  0.0765 -0.5920 -0.2307
    4MOL    C55 1021  -1.073   6.806   5.971 -0.1822  0.0497 -0.3354
    4MOL    C56 1022  -0.940   6.669   5.818  0.2666  0.4449 -0.2348
    4MOL    C57 1023  -0.812   6.614   5.774 -0.3415 -0.1328  0.2538
    4MOL    H58 1024  -0.522   6.521   5.905 -1.6045 -0.0860  0.0959
    4MOL    H59 1025  -0.590   6.461   5.765 -0.5954 -0.0683 -0.7765
    4MOL    H60 1026  -0.631   6.712   6.040  0.9646  1.6014 -1.5484
    4MOL    H61 1027  -0.840   6.794   6.116  4.3788 -1.5438  0.3991
    4MOL    H62 1028  -1.054   6.906   6.009  0.4776  0.3644 -1.4767
    4MOL    H63 1029  -1.133   6.815   5.881 -1.1164  1.8222  0.4343
    4MOL    H64 1030  -1.019   6.655   5.746  1.4288 -0.9789 -1.2885
    4MOL    H65 1031  -0.817   6.569   5.676 -1.4635  0.0201  0.2379
    4MOL    C66 1032  -1.149   6.732   6.080  0.1274 -0.5137  0.9485
    4MOL    C67 1033  -1.279   6.802   6.113  0.2964 -0.0235 -0.1386
    4MOL    C68 1034  -1.407   6.741   6.082 -0.4381 -0.0515 -0.2087
    4MOL    C69 1035  -1.524   6.809   6.120 -0.2927 -0.3537  0.6113
    4MOL    C70 1036  -1.522   6.937   6.181 -0.4807 -0.7990 -0.1253
    4MOL    C71 1037  -1.656   7.006   6.203 -0.0470 -0.1902 -0.5917
    4MOL    C72 1038  -1.396   6.992   6.212 -0.0848 -0.5998  0.3013
    4MOL    C73 1039  -1.273   6.925   6.178 -1.4270  0.3259  0.2907
    4MOL    H74 1040  -1.080   6.726   6.164  1.4763  1.4899  0.0380
    4MOL    H75 1041  -1.175   6.630   6.052  0.8747 -0.6918  0.8983
    4MOL    H76 1042  -1.415   6.642   6.041 -0.6110 -0.1759  0.1168
    4MOL    H77 1043  -1.619   6.762   6.104  1.2422 -4.0276  1.7352
    4MOL    H78 1044  -1.720   7.003   6.114  0.5319  0.7525 -1.0600
    4MOL    H79 1045  -1.653   7.115   6.216  1.8758 -0.4328  1.2034
    4MOL    H80 1046  -1.401   7.083   6.271  1.6446  0.4712 -1.1428
    4MOL    H81 1047  -1.180   6.973   6.204 -0.3902 -0.8075 -1.1926
    4MOL    C82 1048  -1.723   6.941   6.323  0.1046  0.2949  0.3946
    4MOL    C83 1049  -1.853   7.001   6.343  0.4065  0.9615 -0.0036
    4MOL    C84 1050  -1.977   6.936   6.310 -0.5382  0.7260  0.7586
    4MOL    C85 1051  -2.107   6.986   6.329  0.5504  0.4024  0.3684
    4MOL    C86 1052  -2.120   7.115   6.391 -0.0468  0.0480 -0.2566
    4MOL    C87 1053  -2.253   7.180   6.434  0.0187  0.9126  0.3259
    4MOL    C88 1054  -1.998   7.180   6.427 -0.2759 -0.6294 -0.0587
    4MOL    C89 1055  -1.870   7.123   6.408  0.2951  0.2389 -0.4899
    4MOL    H90 1056  -1.665   6.965   6.412  2.0885  2.1201 -1.3561
    4MOL    H91 1057  -1.726   6.832   6.316 -1.8830  0.4092 -0.8930
    4MOL    H92 1058  -1.982   6.838   6.264 -1.2158  0.4889  1.3376
    4MOL    H93 1059  -2.194   6.924   6.313  0.6003  0.3291  0.3794
    4MOL    H94 1060  -2.322   7.180   6.350  1.4622 -2.7282 -0.9726
    4MOL    H95 1061  -2.231   7.284   6.458 -2.2795  1.0576  1.9978
    4MOL    H96 1062  -2.003   7.285   6.453  1.3963 -1.1985  2.7194
    4MOL    H97 1063  -1.782   7.182   6.431  0.3697 -0.3189  0.6660
    4MOL    C98 1064  -2.310   7.117   6.557 -0.3362 -0.1171 -0.0750
    4MOL    C99 1065  -2.444   7.163   6.592  0.6257  0.2703 -0.2699
    4MOL   C100 1066  -2.464   7.297   6.624 -0.4245  0.9250  0.2227
    4MOL   C101 1067  -2.586   7.351   6.656  0.4039  0.6646 -0.2912
    4MOL   C102 1068  -2.700   7.261   6.656  0.0231 -0.1847 -0.0711
    4MOL   C103 1069  -2.833   7.326   6.684 -0.2149 -0.1913  0.3574
    4MOL   C104 1070  -2.685   7.126   6.625  1.0076  0.1075 -0.0347
    4MOL   C105 1071  -2.554   7.078   6.596  0.2355 -0.8348  0.6952
    4MOL   H106 1072  -2.236   7.127   6.637 -0.4078  1.1224 -0.1606
    4MOL   H107 1073  -2.320   7.010   6.537 -1.2652 -0.4995  2.2654
    4MOL   H108 1074  -2.378   7.362   6.634 -0.8751  1.5191  0.2364
    4MOL   H109 1075  -2.603   7.456   6.679 -1.5234 -0.2292  2.6388
    4MOL   H110 1076  -2.814   7.399   6.763  0.3113  0.6780 -0.5534
    4MOL   H111 1077  -2.873   7.375   6.595  1.8117  1.8349  0.4999
    4MOL   H112 1078  -2.773   7.065   6.619  0.7813  0.3600  0.6373
    4MOL   H113 1079  -2.550   6.973   6.573  0.9422 -0.0061 -3.2493
    4MOL   C114 1080  -2.938   7.225   6.742 -0.4845 -0.0050 -0.3747
    4MOL   C115 1081  -3.065   7.294   6.792 -0.4891  0.1165 -0.5106
    4MOL   C116 1082  -3.111   7.276   6.930 -0.3644  0.0694 -0.0320
    4MOL   C117 1083  -3.236   7.337   6.970 -0.8267  0.2440  0.4703
    4MOL   C118 1084  -3.309   7.401   6.875 -0.2772  0.3845  1.1679
    4MOL   C119 1085  -3.444   7.457   6.924  0.5179 -1.0497 -0.1567
    4MOL   C120 1086  -3.256   7.429   6.749  0.3740 -0.0231 -0.0935
    4MOL   C121 1087  -3.139   7.367   6.698  0.0866  0.8550 -0.1001
    4MOL   H122 1088  -2.898   7.163   6.822 -0.6454 -2.3664 -2.0544
    4MOL   H123 1089  -2.969   7.160   6.659 -0.6751 -0.0294 -0.2847
    4MOL   H124 1090  -3.062   7.216   7.006 -0.5465 -2.1712 -1.6371
    4MOL   H125 1091  -3.276   7.312   7.068  0.4285 -0.0513  0.9186
    4MOL   H126 1092  -3.500   7.498   6.840  0.4305 -0.6202  0.1072
    4MOL   H127 1093  -3.508   7.379   6.964 -4.9399  2.4318 -1.6258
    4MOL   H128 1094  -3.324   7.478   6.681  1.4944  0.4263 -0.9081
    4MOL   H129 1095  -3.102   7.386   6.598 -0.4869  3.6090  0.1950
    4MOL   C130 1096  -3.438   7.564   7.036 -0.0018 -0.6394  0.1623
    4MOL   C131 1097  -3.576   7.615   7.083 -0.1625 -0.8906  0.0607
    4MOL   C132 1098  -3.697   7.608   7.003 -0.0273 -0.1247  0.4945
    4MOL   C133 1099  -3.815   7.661   7.051 -0.4259  0.8226  0.3226
    4MOL   C134 1100  -3.816   7.736   7.167 -0.4102 -0.1493  0.3090
    4MOL   C135 1101  -3.943   7.804   7.215  0.4651  0.6000  0.4809
    4MOL   C136 1102  -3.701   7.764   7.243 -0.0167  0.4770 -0.3235
    4MOL   C137 1103  -3.585   7.700   7.202  0.3334  0.1501 -0.0640
    4MOL   H138 1104  -3.373   7.647   7.008 -1.7345  0.9910  0.8757
    4MOL   H139 1105  -3.391   7.517   7.122 -1.9316 -0.7299  1.2082
    4MOL   H140 1106  -3.700   7.560   6.906 -0.2769  0.4874  0.1966
    4MOL   H141 1107  -3.902   7.652   6.988  1.1831  1.6511 -2.0968
    4MOL   H142 1108  -3.927   7.877   7.295 -4.0065  1.6296  0.5538
    4MOL   H143 1109  -3.970   7.871   7.134 -0.3983  0.1289  0.3769
    4MOL   H144 1110  -3.703   7.837   7.323  0.6440 -0.2463  0.3551
    4MOL   H145 1111  -3.499   7.711   7.268  0.3898  1.8243 -0.3972
    4MOL   C146 1112  -4.053   7.705   7.253 -0.1241 -0.1176  0.0695
    4MOL   C147 1113  -4.187   7.770   7.284 -0.0056 -0.3961  0.1478
    4MOL   C148 1114  -4.200   7.857   7.391 -0.6490  0.4321 -0.5503
    4MOL   C149 1115  -4.325   7.919   7.417  0.3650  0.2687  0.0780
    4MOL   C150 1116  -4.423   7.909   7.322 -0.5692  0.8439  0.2255
    4MOL   C151 1117  -4.544   7.996   7.339 -0.0269 -0.1321  0.2415
    4MOL   C152 1118  -4.412   7.829   7.208 -0.5641 -0.2619  0.9595
    4MOL   C153 1119  -4.293   7.759   7.191  0.4210  0.4453 -0.2565
    4MOL   H154 1120  -4.028   7.642   7.339 -1.0302  0.7216  0.9636
    4MOL   H155 1121  -4.073   7.634   7.173 -2.3120  0.6680 -0.1182
    4MOL   H156 1122  -4.112   7.873   7.452 -1.1133 -1.6442  0.7108
    4MOL   H157 1123  -4.331   7.997   7.491 -1.5162 -0.6712  0.9602
    4MOL   H158 1124  -4.532   8.078   7.410 -1.6562 -1.2464  1.8224
    4MOL   H159 1125  -4.566   8.038   7.240  0.5222 -0.5183 -0.0453
    4MOL   H160 1126  -4.482   7.830   7.125  0.1144  0.5951  0.3795
    4MOL   H161 1127  -4.281   7.694   7.106  1.6047  1.3206 -0.7682
    4MOL   C162 1128  -4.672   7.921   7.380 -0.2705 -0.2964  0.4643
    4MOL   C163 1129  -4.805   8.001   7.398  0.5593  0.1685 -0.2705
    4MOL   C164 1130  -4.896   7.998   7.290 -0.0955  1.1858 -0.0708
    4MOL   C165 1131  -5.019   8.065   7.312  0.8988 -0.5309  0.2965
    4MOL   C166 1132  -5.045   8.140   7.427 -0.1342  0.4147  0.1601
    4MOL   C167 1133  -5.181   8.223   7.447 -0.2791 -0.2812 -0.0872
    4MOL   C168 1134  -4.954   8.136   7.536  0.4097 -0.1189  0.4021
    4MOL   C169 1135  -4.833   8.075   7.513 -0.7009  0.2711 -0.0305
    4MOL   H170 1136  -4.652   7.875   7.476  0.0666 -2.0388 -0.4079
    4MOL   H171 1137  -4.690   7.834   7.317 -3.7721 -0.3234  1.3996
    4MOL   H172 1138  -4.875   7.955   7.193 -5.0462 -0.7418 -0.4453
    4MOL   H173 1139  -5.087   8.072   7.228  0.3996  0.6841  0.7829
    4MOL   H174 1140  -5.160   8.318   7.496 -1.1820  1.1803 -2.4227
    4MOL   H175 1141  -5.225   8.253   7.351 -1.9879  1.5195  1.2152
    4MOL   H176 1142  -4.970   8.187   7.629  2.7951  0.8690  0.3222
    4MOL   H177 1143  -4.757   8.075   7.590 -0.4617  1.6265 -0.2531
    4MOL   C178 1144  -5.285   8.146   7.527  0.1944 -0.2937 -0.8945
    4MOL   C179 1145  -5.415   8.224   7.543 -0.7396 -0.1905 -0.2620
    4MOL   C180 1146  -5.434   8.294   7.661 -0.6251 -0.5741 -0.2885
    4MOL   C181 1147  -5.556   8.367   7.681  0.1019 -0.4377 -0.6465
    4MOL   C182 1148  -5.661   8.370   7.585 -0.7751  0.2804  0.2962
    4MOL   C183 1149  -5.784   8.449   7.619  0.2964 -0.3033 -0.1644
    4MOL   C184 1150  -5.638   8.300   7.466  0.3756 -0.4038  0.1674
    4MOL   C185 1151  -5.513   8.220   7.446 -0.2970  0.1310 -0.5672
    4MOL   H186 1152  -5.250   8.118   7.627 -0.1655  0.6233 -0.5049
    4MOL   H187 1153  -5.304   8.049   7.481  1.0136 -0.3665 -1.0865
    4MOL   H188 1154  -5.363   8.285   7.743 -2.5348 -1.9955  1.2477
    4MOL   H189 1155  -5.564   8.420   7.775 -3.1718  0.0085 -1.1128
    4MOL   H190 1156  -5.765   8.517   7.702 -0.2645  0.3802 -0.5834
    4MOL   H191 1157  -5.798   8.525   7.542  1.1176 -0.0945 -0.1129
    4MOL   H192 1158  -5.719   8.302   7.394  0.2441 -3.4415  0.1885
    4MOL   H193 1159  -5.499   8.168   7.352 -0.5482 -2.0535  0.5518
    4MOL   C194 1160  -5.911   8.364   7.652 -0.6574 -0.7520  0.0242
    4MOL   C195 1161  -6.039   8.442   7.681  0.4024 -0.2576  0.2328
    4MOL   C196 1162  -6.051   8.538   7.788 -0.8393  0.1122  0.1195
    4MOL   C197 1163  -6.178   8.597   7.813 -0.0997  0.1285  0.1705
    4MOL   C198 1164  -6.288   8.571   7.729 -0.4986 -0.4059 -0.7138
    4MOL   C199 1165  -6.426   8.630   7.754 -0.3858  0.3501 -0.0249
    4MOL   C200 1166  -6.270   8.486   7.625 -0.1037 -0.6933 -0.1616
    4MOL   C201 1167  -6.150   8.422   7.594 -0.1205 -0.5742 -0.5503
    4MOL   H202 1168  -5.902   8.311   7.747  1.2492 -1.0575 -0.3064
    4MOL   H203 1169  -5.929   8.293   7.571  3.3451  1.8536 -3.3242
    4MOL   H204 1170  -5.964   8.562   7.846 -0.6713  0.4629 -0.2791
    4MOL   H205 1171  -6.186   8.671   7.892  1.0248 -0.9345  1.3084
    4MOL   H206 1172  -6.423   8.738   7.744  0.7751  0.5757  2.4268
    4MOL   H207 1173  -6.492   8.600   7.673 -0.6261 -0.3060  0.4102
    4MOL   H208 1174  -6.361   8.466   7.571 -1.2313 -0.7996  1.7512
    4MOL   H209 1175  -6.150   8.359   7.506 -0.8733 -1.7459  0.2752
    4MOL   C210 1176  -6.502   8.582   7.880 -0.7060 -0.0587  0.0501
    4MOL   C211 1177  -6.639   8.644   7.873  1.1586  0.3657  0.0075
    4MOL   C212 1178  -6.744   8.575   7.807  0.2255 -0.1657 -0.0437
    4MOL   C213 1179  -6.874   8.625   7.807  0.8394 -0.8068 -0.8773
    4MOL   C214 1180  -6.899   8.749   7.877 -0.3137 -0.0608  0.2820
    4MOL   C215 1181  -7.032   8.811   7.876  0.7116  1.1799  0.3106
    4MOL   C216 1182  -6.792   8.820   7.941  0.0169 -0.2004  0.0229
    4MOL   C217 1183  -6.666   8.761   7.936  0.2489 -1.2345 -0.3431
    4MOL   H218 1184  -6.436   8.613   7.962  2.4058  0.3873 -2.5294
    4MOL   H219 1185  -6.505   8.474   7.885  3.4617 -0.2639 -0.4298
    4MOL   H220 1186  -6.728   8.479   7.762 -2.1480 -0.5616 -0.1356
    4MOL   H221 1187  -6.948   8.573   7.748  0.6416  0.7118 -2.0034
    4MOL   H222 1188  -7.030   8.920   7.879  0.3456  1.2132 -0.5008
    4MOL   H223 1189  -7.096   8.784   7.792 -0.0104  1.1003  0.8861
    4MOL   H224 1190  -6.813   8.915   7.987 -2.1022 -0.5443 -0.1809
    4MOL   H225 1191  -6.585   8.817   7.981  0.1529  1.2726 -3.1454
    4MOL   C226 1192  -7.110   8.771   8.001 -0.0375 -0.1902 -0.0581
    4MOL   C227 1193  -7.250   8.826   8.013 -0.6249  0.0824  0.0084
    4MOL   C228 1194  -7.281   8.960   8.050  0.0783  0.4326  0.8205
    4MOL   C229 1195  -7.410   9.008   8.067 -0.8342 -0.6662  0.3550
    4MOL   C230 1196  -7.524   8.924   8.034  0.5498  0.0933  0.1731
    4MOL   C231 1197  -7.663   8.986   8.037  0.5209  0.0416 -0.5045
    4MOL   C232 1198  -7.494   8.791   7.985 -0.0040  0.5158 -0.6103
    4MOL   C233 1199  -7.362   8.743   7.981 -0.2151 -0.0225  0.5599
    4MOL   H234 1200  -7.056   8.803   8.090 -2.1874  1.1097  0.8054
    4MOL   H235 1201  -7.114   8.662   8.009 -1.3801 -0.0361  1.7932
    4MOL   H236 1202  -7.200   9.028   8.069 -0.7014  1.6666 -0.1452
    4MOL   H237 1203  -7.427   9.105   8.112 -0.7690 -1.4407  2.0816
    4MOL   H238 1204  -7.657   9.091   8.006  0.7453 -0.1813 -1.2136
    4MOL   H239 1205  -7.731   8.942   7.964  0.4476  1.1628 -1.1213
    4MOL   H240 1206  -7.577   8.729   7.955  0.1736 -0.9616  1.7772
    4MOL   H241 1207  -7.357   8.640   7.947  1.8689  0.5084 -0.8702
    4MOL   C242 1208  -7.729   8.975   8.174 -0.7213 -0.1187  0.4328
    4MOL   C243 1209  -7.863   9.050   8.176 -0.0666  0.3355 -0.1869
    4MOL   C244 1210  -7.981   8.994   8.120 -0.0371  0.0447 -0.0570
    4MOL   C245 1211  -8.095   9.071   8.124  0.1507  0.3509 -0.4018
    4MOL   C246 1212  -8.105   9.194   8.192  0.2070 -0.0025  0.5146
    4MOL   C247 1213  -8.239   9.265   8.197 -0.5090  0.0830 -0.9440
    4MOL   C248 1214  -7.987   9.244   8.256 -0.2269  0.0771 -0.6910
    4MOL   C249 1215  -7.868   9.174   8.245  0.2406 -0.0267  0.5375
    4MOL   H250 1216  -7.747   8.870   8.198  0.1527 -0.9528 -2.2800
    4MOL   H251 1217  -7.661   9.015   8.249 -1.2088 -0.4209  1.0360
    4MOL   H252 1218  -7.962   8.895   8.080  1.6272  0.2756  0.1041
    4MOL   H253 1219  -8.182   9.034   8.072  2.2551 -2.4936 -2.0024
    4MOL   H254 1220  -8.226   9.371   8.177  0.7253 -0.0106 -0.6652
    4MOL   H255 1221  -8.303   9.219   8.121  2.3759 -1.4059 -2.5520
    4MOL   H256 1222  -7.985   9.344   8.297  0.9626  0.1538 -0.9121
    4MOL   H257 1223  -7.775   9.209   8.288  1.2881 -2.7281  0.5286
    4MOL   C258 1224  -8.308   9.258   8.332 -0.3494 -0.0397 -0.1431
    4MOL   C259 1225  -8.430   9.347   8.355  0.2016 -0.4945 -0.6242
    4MOL   C260 1226  -8.553   9.327   8.285 -0.1207  0.4030 -0.9652
    4MOL   C261 1227  -8.663   9.408   8.314 -0.9548  0.1678 -0.2902
    4MOL   C262 1228  -8.651   9.512   8.410  0.1635  0.8372  0.3366
    4MOL   C263 1229  -8.770   9.608   8.434 -0.1163 -0.0282  0.1999
    4MOL   C264 1230  -8.532   9.525   8.484  0.4044 -0.0850 -0.1084
    4MOL   C265 1231  -8.419   9.450   8.450  0.2299 -0.2266  0.0542
    4MOL   H266 1232  -8.232   9.277   8.408  0.4915 -0.0273 -0.9778
    4MOL   H267 1233  -8.335   9.153   8.337  0.5766 -0.3995 -2.1885
    4MOL   H268 1234  -8.568   9.246   8.216 -0.6394  0.3775 -0.8249
    4MOL   H269 1235  -8.755   9.397   8.260 -1.8736  0.0380  1.2879
    4MOL   H270 1236  -8.740   9.712   8.444 -0.4225  0.1971 -1.1095
    4MOL   H271 1237  -8.844   9.606   8.354 -0.8704 -1.8304  0.8975
    4MOL   H272 1238  -8.539   9.593   8.568 -0.7579 -1.4691  0.9390
    4MOL   H273 1239  -8.327   9.479   8.498  0.7778  1.9493 -2.1941
    4MOL   C274 1240  -8.854   9.559   8.552 -0.1497  0.0840  0.1508
    4MOL   C275 1241  -8.976   9.649   8.578  0.5497  0.7779 -0.0023
    4MOL   C276 1242  -8.959   9.776   8.643 -0.7522  0.4744 -0.3508
    4MOL   C277 1243  -9.069   9.863   8.658  0.4605  0.0470  0.1677
    4MOL   C278 1244  -9.199   9.823   8.618  0.2874 -0.2830 -0.8679
    4MOL   C279 1245  -9.313   9.921   8.645 -0.1457 -0.0897  0.6219
    4MOL   C280 1246  -9.217   9.701   8.561 -0.0311  0.1588  0.2852
    4MOL   C281 1247  -9.106   9.614   8.537 -0.1404  0.7035 -0.5106
    4MOL   H282 1248  -8.883   9.456   8.533 -2.2135  0.9594 -1.6063
    4MOL   H283 1249  -8.796   9.553   8.644  1.9779 -1.7206 -1.2515
    4MOL   H284 1250  -8.864   9.824   8.664 -1.4382  1.3932  0.7276
    4MOL   H285 1251  -9.058   9.959   8.704 -0.3522 -0.2826  1.0696
    4MOL   H286 1252  -9.268  10.020   8.651  1.5707 -0.9385  2.1195
    4MOL   H287 1253  -9.384   9.916   8.562 -0.6103  0.8222  0.9571
    4MOL   H288 1254  -9.317   9.668   8.535 -0.6415  3.0670 -1.2333
    4MOL   H289 1255  -9.112   9.514   8.496  0.3793 -0.1087  1.3141
    4MOL   C290 1256  -9.392   9.896   8.778  0.3384  0.5460 -0.1222
    4MOL   C291 1257  -9.504  10.000   8.803 -0.2441  0.0308  0.1482
    4MOL   C292 1258  -9.474  10.129   8.845  0.1691 -0.2041  0.1571
    4MOL   C293 1259  -9.578  10.221   8.867  0.8833  0.5650 -0.1976
    4MOL   C294 1260  -9.713  10.176   8.854  0.0483 -0.4679 -0.1984
    4MOL   C295 1261  -9.829  10.269   8.884 -0.1205  0.5893  0.0759
    4MOL   C296 1262  -9.738  10.043   8.805 -0.2438 -0.6476  0.4502
    4MOL   C297 1263  -9.632   9.957   8.780 -0.1183 -0.2277 -0.0591
    4MOL   H298 1264  -9.333   9.894   8.870 -0.8968  3.0948  0.7396
    4MOL   H299 1265  -9.435   9.796   8.769 -1.0419  1.0201  1.0463
    4MOL   H300 1266  -9.371  10.158   8.857  0.2818 -0.6965  0.3657
    4MOL   H301 1267  -9.560  10.320   8.908  2.7759 -0.2454  0.9972
    4MOL   H302 1268  -9.807  10.350   8.954 -2.4283  0.2386  1.2663
    4MOL   H303 1269  -9.858  10.326   8.795 -2.6250  1.2342  1.2438
    4MOL   H304 1270  -9.837  10.006   8.784 -0.1061 -1.0270  0.4672
    4MOL   H305 1271  -9.645   9.859   8.738 -0.9102  0.3802 -1.2606
    4MOL   C306 1272  -9.953  10.199   8.936  0.0380  0.5108 -0.6462
    4MOL   C307 1273 -10.056  10.292   8.998  0.1516 -0.9919  1.1366
    4MOL   C308 1274 -10.103  10.408   8.921 -0.4101  0.3572  0.1808
    4MOL   C309 1275 -10.199  10.486   8.987  0.5903  0.7253  0.7043
    4MOL   C310 1276 -10.248  10.456   9.117 -0.5128  0.0541 -0.3751
    4MOL   C311 1277 -10.345  10.556   9.200 -0.3730  0.8265 -0.0049
    4MOL   C312 1278 -10.200  10.342   9.185  0.3116  0.1750  0.0229
    4MOL   C313 1279 -10.116  10.259   9.121 -0.5910 -0.0000  0.0583
    4MOL   H314 1280  -9.904  10.136   9.010  1.3446  0.4482 -1.5576
    4MOL   H315 1281  -9.999  10.144   8.853  0.0378  0.6193 -0.7173
    4MOL   H316 1282 -10.076  10.432   8.819 -0.2832  2.1656  0.6323
    4MOL   H317 1283 -10.252  10.563   8.933 -1.0427  0.9959  2.6278
    4MOL   H318 1284 -10.380  10.630   9.127 -3.1883  0.2035  0.6407
    4MOL   H319 1285 -10.428  10.497   9.239  0.8772 -0.3632  0.9158
    4MOL   H320 1286 -10.240  10.316   9.282 -1.5099  0.4289 -0.6406
    4MOL   H321 1287 -10.076  10.176   9.178  0.6049  0.7889  0.3839
    4MOL   H322 1288 -10.302  10.594   9.293 -1.0507 -1.2594  1.1937
    5MOL     C1 1289   1.676   7.837   6.551 -0.1607  0.0337  0.6245
    5MOL     C2 1290   1.814   7.783   6.531  0.0616 -0.5358 -1.1776
    5MOL     C3 1291   1.869   7.684   6.613  0.2464  0.4476 -0.1522
    5MOL     C4 1292   1.992   7.630   6.589 -0.5228  0.1410  0.1063
    5MOL     C5 1293   2.072   7.679   6.482 -0.5364  0.4430 -0.0797
    5MOL     C6 1294   2.220   7.641   6.465  0.1017  0.2821 -0.1783
    5MOL     C7 1295   2.028   7.787   6.406 -0.1779 -0.0581 -0.8787
    5MOL     C8 1296   1.901   7.829   6.428 -0.0023  0.3533  0.2383
    5MOL     H9 1297   1.632   7.909   6.481  0.5096  0.3108  0.4795
    5MOL    H10 1298   1.605   7.754   6.556 -0.3396  0.2177  1.1534
    5MOL    H11 1299   1.810   7.645   6.695  0.2620  0.6115 -0.0609
    5MOL    H12 1300   2.027   7.547   6.648 -2.7717 -0.7474  0.2487
    5MOL    H13 1301   2.279   7.725   6.501  0.7925  1.1417 -3.1724
    5MOL    H14 1302   2.253   7.562   6.532  1.7109  1.3028  0.2564
    5MOL    H15 1303   2.084   7.833   6.326  1.4108  1.9758  1.3345
    5MOL    H16 1304   1.862   7.907   6.364  0.4192  2.2382  2.1966
    5MOL    H17 1305   1.676   7.889   6.646 -1.8278  1.8347 -0.3196
    5MOL    C18 1306   2.267   7.611   6.320 -0.0648 -0.4785 -0.4300
    5MOL    C19 1307   2.405   7.575   6.286  0.2381 -0.1350 -0.3273
    5MOL    C20 1308   2.470   7.608   6.165 -0.1702  0.4553 -0.4055
    5MOL    C21 1309   2.602   7.558   6.140  0.2453 -0.4696  0.0336
    5MOL    C22 1310   2.671   7.475   6.232  0.0157 -0.0122  0.2214
    5MOL    C23 1311   2.803   7.400   6.196  0.6299  0.1939  0.0341
    5MOL    C24 1312   2.609   7.451   6.354  0.1936  0.5035 -0.6551
    5MOL    C25 1313   2.479   7.500   6.384  0.1944 -0.2550 -0.4666
    5MOL    H26 1314   2.207   7.530   6.278  0.8201 -0.9769 -0.7429
    5MOL    H27 1315   2.237   7.698   6.262  1.2056  1.6423  2.0018
    5MOL    H28 1316   2.423   7.659   6.083 -1.3426 -0.2154 -0.1683
    5MOL    H29 1317   2.647   7.575   6.043 -2.7759 -1.1940 -1.5804
    5MOL    H30 1318   2.782   7.345   6.104  0.8995 -3.3125  2.0045
    5MOL    H31 1319   2.807   7.321   6.270 -1.9198  0.9022  0.9779
    5MOL    H32 1320   2.665   7.392   6.425  1.5395  0.5466 -1.6553
    5MOL    H33 1321   2.438   7.471   6.479 -0.0197  0.3647 -0.3664
    5MOL    C34 1322   2.912   7.499   6.162 -1.0985 -0.5400 -0.0909
    5MOL    C35 1323   3.023   7.413   6.107  0.1715  0.3953  0.2715
    5MOL    C36 1324   3.138   7.392   6.186 -0.4488  0.2608 -0.0619
    5MOL    C37 1325   3.240   7.309   6.142 -0.3176 -0.2542 -0.2916
    5MOL    C38 1326   3.236   7.255   6.011  0.6739  0.0932 -0.3449
    5MOL    C39 1327   3.354   7.170   5.967 -0.3455 -0.5415 -0.3731
    5MOL    C40 1328   3.125   7.283   5.924  0.4705 -0.4038  0.0190
    5MOL    C41 1329   3.024   7.372   5.970 -0.2584 -0.0232 -0.1421
    5MOL    H42 1330   2.940   7.552   6.254 -1.0652 -0.0602 -0.3722
    5MOL    H43 1331   2.883   7.571   6.085 -2.0606 -0.3729  0.4172
    5MOL    H44 1332   3.145   7.422   6.290 -0.5412  0.4794 -0.1185
    5MOL    H45 1333   3.317   7.280   6.212 -0.9048 -1.2152 -0.0337
    5MOL    H46 1334   3.401   7.129   6.057  1.4275  3.9142  0.8582
    5MOL    H47 1335   3.328   7.073   5.924  3.8604 -1.3405 -1.3332
    5MOL    H48 1336   3.129   7.237   5.826 -0.5728  1.5894 -1.0152
    5MOL    H49 1337   2.947   7.399   5.900  1.3462  1.9730 -1.2191
    5MOL    C50 1338   3.453   7.244   5.881 -0.0102  0.3979  0.8685
    5MOL    C51 1339   3.584   7.167   5.860 -0.3374  0.4773 -0.3553
    5MOL    C52 1340   3.674   7.150   5.964  0.0597  0.0794  0.3207
    5MOL    C53 1341   3.803   7.096   5.942  0.3644 -0.5959 -0.1415
    5MOL    C54 1342   3.837   7.039   5.816 -0.2607  0.4718  0.4694
    5MOL    C55 1343   3.974   6.962   5.796  0.2381 -0.5898  0.2727
    5MOL    C56 1344   3.738   7.044   5.716 -0.0529 -0.5719  0.1308
    5MOL    C57 1345   3.614   7.107   5.737  0.2838 -0.3519 -0.7408
    5MOL    H58 1346   3.476   7.345   5.915 -1.6694 -0.0319  3.3907
    5MOL    H59 1347   3.404   7.246   5.785  0.0364 -0.7702  0.8058
    5MOL    H60 1348   3.656   7.192   6.062  0.1146 -0.2295  0.4629
    5MOL    H61 1349   3.868   7.086   6.028  2.0132 -0.7546 -1.3792
    5MOL    H62 1350   4.016   6.961   5.896  0.8201 -2.1665  0.0216
    5MOL    H63 1351   3.965   6.859   5.761 -0.1248 -0.8366  1.0984
    5MOL    H64 1352   3.739   7.000   5.617  1.1206 -1.6014  0.5841
    5MOL    H65 1353   3.551   7.117   5.649  0.6578 -0.0116 -0.9726
    5MOL    C66 1354   4.071   7.030   5.699  0.2851  0.5556 -0.5695
    5MOL    C67 1355   4.205   6.956   5.688  0.3578 -0.1756  0.2188
    5MOL    C68 1356   4.310   6.985   5.785  0.2764  0.2534  0.9243
    5MOL    C69 1357   4.426   6.908   5.779  0.0986  0.0266 -0.2867
    5MOL    C70 1358   4.448   6.813   5.681 -0.0041  0.0776  0.2940
    5MOL    C71 1359   4.577   6.746   5.658  0.1578 -0.1414 -0.6906
    5MOL    C72 1360   4.342   6.789   5.585 -0.6746  0.4353  0.3882
    5MOL    C73 1361   4.222   6.859   5.590  0.1126 -0.0969  0.1274
    5MOL    H74 1362   4.096   7.128   5.740  2.1351  0.1866 -0.7620
    5MOL    H75 1363   4.017   7.052   5.607 -0.7451  0.6005  0.0394
    5MOL    H76 1364   4.299   7.060   5.861  0.1594  1.4091 -0.2099
    5MOL    H77 1365   4.511   6.941   5.837 -2.2939  1.9355  2.2603
    5MOL    H78 1366   4.558   6.641   5.636 -2.5218  0.3818 -1.0778
    5MOL    H79 1367   4.630   6.744   5.753 -0.5910  3.0821 -0.1124
    5MOL    H80 1368   4.367   6.715   5.510 -1.2976  1.3736 -0.7614
    5MOL    H81 1369   4.140   6.850   5.521 -1.1285  1.4480  1.3466
    5MOL    C82 1370   4.652   6.807   5.540 -0.3714 -0.6699  0.2614
    5MOL    C83 1371   4.780   6.728   5.526  1.1110 -0.0897  0.3213
    5MOL    C84 1372   4.892   6.769   5.612 -0.4761  0.2123  0.2383
    5MOL    C85 1373   5.014   6.700   5.593 -0.0174  0.2616 -0.0985
    5MOL    C86 1374   5.023   6.585   5.507  0.0030 -0.0820  0.3657
    5MOL    C87 1375   5.163   6.528   5.477 -0.0521 -0.4369  0.0200
    5MOL    C88 1376   4.911   6.551   5.434  0.8653  0.4543  0.2750
    5MOL    C89 1377   4.788   6.610   5.447 -0.1116 -0.2601  0.0196
    5MOL    H90 1378   4.683   6.909   5.560  0.7831 -1.4614  2.6980
    5MOL    H91 1379   4.590   6.802   5.450 -2.4451 -1.5738  1.6876
    5MOL    H92 1380   4.884   6.857   5.674  0.4877  0.9326 -0.6324
    5MOL    H93 1381   5.109   6.736   5.629 -0.9838  2.0073  0.7637
    5MOL    H94 1382   5.137   6.428   5.445 -2.5533 -0.7202  2.6936
    5MOL    H95 1383   5.225   6.506   5.564 -0.8697 -1.9629  0.2214
    5MOL    H96 1384   4.931   6.463   5.374 -1.3274 -0.5314  0.9463
    5MOL    H97 1385   4.713   6.586   5.373  3.8794 -2.6515 -3.5133
    5MOL    C98 1386   5.246   6.594   5.365  0.3556  0.1488 -0.1446
    5MOL    C99 1387   5.383   6.534   5.338  1.1435  0.3686 -0.3729
    5MOL   C100 1388   5.493   6.611   5.314 -0.4949 -0.9783  0.8003
    5MOL   C101 1389   5.614   6.543   5.278  0.4639 -0.1543 -0.5952
    5MOL   C102 1390   5.620   6.404   5.268  0.2577 -0.2099  0.1459
    5MOL   C103 1391   5.746   6.332   5.221  0.2209  0.8180  0.5938
    5MOL   C104 1392   5.503   6.322   5.297 -0.5161 -0.0603  1.0869
    5MOL   C105 1393   5.387   6.395   5.331  0.3388 -0.0642 -0.5173
    5MOL   H106 1394   5.255   6.698   5.398  0.4998  0.3733 -0.8874
    5MOL   H107 1395   5.190   6.604   5.272  2.3321 -3.7906 -1.8629
    5MOL   H108 1396   5.496   6.719   5.325  0.3332 -1.1132  2.0657
    5MOL   H109 1397   5.700   6.601   5.246 -0.3706  1.5776  0.2564
    5MOL   H110 1398   5.717   6.277   5.131  0.7268  1.6974 -0.1160
    5MOL   H111 1399   5.830   6.397   5.197 -0.7650  1.3504 -1.5582
    5MOL   H112 1400   5.505   6.215   5.280  1.2975  0.1042  0.1364
    5MOL   H113 1401   5.300   6.332   5.342  1.3517 -1.2699  0.8489
    5MOL   C114 1402   5.787   6.236   5.334  0.8705  0.0245 -0.0029
    5MOL   C115 1403   5.923   6.179   5.306  0.3208 -0.8633  0.7142
    5MOL   C116 1404   5.932   6.055   5.244 -0.0821  0.4761  0.5291
    5MOL   C117 1405   6.059   5.992   5.219 -0.3107  0.1136 -0.2062
    5MOL   C118 1406   6.170   6.077   5.228 -0.0134  0.4961  0.5823
    5MOL   C119 1407   6.309   6.024   5.196 -0.7309 -0.3311  0.1648
    5MOL   C120 1408   6.157   6.213   5.282  0.2983  0.7514 -0.5825
    5MOL   C121 1409   6.035   6.257   5.336  0.2276 -0.0668  0.2323
    5MOL   H122 1410   5.705   6.164   5.345  1.1356 -0.0030  2.0203
    5MOL   H123 1411   5.800   6.284   5.431  1.9785  0.8402 -0.5569
    5MOL   H124 1412   5.842   5.998   5.226 -0.1568 -0.3260  3.2642
    5MOL   H125 1413   6.084   5.891   5.189  0.1767  0.1236  0.1647
    5MOL   H126 1414   6.295   5.939   5.129 -2.4564 -0.1029  0.2204
    5MOL   H127 1415   6.358   6.094   5.128  1.4868 -1.1693  0.8439
    5MOL   H128 1416   6.236   6.283   5.302  1.2620 -0.8768  1.4916
    5MOL   H129 1417   6.012   6.346   5.394 -1.2063  1.6059 -2.7758
    5MOL   C130 1418   6.401   5.998   5.316 -0.2366  0.0262  0.1011
    5MOL   C131 1419   6.544   5.962   5.264  0.2701  0.3114  0.4324
    5MOL   C132 1420   6.612   5.853   5.320 -0.6010 -0.0572 -0.1690
    5MOL   C133 1421   6.742   5.819   5.277  0.7007  0.1931  0.6128
    5MOL   C134 1422   6.796   5.892   5.173  0.1545 -0.1299  0.3187
    5MOL   C135 1423   6.929   5.837   5.111  0.2009  0.6383 -0.3311
    5MOL   C136 1424   6.732   6.004   5.120 -0.0844  0.2528  0.2530
    5MOL   C137 1425   6.604   6.037   5.157 -0.4344  0.0548  0.0519
    5MOL   H138 1426   6.370   5.909   5.371  1.1105 -0.6568 -0.2411
    5MOL   H139 1427   6.412   6.076   5.391  1.6019  0.7103 -0.8561
    5MOL   H140 1428   6.565   5.797   5.399 -1.2628  2.8642  1.5925
    5MOL   H141 1429   6.799   5.733   5.309  0.8248 -0.5530 -1.5663
    5MOL   H142 1430   6.954   5.734   5.135  0.3749  1.0728  1.4129
    5MOL   H143 1431   6.933   5.850   5.003  1.2739  0.0094 -0.3727
    5MOL   H144 1432   6.774   6.060   5.037 -0.1521  0.4276  0.3362
    5MOL   H145 1433   6.565   6.128   5.113  0.5821  0.5538  0.1713
    5MOL   C146 1434   7.049   5.917   5.161  0.6299  0.1127  0.0800
    5MOL   C147 1435   7.185   5.864   5.107 -0.4049  0.0081  0.1330
    5MOL   C148 1436   7.280   5.828   5.205  0.4607 -0.2166 -0.3630
    5MOL   C149 1437   7.408   5.787   5.167  0.1592 -0.3817 -0.4456
    5MOL   C150 1438   7.436   5.768   5.028  0.0637 -0.7370 -0.2039
    5MOL   C151 1439   7.573   5.709   4.995 -0.1765 -0.1877 -0.1201
    5MOL   C152 1440   7.338   5.804   4.930  0.2655 -0.5247 -0.4017
    5MOL   C153 1441   7.209   5.853   4.971 -0.6788  0.5240  0.3055
    5MOL   H154 1442   7.043   5.892   5.267 -1.9770 -0.9527 -0.2539
    5MOL   H155 1443   7.036   6.023   5.143 -2.5984 -0.2566 -0.2005
    5MOL   H156 1444   7.253   5.842   5.308  1.6515 -0.3001 -0.0268
    5MOL   H157 1445   7.483   5.752   5.235  1.6398 -2.4655 -3.0707
    5MOL   H158 1446   7.599   5.660   5.089  2.2782  0.7272 -0.2794
    5MOL   H159 1447   7.566   5.632   4.919  0.6873 -1.7014  1.2912
    5MOL   H160 1448   7.347   5.807   4.822  0.4364  3.9853 -0.3697
    5MOL   H161 1449   7.134   5.873   4.897  1.3464  0.3356 -1.8665
    5MOL   C162 1450   7.675   5.819   4.962 -0.3500  0.3659 -0.2395
    5MOL   C163 1451   7.812   5.762   4.959 -0.3973 -0.1876  0.0967
    5MOL   C164 1452   7.875   5.750   4.832  0.2074 -0.0152 -0.7654
    5MOL   C165 1453   8.010   5.711   4.829  1.0990  0.7113  0.7602
    5MOL   C166 1454   8.083   5.683   4.951 -0.4369 -0.2783  0.2783
    5MOL   C167 1455   8.234   5.639   4.939 -0.0946  0.3378 -0.9663
    5MOL   C168 1456   8.017   5.699   5.070 -0.0384 -0.6692  0.5889
    5MOL   C169 1457   7.885   5.736   5.074 -0.0280 -0.0573  0.4533
    5MOL   H170 1458   7.677   5.893   5.042  3.5606  0.6983 -0.5803
    5MOL   H171 1459   7.648   5.868   4.869 -0.3666  0.0247 -0.4177
    5MOL   H172 1460   7.813   5.778   4.748 -0.2079  0.8227 -0.1847
    5MOL   H173 1461   8.058   5.718   4.733 -1.1890 -0.6664 -0.5284
    5MOL   H174 1462   8.243   5.598   5.040  0.7045  3.2994  0.2339
    5MOL   H175 1463   8.264   5.566   4.864 -0.3118 -2.1469  1.2720
    5MOL   H176 1464   8.068   5.695   5.165  1.0762 -1.3995 -0.0268
    5MOL   H177 1465   7.838   5.755   5.170 -1.2748  0.1621 -0.1972
    5MOL   C178 1466   8.325   5.765   4.935 -0.7861  0.2231 -0.4049
    5MOL   C179 1467   8.468   5.717   4.911  0.7152  0.0721 -0.3206
    5MOL   C180 1468   8.554   5.688   5.023  0.1358 -0.1282 -0.6323
    5MOL   C181 1469   8.691   5.660   4.998  0.4473  0.4902  0.4219
    5MOL   C182 1470   8.746   5.663   4.867 -0.2783  0.4917  0.0121
    5MOL   C183 1471   8.888   5.640   4.852 -0.4615 -0.0304  0.3222
    5MOL   C184 1472   8.656   5.675   4.757 -0.7178 -0.0804  0.7541
    5MOL   C185 1473   8.518   5.710   4.780  0.0352  0.1313  0.5857
    5MOL   H186 1474   8.322   5.824   5.027  0.2515  1.7075 -1.3053
    5MOL   H187 1475   8.283   5.830   4.859 -1.1647  2.6878  1.8243
    5MOL   H188 1476   8.515   5.707   5.122 -1.3509  2.8776 -1.7302
    5MOL   H189 1477   8.760   5.639   5.079  0.2129 -0.7361  0.3173
    5MOL   H190 1478   8.928   5.607   4.948 -0.6015  0.3541  0.5157
    5MOL   H191 1479   8.901   5.569   4.770  0.3686  1.9504 -1.3036
    5MOL   H192 1480   8.708   5.674   4.662 -1.2945 -0.5479  0.4455
    5MOL   H193 1481   8.461   5.745   4.695  1.6993 -0.4537 -0.8052
    5MOL   C194 1482   8.957   5.773   4.829 -0.3964 -0.1183  0.6029
    5MOL   C195 1483   9.114   5.756   4.833 -0.3622  0.9087  0.1606
    5MOL   C196 1484   9.180   5.775   4.954 -0.4500  0.1375 -0.6619
    5MOL   C197 1485   9.316   5.757   4.956  0.3553  0.6866  0.3192
    5MOL   C198 1486   9.395   5.717   4.842  0.2778  0.2952 -0.3737
    5MOL   C199 1487   9.547   5.695   4.858  0.5933  0.0133 -0.1567
    5MOL   C200 1488   9.325   5.694   4.721  0.4120  0.0383  0.4831
    5MOL   C201 1489   9.186   5.712   4.716  0.1786 -0.1842 -0.8990
    5MOL   H202 1490   8.930   5.840   4.911  0.7757  0.6925  0.3393
    5MOL   H203 1491   8.933   5.825   4.737  0.6591 -0.8112 -0.0783
    5MOL   H204 1492   9.132   5.817   5.041 -0.9839  1.3931 -1.5526
    5MOL   H205 1493   9.357   5.775   5.054  0.0111 -1.1384  0.8070
    5MOL   H206 1494   9.577   5.761   4.939 -0.0575  0.0477  0.0611
    5MOL   H207 1495   9.566   5.595   4.897 -1.5622 -0.2122  0.3722
    5MOL   H208 1496   9.378   5.662   4.632 -0.9514 -2.7477  0.6356
    5MOL   H209 1497   9.144   5.694   4.618 -0.3795  0.8139 -0.8448
    5MOL   C210 1498   9.633   5.732   4.732 -0.2582  0.2895 -0.3644
    5MOL   C211 1499   9.777   5.753   4.773 -0.2982 -0.5720  0.1972
    5MOL   C212 1500   9.875   5.670   4.714 -1.2885  0.0761 -0.2695
    5MOL   C213 1501  10.012   5.696   4.749  0.0253 -0.3060 -0.2082
    5MOL   C214 1502  10.051   5.797   4.842 -0.6298  0.4150 -0.4267
    5MOL   C215 1503  10.194   5.798   4.898 -0.2234 -0.2188 -0.0771
    5MOL   C216 1504   9.950   5.881   4.898  0.5775 -0.8842 -0.0353
    5MOL   C217 1505   9.814   5.858   4.859  0.3748  0.7449  0.2617
    5MOL   H218 1506   9.578   5.821   4.703  0.6335  0.2995 -2.1321
    5MOL   H219 1507   9.624   5.653   4.657 -0.2949 -0.3214  0.2792
    5MOL   H220 1508   9.852   5.594   4.641  0.7402 -0.0174 -0.8318
    5MOL   H221 1509  10.088   5.627   4.715 -0.2027 -1.3672  1.3784
    5MOL   H222 1510  10.272   5.819   4.825 -0.9809 -0.2104 -0.8940
    5MOL   H223 1511  10.196   5.879   4.971  1.6467 -0.1246 -0.1936
    5MOL   H224 1512   9.986   5.961   4.961  0.1114 -0.6941 -0.0040
    5MOL   H225 1513   9.735   5.923   4.895  1.5156  1.5083  1.4292
    5MOL   C226 1514  10.224   5.670   4.979 -0.0861  0.4457  0.5992
    5MOL   C227 1515  10.107   5.624   5.067 -0.3107 -0.6961  0.5951
    5MOL   C228 1516  10.020   5.526   5.026  0.0610  0.5947  0.6809
    5MOL   C229 1517   9.914   5.491   5.105 -0.1024  0.1623  0.0580
    5MOL   C230 1518   9.884   5.566   5.220  0.6709  0.1063 -0.3202
    5MOL   C231 1519   9.754   5.542   5.289 -0.0802 -0.2539 -0.4415
    5MOL   C232 1520   9.970   5.674   5.259  0.0635  0.1817 -1.0479
    5MOL   C233 1521  10.088   5.690   5.186  0.0069 -0.3442  0.5571
    5MOL   H234 1522  10.311   5.665   5.044  0.6211  1.1955 -0.2705
    5MOL   H235 1523  10.235   5.592   4.903 -0.8583  2.7360 -1.9627
    5MOL   H236 1524  10.037   5.465   4.939  0.3479  4.2750 -1.9839
    5MOL   H237 1525   9.844   5.415   5.071 -1.3673  0.7902  1.2128
    5MOL   H238 1526   9.739   5.436   5.307  0.2542 -0.2009  0.1660
    5MOL   H239 1527   9.753   5.595   5.385 -2.4636 -1.3713  0.1893
    5MOL   H240 1528   9.948   5.737   5.344 -0.1672  1.1320 -1.8003
    5MOL   H241 1529  10.143   5.782   5.203 -0.8989 -0.1831  2.7613
    5MOL   C242 1530   9.644   5.606   5.204  0.5377 -0.1390  0.0956
    5MOL   C243 1531   9.504   5.600   5.272  0.2487 -0.7269  0.0084
    5MOL   C244 1532   9.417   5.510   5.215  0.3310  0.3719  0.8671
    5MOL   C245 1533   9.294   5.486   5.277  0.1104 -0.1310 -0.1471
    5MOL   C246 1534   9.248   5.566   5.381 -0.3122  0.2849 -0.3509
    5MOL   C247 1535   9.102   5.550   5.427  0.4478 -0.8891 -0.1336
    5MOL   C248 1536   9.329   5.665   5.430  0.3379  0.5603  0.5373
    5MOL   C249 1537   9.459   5.678   5.377 -0.4904  0.0449 -0.5782
    5MOL   H250 1538   9.664   5.712   5.190 -0.2287  0.2056  1.4498
    5MOL   H251 1539   9.651   5.557   5.107 -0.8266  0.6817 -0.4299
    5MOL   H252 1540   9.449   5.456   5.127  0.9448  0.1863  1.2009
    5MOL   H253 1541   9.227   5.409   5.241  1.4676 -1.2383 -0.3143
    5MOL   H254 1542   9.085   5.451   5.469 -1.6416 -0.4936 -0.0070
    5MOL   H255 1543   9.091   5.622   5.508 -0.2159 -1.1430  0.0007
    5MOL   H256 1544   9.292   5.740   5.497 -0.9288  0.6899 -0.2882
    5MOL   H257 1545   9.523   5.749   5.429 -0.8900  1.2915 -1.7605
    5MOL   C258 1546   9.004   5.583   5.313  0.2136 -0.7122  0.0207
    5MOL   C259 1547   8.857   5.579   5.351  0.4097 -0.4608  0.4604
    5MOL   C260 1548   8.771   5.482   5.300 -0.3275  0.0347  0.1492
    5MOL   C261 1549   8.641   5.467   5.356 -0.0983 -0.1285 -0.4093
    5MOL   C262 1550   8.595   5.564   5.459  0.5291  0.4077  0.2142
    5MOL   C263 1551   8.460   5.541   5.519  0.5773 -0.3700 -0.7348
    5MOL   C264 1552   8.689   5.664   5.501 -0.2226  0.3233 -0.1092
    5MOL   C265 1553   8.815   5.673   5.444  0.6638 -0.0598 -0.5379
    5MOL   H266 1554   9.023   5.514   5.231  1.6780  1.0936 -1.2065
    5MOL   H267 1555   9.031   5.682   5.275  2.7668 -0.1401  3.1516
    5MOL   H268 1556   8.803   5.407   5.230 -1.1367 -0.2362  0.0609
    5MOL   H269 1557   8.576   5.392   5.315 -1.0675  0.1283  0.6247
    5MOL   H270 1558   8.443   5.441   5.559  0.0366  0.7177  1.8701
    5MOL   H271 1559   8.446   5.602   5.608  0.6752  1.5054 -1.9625
    5MOL   H272 1560   8.661   5.745   5.567 -0.2539 -1.7530  2.4673
    5MOL   H273 1561   8.883   5.745   5.487  0.6350 -1.0326  1.1394
    5MOL   C274 1562   8.346   5.562   5.410  0.6808 -0.0731 -0.1929
    5MOL   C275 1563   8.216   5.512   5.463  0.5695 -1.0035  0.3769
    5MOL   C276 1564   8.163   5.573   5.582 -0.2057  0.0250 -0.2435
    5MOL   C277 1565   8.025   5.550   5.613  0.1339 -0.0258  0.9570
    5MOL   C278 1566   7.944   5.483   5.523  0.4939  0.2190 -0.6682
    5MOL   C279 1567   7.792   5.480   5.552  0.1923 -0.1626 -0.6058
    5MOL   C280 1568   7.997   5.433   5.404  0.0986 -0.3364 -0.3186
    5MOL   C281 1569   8.131   5.455   5.371 -0.6819  0.4085 -0.2003
    5MOL   H282 1570   8.334   5.667   5.386  0.9021  0.1179  0.5183
    5MOL   H283 1571   8.364   5.511   5.315  0.5353  0.6926 -0.6339
    5MOL   H284 1572   8.223   5.632   5.650  1.9390 -0.2986 -1.8001
    5MOL   H285 1573   7.993   5.575   5.713 -0.9123 -1.7639  1.0748
    5MOL   H286 1574   7.758   5.380   5.523  1.2731 -0.4462 -0.9229
    5MOL   H287 1575   7.767   5.490   5.657  1.8919  1.8421 -0.3538
    5MOL   H288 1576   7.925   5.388   5.336 -0.4215 -0.8542  0.5680
    5MOL   H289 1577   8.162   5.421   5.273  1.4800 -0.6581  0.8224
    5MOL   C290 1578   7.721   5.585   5.469  0.8818 -0.1357  0.5319
    5MOL   C291 1579   7.570   5.575   5.498  0.1824  0.2261 -0.1226
    5MOL   C292 1580   7.487   5.511   5.407  0.2759 -0.2381  0.2916
    5MOL   C293 1581   7.349   5.524   5.431  0.3915  0.2235  0.4545
    5MOL   C294 1582   7.289   5.601   5.533 -0.2144  0.1446  0.1712
    5MOL   C295 1583   7.135   5.615   5.552  0.4491  0.2962  0.2144
    5MOL   C296 1584   7.381   5.668   5.622 -0.8030 -0.2603  0.4989
    5MOL   C297 1585   7.521   5.649   5.605 -0.2485  0.3727 -0.1036
    5MOL   H298 1586   7.738   5.575   5.362 -2.0704 -0.7955  0.0797
    5MOL   H299 1587   7.760   5.683   5.500  0.3621  0.2237  0.0566
    5MOL   H300 1588   7.530   5.454   5.326 -0.0124  0.8651 -0.6492
    5MOL   H301 1589   7.281   5.476   5.363  0.0486  0.7214  0.4512
    5MOL   H302 1590   7.107   5.687   5.630 -2.8689  0.7903 -1.3441
    5MOL   H303 1591   7.100   5.660   5.460  1.7360 -1.4470 -1.1528
    5MOL   H304 1592   7.340   5.725   5.704 -2.0228  2.2031 -1.7342
    5MOL   H305 1593   7.588   5.714   5.660 -4.8795  2.3536  3.6376
    5MOL   C306 1594   7.058   5.484   5.571 -0.3428  0.4563 -0.6381
    5MOL   C307 1595   6.912   5.509   5.588  0.1273 -0.0470  0.0248
    5MOL   C308 1596   6.819   5.476   5.491  0.0636  0.5494  0.1092
    5MOL   C309 1597   6.681   5.493   5.511  0.2999  0.7913 -0.1948
    5MOL   C310 1598   6.634   5.546   5.632 -0.1932 -0.7065 -0.3717
    5MOL   C311 1599   6.481   5.568   5.646  0.0297  0.1660  0.7404
    5MOL   C312 1600   6.728   5.580   5.731  0.4140  0.4417 -0.4872
    5MOL   C313 1601   6.865   5.567   5.711  0.0482 -0.7789  0.3394
    5MOL   H314 1602   7.103   5.438   5.659 -0.3391 -0.0987 -0.9257
    5MOL   H315 1603   7.069   5.414   5.488 -1.3261 -1.6474  0.9405
    5MOL   H316 1604   6.850   5.427   5.400 -1.0682  0.0644 -0.0295
    5MOL   H317 1605   6.608   5.454   5.442 -0.0260 -2.4329  1.8571
    5MOL   H318 1606   6.424   5.475   5.640  4.4490 -2.6060 -0.9448
    5MOL   H319 1607   6.463   5.607   5.746  1.4057 -0.7650  1.3512
    5MOL   H320 1608   6.688   5.625   5.820  2.0372 -0.2900  0.6456
    5MOL   H321 1609   6.934   5.594   5.790 -0.2884 -0.2977  0.4750
    5MOL   H322 1610   6.443   5.639   5.571 -1.4202 -0.3038  1.0041
    6MOL     C1 1611   6.391   3.440   0.882  0.4293  0.4862  1.0959
    6MOL     C2 1612   6.531   3.407   0.845  0.7937  0.4710  0.3786
    6MOL     C3 1613   6.595   3.284   0.890  0.0908 -0.3931  0.5783
    6MOL     C4 1614   6.723   3.253   0.845 -0.8815  0.6318 -0.3809
    6MOL     C5 1615   6.798   3.337   0.757 -0.0832 -0.4040 -0.4404
    6MOL     C6 1616   6.940   3.300   0.712  0.6167 -0.0996 -0.0522
    6MOL     C7 1617   6.733   3.455   0.705 -0.6956 -0.3945  0.0305
    6MOL     C8 1618   6.600   3.482   0.753  0.4192 -0.0748  0.5806
    6MOL     H9 1619   6.326   3.400   0.804  1.9307 -2.2472  1.1846
    6MOL    H10 1620   6.364   3.396   0.978 -0.2395 -4.0813 -1.0311
    6MOL    H11 1621   6.547   3.225   0.967  0.8507  1.0386  2.1789
    6MOL    H12 1622   6.769   3.160   0.876 -0.2853  0.4128 -1.9030
    6MOL    H13 1623   6.968   3.202   0.749  1.3723 -0.0376 -0.4567
    6MOL    H14 1624   6.944   3.292   0.603 -0.3345  2.0292 -0.2821
    6MOL    H15 1625   6.780   3.524   0.636 -1.1422 -0.5000 -0.3826
    6MOL    H16 1626   6.557   3.576   0.723 -0.7807 -0.7169  0.2730
    6MOL    H17 1627   6.374   3.547   0.886  0.5730  0.4754  2.1709
    6MOL    C18 1628   7.042   3.409   0.749 -0.1169  0.3245 -0.1308
    6MOL    C19 1629   7.186   3.368   0.723 -0.2568  0.0834  0.0155
    6MOL    C20 1630   7.278   3.351   0.833  0.1571  0.7565  0.7055
    6MOL    C21 1631   7.416   3.331   0.797  0.3116  0.3956  0.1218
    6MOL    C22 1632   7.457   3.324   0.663 -0.7440 -0.0586  0.8410
    6MOL    C23 1633   7.608   3.306   0.632 -0.0527 -0.4238 -0.0962
    6MOL    C24 1634   7.365   3.338   0.558 -0.1297  0.0052  0.6838
    6MOL    C25 1635   7.229   3.351   0.587 -0.6214 -0.4218  0.3865
    6MOL    H26 1636   7.011   3.497   0.691 -2.0959 -0.6209 -0.5605
    6MOL    H27 1637   7.013   3.439   0.850  0.8122  1.2623 -0.1294
    6MOL    H28 1638   7.250   3.361   0.937  2.3577  0.7236  1.3294
    6MOL    H29 1639   7.479   3.322   0.884  0.2290 -0.0205  0.1398
    6MOL    H30 1640   7.664   3.324   0.724  1.3064 -0.0576 -0.9736
    6MOL    H31 1641   7.650   3.368   0.553 -1.3103 -0.0026 -0.4286
    6MOL    H32 1642   7.407   3.325   0.459 -0.1202  1.3324  0.5078
    6MOL    H33 1643   7.150   3.364   0.514 -0.2401  1.3995  0.2613
    6MOL    C34 1644   7.626   3.159   0.596 -0.2870 -0.1007 -0.8359
    6MOL    C35 1645   7.777   3.132   0.568 -0.4016  0.5243  0.3195
    6MOL    C36 1646   7.808   3.122   0.429 -0.1036 -0.2855  0.2912
    6MOL    C37 1647   7.945   3.110   0.389  0.3359  0.6564 -0.8682
    6MOL    C38 1648   8.050   3.112   0.489 -0.7092 -0.1968 -0.0290
    6MOL    C39 1649   8.199   3.105   0.450 -0.2254  0.3085 -0.1306
    6MOL    C40 1650   8.014   3.127   0.627  0.0072  0.3250  0.6188
    6MOL    C41 1651   7.879   3.139   0.668 -0.6009  0.2286 -0.3161
    6MOL    H42 1652   7.567   3.131   0.508 -1.1690  3.6378 -1.5416
    6MOL    H43 1653   7.594   3.092   0.675  1.4873 -1.1068 -0.9544
    6MOL    H44 1654   7.740   3.115   0.346 -1.0380  2.3086  0.7897
    6MOL    H45 1655   7.970   3.090   0.286  0.9562  0.1941 -0.6353
    6MOL    H46 1656   8.205   3.132   0.344 -0.2963 -1.0120 -0.4761
    6MOL    H47 1657   8.250   3.184   0.505 -2.1470  1.5913 -0.1298
    6MOL    H48 1658   8.090   3.132   0.703  0.1115  0.8885  0.4806
    6MOL    H49 1659   7.862   3.137   0.775  2.7844  0.1283  0.2657
    6MOL    C50 1660   8.258   2.966   0.475 -0.5950 -0.2169 -0.4036
    6MOL    C51 1661   8.397   2.950   0.429 -0.1779  0.6617 -0.2585
    6MOL    C52 1662   8.425   2.943   0.290 -0.5024  0.3641  0.0065
    6MOL    C53 1663   8.556   2.902   0.249  0.1422 -0.6225 -0.2211
    6MOL    C54 1664   8.659   2.891   0.347 -0.2346  0.1159  0.5185
    6MOL    C55 1665   8.797   2.860   0.301  0.2155  0.4589 -0.1976
    6MOL    C56 1666   8.636   2.912   0.480  0.5165 -0.3131 -0.2870
    6MOL    C57 1667   8.505   2.932   0.531 -0.0832  0.1609  0.4886
    6MOL    H58 1668   8.193   2.887   0.437 -1.8819  0.6830 -0.1197
    6MOL    H59 1669   8.254   2.954   0.583  1.5177  1.0178 -0.1666
    6MOL    H60 1670   8.339   2.956   0.227  0.8915 -0.8808 -2.1994
    6MOL    H61 1671   8.569   2.883   0.144 -0.2795  1.4507 -0.6679
    6MOL    H62 1672   8.830   2.942   0.237  0.2805  0.7625  0.2200
    6MOL    H63 1673   8.868   2.869   0.384  1.7079 -0.7931 -1.3213
    6MOL    H64 1674   8.718   2.901   0.549  2.0648  0.2190 -2.0059
    6MOL    H65 1675   8.489   2.939   0.637 -0.4839  0.8008  0.3871
    6MOL    C66 1676   8.810   2.729   0.227  0.1739 -1.5226 -0.2848
    6MOL    C67 1677   8.960   2.712   0.190 -0.1950 -0.0989  0.5790
    6MOL    C68 1678   9.017   2.750   0.062  0.5461 -0.4647  0.7138
    6MOL    C69 1679   9.157   2.744   0.047  0.1663 -1.1171 -0.2354
    6MOL    C70 1680   9.236   2.682   0.146  0.8353 -0.7462 -0.1142
    6MOL    C71 1681   9.389   2.664   0.117  0.4211 -0.6439 -0.4161
    6MOL    C72 1682   9.181   2.644   0.269  0.2639  0.6846 -0.1298
    6MOL    C73 1683   9.044   2.661   0.290  0.3812 -0.6810 -0.1635
    6MOL    H74 1684   8.743   2.749   0.143  0.8111  1.0585 -0.2194
    6MOL    H75 1685   8.769   2.642   0.279  0.2231 -1.7807 -0.6765
    6MOL    H76 1686   8.955   2.792  -0.016  3.0748  1.4928 -0.3457
    6MOL    H77 1687   9.195   2.781  -0.047 -1.0709  1.2710  0.1792
    6MOL    H78 1688   9.435   2.658   0.216 -2.7263 -0.2506  1.1439
    6MOL    H79 1689   9.427   2.750   0.062 -1.1671  0.0174 -0.4992
    6MOL    H80 1690   9.239   2.600   0.348 -1.2414 -0.5093  0.3336
    6MOL    H81 1691   9.004   2.621   0.382 -0.1494 -0.3327 -0.2473
    6MOL    C82 1692   9.422   2.540   0.031  0.3671 -0.9090 -0.3266
    6MOL    C83 1693   9.576   2.505   0.016  0.0611  0.5383  0.0160
    6MOL    C84 1694   9.628   2.420   0.115 -0.0266 -0.2301 -0.3850
    6MOL    C85 1695   9.770   2.395   0.112  0.2290 -0.0892  0.6465
    6MOL    C86 1696   9.846   2.439   0.004 -0.2232 -0.6644  0.4335
    6MOL    C87 1697   9.996   2.419   0.000 -0.2206 -0.2669 -0.1258
    6MOL    C88 1698   9.788   2.507  -0.107  0.1385  0.3573  0.2254
    6MOL    C89 1699   9.649   2.538  -0.103 -0.0242  0.0157  0.0092
    6MOL    H90 1700   9.376   2.548  -0.067  0.2444 -0.4161 -0.2291
    6MOL    H91 1701   9.371   2.457   0.078 -1.2476  0.1918 -0.0794
    6MOL    H92 1702   9.574   2.379   0.199  0.1757 -1.7138 -0.9564
    6MOL    H93 1703   9.815   2.336   0.191  2.2823 -1.3243 -1.3974
    6MOL    H94 1704  10.037   2.394   0.098 -1.1045 -0.2763  0.2461
    6MOL    H95 1705  10.027   2.519  -0.031 -0.6561 -0.3107 -0.7157
    6MOL    H96 1706   9.855   2.535  -0.186  1.9449  0.5699  1.7953
    6MOL    H97 1707   9.601   2.590  -0.184 -0.4320  0.0626  0.2800
    6MOL    C98 1708  10.041   2.314  -0.100 -0.3094  0.0183 -0.4199
    6MOL    C99 1709  10.198   2.301  -0.098  0.1699 -0.5451 -0.5374
    6MOL   C100 1710  10.262   2.191  -0.036 -0.9384  0.4611  0.6069
    6MOL   C101 1711  10.399   2.176  -0.032 -0.1899 -0.5505  0.0711
    6MOL   C102 1712  10.478   2.288  -0.070 -0.2265  0.5359 -0.1402
    6MOL   C103 1713  10.625   2.294  -0.051 -0.1829  0.4808  0.4305
    6MOL   C104 1714  10.421   2.399  -0.133 -0.3530  0.3706 -0.7787
    6MOL   C105 1715  10.279   2.407  -0.148 -0.2905 -0.2021 -0.5546
    6MOL   H106 1716   9.998   2.345  -0.195  1.8225 -2.8801 -2.4031
    6MOL   H107 1717   9.988   2.224  -0.066 -0.1549 -0.5987 -1.7998
    6MOL   H108 1718  10.202   2.108  -0.001 -2.9957  0.1615 -3.3422
    6MOL   H109 1719  10.436   2.087   0.017  0.4119 -0.3838 -0.0741
    6MOL   H110 1720  10.643   2.390  -0.003 -2.7372  1.2246 -0.0183
    6MOL   H111 1721  10.663   2.226   0.025  0.7513  0.1916 -0.2802
    6MOL   H112 1722  10.479   2.478  -0.177  2.2390 -0.6935  0.6205
    6MOL   H113 1723  10.231   2.495  -0.189 -2.3694 -0.8700  0.3890
    6MOL   C114 1724  10.716   2.291  -0.173  0.1085 -0.4992  0.5046
    6MOL   C115 1725  10.756   2.157  -0.231 -0.2453 -0.5557  0.0591
    6MOL   C116 1726  10.712   2.045  -0.162 -0.2707  0.1796  0.1280
    6MOL   C117 1727  10.755   1.918  -0.202  0.3957  0.2047  0.2780
    6MOL   C118 1728  10.833   1.900  -0.315  0.7209  0.1064 -0.1363
    6MOL   C119 1729  10.865   1.759  -0.367  0.9509 -1.2389  0.0121
    6MOL   C120 1730  10.871   2.016  -0.388 -0.1675  0.1199 -0.0073
    6MOL   C121 1731  10.827   2.144  -0.350 -0.5191  0.3145 -0.1866
    6MOL   H122 1732  10.805   2.350  -0.151  0.5983 -0.3387 -1.8063
    6MOL   H123 1733  10.665   2.345  -0.252  2.4491 -0.8356 -1.2898
    6MOL   H124 1734  10.636   2.038  -0.086 -0.9292  0.8590 -0.4685
    6MOL   H125 1735  10.733   1.830  -0.142 -0.9247 -0.2900 -0.9307
    6MOL   H126 1736  10.968   1.766  -0.402  0.6779 -1.6834 -0.9089
    6MOL   H127 1737  10.866   1.687  -0.286  1.4243  0.9075  1.9657
    6MOL   H128 1738  10.929   1.990  -0.475  0.8962 -1.9275  1.2836
    6MOL   H129 1739  10.855   2.233  -0.404 -0.5247  0.4940  0.1084
    6MOL   C130 1740  10.765   1.719  -0.477  0.2198  0.2327 -0.6184
    6MOL   C131 1741  10.619   1.738  -0.445  0.3746 -0.6608  0.3054
    6MOL   C132 1742  10.563   1.709  -0.318  0.8663 -1.2485  0.4891
    6MOL   C133 1743  10.429   1.742  -0.298  0.3096  0.4735 -0.7687
    6MOL   C134 1744  10.357   1.806  -0.397  0.2806  0.5741  0.8120
    6MOL   C135 1745  10.212   1.836  -0.372 -0.2012  0.7885 -0.2310
    6MOL   C136 1746  10.401   1.823  -0.526 -0.0147  0.0615 -0.7478
    6MOL   C137 1747  10.533   1.780  -0.555 -0.0606 -0.6630  0.0858
    6MOL   H138 1748  10.797   1.616  -0.495  0.4947  0.3879 -1.0178
    6MOL   H139 1749  10.794   1.781  -0.561 -0.7566 -0.1985 -1.2839
    6MOL   H140 1750  10.625   1.666  -0.241  1.4941 -0.2910  0.5289
    6MOL   H141 1751  10.379   1.732  -0.203 -1.3047 -0.2677 -1.6888
    6MOL   H142 1752  10.144   1.814  -0.453 -0.5892 -1.8846  0.7854
    6MOL   H143 1753  10.179   1.788  -0.280 -0.1040 -0.0045 -0.6064
    6MOL   H144 1754  10.342   1.874  -0.600 -1.1831 -1.8045 -1.1274
    6MOL   H145 1755  10.558   1.782  -0.660  0.0047 -0.5577  0.1044
    6MOL   C146 1756  10.201   1.978  -0.333 -0.6306 -0.4434 -0.2746
    6MOL   C147 1757  10.057   2.013  -0.311 -0.6994  0.0529 -0.1221
    6MOL   C148 1758   9.991   1.983  -0.187 -0.1496 -0.4172 -0.0047
    6MOL   C149 1759   9.851   1.994  -0.178  0.3354 -0.7587 -0.2850
    6MOL   C150 1760   9.773   2.048  -0.287 -0.0946 -0.0356 -0.1203
    6MOL   C151 1761   9.621   2.062  -0.287  0.8615 -0.2671  0.8635
    6MOL   C152 1762   9.843   2.090  -0.400 -0.7440  0.4925 -0.0016
    6MOL   C153 1763   9.984   2.074  -0.413  0.4017  0.0789  0.6104
    6MOL   H154 1764  10.241   2.041  -0.412  0.0513  0.0798  0.4816
    6MOL   H155 1765  10.254   1.986  -0.239 -1.1460 -1.9892  0.1696
    6MOL   H156 1766  10.048   1.939  -0.107  0.7159  1.9200  0.6886
    6MOL   H157 1767   9.790   1.980  -0.090  2.5757 -1.2290  1.2073
    6MOL   H158 1768   9.593   2.048  -0.392  0.0237  0.1652  1.0209
    6MOL   H159 1769   9.577   1.982  -0.228  1.1700 -1.3347 -0.3405
    6MOL   H160 1770   9.788   2.131  -0.483 -0.5131  0.7210 -0.0460
    6MOL   H161 1771  10.030   2.098  -0.508  3.0830  0.6789  1.9948
    6MOL   C162 1772   9.583   2.194  -0.221  0.0625 -0.7545  0.2897
    6MOL   C163 1773   9.431   2.212  -0.193 -1.0347 -0.0599  0.4167
    6MOL   C164 1774   9.375   2.187  -0.068 -0.7602 -0.2597 -0.3640
    6MOL   C165 1775   9.242   2.221  -0.049  0.3976  0.0682 -0.2396
    6MOL   C166 1776   9.160   2.261  -0.154 -0.2697 -0.0299  0.3038
    6MOL   C167 1777   9.012   2.276  -0.132 -0.7512  0.0330  0.0435
    6MOL   C168 1778   9.218   2.276  -0.285 -0.2309 -0.6646 -0.4830
    6MOL   C169 1779   9.352   2.249  -0.300 -0.5798 -0.2461  0.5810
    6MOL   H170 1780   9.624   2.273  -0.283 -1.3044  1.0932  1.7088
    6MOL   H171 1781   9.628   2.200  -0.122 -0.8310 -0.8845  0.7082
    6MOL   H172 1782   9.434   2.143   0.011 -1.7838 -0.2149  0.4318
    6MOL   H173 1783   9.192   2.194   0.043  0.8667 -0.4321 -0.1319
    6MOL   H174 1784   8.963   2.282  -0.229 -0.8633  2.4538  0.2085
    6MOL   H175 1785   8.988   2.190  -0.069 -2.7784  1.8119  1.7710
    6MOL   H176 1786   9.157   2.314  -0.365 -1.2446 -0.8095  0.2073
    6MOL   H177 1787   9.400   2.263  -0.395  0.5264  0.0750  1.1730
    6MOL   C178 1788   8.982   2.417  -0.069  0.0064  0.4384 -0.2512
    6MOL   C179 1789   8.834   2.423  -0.042  0.7280 -0.0741 -0.0027
    6MOL   C180 1790   8.735   2.443  -0.151 -0.5695  0.8258  0.2030
    6MOL   C181 1791   8.600   2.447  -0.122  0.7621 -0.7419  0.3103
    6MOL   C182 1792   8.553   2.437   0.015  0.5880 -0.0945  0.4186
    6MOL   C183 1793   8.403   2.458   0.046 -0.5559  0.0491 -0.1619
    6MOL   C184 1794   8.648   2.413   0.116 -0.1340 -0.2732  0.4339
    6MOL   C185 1795   8.787   2.402   0.087 -0.9031 -0.9758  0.7353
    6MOL   H186 1796   9.006   2.492  -0.145  2.1352 -0.0808 -0.1057
    6MOL   H187 1797   9.042   2.439   0.019 -1.5987  0.3842  0.8845
    6MOL   H188 1798   8.761   2.454  -0.256 -3.2374  3.2453 -0.2475
    6MOL   H189 1799   8.519   2.440  -0.193 -1.7345  1.1135  2.8601
    6MOL   H190 1800   8.331   2.393  -0.003 -2.7110  0.5829  2.1321
    6MOL   H191 1801   8.398   2.426   0.150 -1.3650 -0.7571 -0.4415
    6MOL   H192 1802   8.621   2.418   0.220  0.2155  0.9129  0.4683
    6MOL   H193 1803   8.856   2.398   0.170 -0.7458 -0.0120  0.6451
    6MOL   C194 1804   8.358   2.603   0.010  0.0629 -0.2059 -0.6039
    6MOL   C195 1805   8.212   2.628   0.066 -0.5705 -0.4819 -0.0655
    6MOL   C196 1806   8.188   2.662   0.199 -0.3347  0.5448  0.6363
    6MOL   C197 1807   8.056   2.660   0.246 -0.5320  0.6790 -0.5533
    6MOL   C198 1808   7.947   2.638   0.166 -0.1849 -0.2368  0.2557
    6MOL   C199 1809   7.801   2.653   0.212  0.1426 -0.4430 -0.5049
    6MOL   C200 1810   7.972   2.608   0.028  0.1907  1.2689  0.2479
    6MOL   C201 1811   8.100   2.595  -0.016  0.9452  0.2194 -0.2516
    6MOL   H202 1812   8.368   2.623  -0.096  1.1867  0.5496 -0.3634
    6MOL   H203 1813   8.424   2.671   0.064 -0.5619  1.1190 -1.4812
    6MOL   H204 1814   8.265   2.688   0.270 -0.0685  0.0268  0.5450
    6MOL   H205 1815   8.050   2.692   0.349 -2.0669  0.9548 -0.7130
    6MOL   H206 1816   7.729   2.590   0.160 -1.0815  1.1035 -0.7034
    6MOL   H207 1817   7.805   2.637   0.320 -0.4095  0.9402 -0.2769
    6MOL   H208 1818   7.892   2.583  -0.040  0.1813 -1.8364  1.3609
    6MOL   H209 1819   8.107   2.578  -0.122  1.2348  1.1794 -0.3894
    6MOL   C210 1820   7.734   2.788   0.185 -0.4959 -0.3148  0.7853
    6MOL   C211 1821   7.595   2.793   0.231 -0.3706  0.1192 -0.0589
    6MOL   C212 1822   7.488   2.759   0.149 -0.4845  0.0349 -0.3141
    6MOL   C213 1823   7.353   2.777   0.194 -0.7451 -1.1542 -0.1787
    6MOL   C214 1824   7.332   2.829   0.323 -0.3374 -0.4889 -0.2862
    6MOL   C215 1825   7.198   2.854   0.373  0.2406 -0.4181  0.0483
    6MOL   C216 1826   7.441   2.869   0.402 -0.4425 -0.1715  0.3918
    6MOL   C217 1827   7.571   2.846   0.358  1.1994  0.1381  0.3087
    6MOL   H218 1828   7.745   2.823   0.083  0.1877  0.6750  1.1855
    6MOL   H219 1829   7.782   2.873   0.234 -1.6116  0.9021 -0.1716
    6MOL   H220 1830   7.506   2.708   0.056 -1.2381 -0.2923 -0.2873
    6MOL   H221 1831   7.262   2.751   0.141  0.0055 -1.1685 -1.4740
    6MOL   H222 1832   7.130   2.786   0.321  0.3181  0.9656 -1.9056
    6MOL   H223 1833   7.199   2.821   0.477  0.1354 -2.9194 -0.7081
    6MOL   H224 1834   7.437   2.925   0.494 -1.2083  0.1336  0.1763
    6MOL   H225 1835   7.657   2.872   0.418  2.6076 -3.3271 -0.0910
    6MOL   C226 1836   7.150   2.994   0.351 -0.3638  0.2633  0.5210
    6MOL   C227 1837   7.004   3.009   0.372  0.0612  0.4473  0.8235
    6MOL   C228 1838   6.919   2.990   0.263  0.1162  0.0430 -0.2770
    6MOL   C229 1839   6.778   2.989   0.289 -0.7416  0.7258 -0.0309
    6MOL   C230 1840   6.727   2.998   0.422 -0.5745  0.7094  0.2536
    6MOL   C231 1841   6.577   3.001   0.450 -0.8753  0.2899  0.9216
    6MOL   C232 1842   6.817   3.018   0.531  0.3798  0.4168  0.0170
    6MOL   C233 1843   6.955   3.012   0.503 -0.0585 -1.0829 -0.3798
    6MOL   H234 1844   7.175   3.032   0.252 -1.6154 -0.7000 -0.1849
    6MOL   H235 1845   7.195   3.061   0.425  0.4309  0.9251 -0.5570
    6MOL   H236 1846   6.948   2.980   0.160  0.5216  0.0779 -0.1687
    6MOL   H237 1847   6.704   2.969   0.212 -2.6332  1.2271  1.5957
    6MOL   H238 1848   6.533   2.935   0.375  3.5199 -0.9316 -0.7387
    6MOL   H239 1849   6.549   2.955   0.545 -1.7029  0.8056  0.9297
    6MOL   H240 1850   6.790   3.026   0.636 -1.3406  2.6663 -0.5578
    6MOL   H241 1851   7.023   3.018   0.586  0.4253 -0.3982 -0.8240
    6MOL   C242 1852   6.535   3.152   0.440  0.5655  0.2157  0.4311
    6MOL   C243 1853   6.387   3.169   0.413  0.0296  0.2996 -0.3984
    6MOL   C244 1854   6.296   3.144   0.521  0.2566  0.0304  0.5641
    6MOL   C245 1855   6.158   3.152   0.498  0.2325 -0.9347 -0.0602
    6MOL   C246 1856   6.105   3.177   0.369  0.0094  0.2161 -0.3015
    6MOL   C247 1857   5.957   3.181   0.347 -0.3011  0.5849  0.4347
    6MOL   C248 1858   6.198   3.195   0.264  0.5980  0.5825 -0.0931
    6MOL   C249 1859   6.335   3.191   0.282 -0.1232  0.1405  0.1524
    6MOL   H250 1860   6.566   3.199   0.534 -1.6652 -0.1276  1.3610
    6MOL   H251 1861   6.578   3.207   0.357  0.5846  2.9685  2.2041
    6MOL   H252 1862   6.329   3.108   0.618  0.8128 -0.7175  0.1086
    6MOL   H253 1863   6.092   3.130   0.580  0.0962  1.1814  0.4288
    6MOL   H254 1864   5.930   3.180   0.241  0.8427 -3.4467  0.0868
    6MOL   H255 1865   5.903   3.093   0.381  1.9799 -1.5076 -1.1606
    6MOL   H256 1866   6.164   3.198   0.161  0.5536 -0.7134 -0.1238
    6MOL   H257 1867   6.401   3.213   0.200 -1.7793  2.5788 -0.6029
    6MOL   C258 1868   5.907   3.316   0.409  0.2111 -0.1263 -0.0835
    6MOL   C259 1869   5.761   3.327   0.433  0.1488  0.3284 -0.1785
    6MOL   C260 1870   5.661   3.331   0.334  0.1110  0.6953  0.6119
    6MOL   C261 1871   5.522   3.342   0.356  0.1628 -1.0655 -0.7424
    6MOL   C262 1872   5.477   3.346   0.489  0.2536 -0.1463  0.3779
    6MOL   C263 1873   5.332   3.346   0.527  0.9252 -0.8659  0.4905
    6MOL   C264 1874   5.574   3.344   0.594  0.0396  0.1427 -0.7188
    6MOL   C265 1875   5.713   3.332   0.563 -0.5104 -0.3462  0.2255
    6MOL   H266 1876   5.935   3.406   0.353 -3.7938  0.7720 -0.7930
    6MOL   H267 1877   5.955   3.326   0.506 -0.6675  0.6363  0.2797
    6MOL   H268 1878   5.700   3.321   0.233 -0.0475  1.1450  0.5091
    6MOL   H269 1879   5.451   3.351   0.275 -0.8547 -1.3602  0.1055
    6MOL   H270 1880   5.285   3.255   0.490  2.4287 -0.3598 -2.8872
    6MOL   H271 1881   5.306   3.351   0.633 -3.8567  0.7709 -0.6280
    6MOL   H272 1882   5.555   3.351   0.700  1.3693  1.3344 -0.5343
    6MOL   H273 1883   5.778   3.323   0.648 -0.0209  1.4113  0.0765
    6MOL   C274 1884   5.272   3.474   0.460  0.4501 -0.1674 -0.3080
    6MOL   C275 1885   5.132   3.499   0.481  0.1518 -0.6773 -0.5985
    6MOL   C276 1886   5.040   3.500   0.374  0.5319 -0.0499 -0.3153
    6MOL   C277 1887   4.900   3.533   0.396  0.2510  0.7551 -0.1014
    6MOL   C278 1888   4.855   3.581   0.520  0.2840 -0.4692  0.7011
    6MOL   C279 1889   4.711   3.629   0.540  0.1148 -0.8501  0.1301
    6MOL   C280 1890   4.941   3.580   0.626  0.3988 -0.5418  0.7244
    6MOL   C281 1891   5.077   3.541   0.609 -0.5843  0.0920  0.5814
    6MOL   H282 1892   5.332   3.553   0.505  1.0515 -1.0528  0.4730
    6MOL   H283 1893   5.291   3.485   0.353  2.7269  1.9907  0.2591
    6MOL   H284 1894   5.076   3.475   0.275 -0.9489  0.5108 -1.0223
    6MOL   H285 1895   4.828   3.526   0.316  0.2398  0.4772 -0.0681
    6MOL   H286 1896   4.650   3.590   0.458  2.6909 -1.5491 -1.5244
    6MOL   H287 1897   4.673   3.585   0.632  1.7485  1.1614  1.8043
    6MOL   H288 1898   4.896   3.621   0.716  1.0879 -1.5467  1.5398
    6MOL   H289 1899   5.146   3.553   0.691 -1.8866 -0.1277  1.7365
    6MOL   C290 1900   4.713   3.784   0.553  0.0783 -0.1378  0.3437
    6MOL   C291 1901   4.594   3.845   0.631  0.0359 -0.1735 -0.5093
    6MOL   C292 1902   4.606   3.912   0.754 -0.0924 -0.3314 -0.5722
    6MOL   C293 1903   4.491   3.971   0.814 -0.3554 -0.6901 -0.4810
    6MOL   C294 1904   4.363   3.952   0.762  0.3550 -0.4783 -0.2376
    6MOL   C295 1905   4.241   4.019   0.820  0.5618  0.7178  0.0887
    6MOL   C296 1906   4.350   3.878   0.642  0.4734 -0.5410  0.5330
    6MOL   C297 1907   4.464   3.824   0.584 -0.6326  0.2858  0.4562
    6MOL   H298 1908   4.716   3.818   0.449 -0.0109 -1.1141  0.0175
    6MOL   H299 1909   4.803   3.825   0.599 -0.3538  1.0645  0.1284
    6MOL   H300 1910   4.704   3.922   0.798 -1.0934  0.6185  1.5456
    6MOL   H301 1911   4.507   4.026   0.906 -0.3453 -0.5979 -0.5380
    6MOL   H302 1912   4.155   3.953   0.827  0.0109  1.2713 -1.3201
    6MOL   H303 1913   4.267   4.043   0.923 -0.3603 -0.4600  0.6023
    6MOL   H304 1914   4.250   3.856   0.610  0.9676  1.2453 -2.4198
    6MOL   H305 1915   4.455   3.772   0.490 -0.2589  0.6724  0.2060
    6MOL   C306 1916   4.203   4.149   0.755 -0.4450  0.2689  0.7202
    6MOL   C307 1917   4.101   4.227   0.837  0.8457  0.5187  0.4365
    6MOL   C308 1918   3.968   4.214   0.812  0.6800  0.0322  0.3247
    6MOL   C309 1919   3.870   4.283   0.880  0.1843  0.0909 -0.0619
    6MOL   C310 1920   3.909   4.379   0.972  0.1740 -0.8775  1.4470
    6MOL   C311 1921   3.818   4.471   1.049  0.2027 -0.5241 -0.1871
    6MOL   C312 1922   4.047   4.398   1.001  0.3734  0.4601 -0.1408
    6MOL   C313 1923   4.141   4.318   0.936  0.1732  0.5813 -0.0183
    6MOL   H314 1924   4.162   4.144   0.654 -0.4465 -0.7226  0.7623
    6MOL   H315 1925   4.299   4.199   0.741 -0.2081 -0.7672 -1.7882
    6MOL   H316 1926   3.925   4.141   0.745 -0.2547  0.8396  0.0230
    6MOL   H317 1927   3.767   4.254   0.863  1.2054 -1.5353 -4.1404
    6MOL   H318 1928   3.874   4.561   1.075 -1.3688  0.4680 -0.1640
    6MOL   H319 1929   3.735   4.506   0.987  2.0692  0.7350 -2.0190
    6MOL   H320 1930   4.083   4.476   1.067  0.5479  0.0608  0.2449
    6MOL   H321 1931   4.246   4.333   0.952  0.8014 -3.3387 -0.0200
    6MOL   H322 1932   3.768   4.420   1.132  1.3407 -0.3459  0.6198
    7MOL     C1 1933   5.165   4.833   6.372  0.4329  0.0016 -0.5999
    7MOL     C2 1934   5.025   4.846   6.423 -0.6738 -0.1022 -0.0159
    7MOL     C3 1935   4.947   4.729   6.448  0.5902 -0.3067 -0.2611
    7MOL     C4 1936   4.812   4.734   6.490  0.1949 -0.4648 -0.8326
    7MOL     C5 1937   4.762   4.860   6.527  0.1337 -0.4984  0.4597
    7MOL     C6 1938   4.620   4.871   6.599  0.0411 -0.0692 -0.2988
    7MOL     C7 1939   4.837   4.985   6.502 -0.2817  0.3410  0.3065
    7MOL     C8 1940   4.967   4.973   6.439 -0.4633  0.2793  0.2552
    7MOL     H9 1941   5.223   4.872   6.455  1.4404 -1.7037 -0.4718
    7MOL    H10 1942   5.190   4.730   6.344 -1.8028 -1.7754  3.5056
    7MOL    H11 1943   4.977   4.628   6.426 -1.6584 -1.3263  1.2882
    7MOL    H12 1944   4.762   4.640   6.507 -0.8500  0.9322  4.7909
    7MOL    H13 1945   4.607   4.787   6.667 -0.5828  0.1396 -0.1630
    7MOL    H14 1946   4.609   4.968   6.648 -0.9481 -0.5478  0.4518
    7MOL    H15 1947   4.799   5.085   6.521  0.1917  0.3923  1.0020
    7MOL    H16 1948   5.026   5.061   6.414 -0.3138  0.4568  1.1927
    7MOL    H17 1949   5.179   4.901   6.288  1.6311 -0.3316 -0.6769
    7MOL    C18 1950   4.514   4.849   6.490 -0.8170 -0.4602 -1.0176
    7MOL    C19 1951   4.369   4.860   6.529 -0.1042  0.1543 -0.4875
    7MOL    C20 1952   4.283   4.938   6.453 -0.6969 -0.0023 -0.0634
    7MOL    C21 1953   4.147   4.954   6.482 -0.0806 -0.5985 -0.2102
    7MOL    C22 1954   4.093   4.878   6.588  0.5949  0.1195 -0.0525
    7MOL    C23 1955   3.948   4.899   6.628  0.2266 -0.5240 -0.0867
    7MOL    C24 1956   4.176   4.790   6.669 -1.0902 -0.4097  0.1486
    7MOL    C25 1957   4.313   4.780   6.632  0.2736  0.6961 -0.3600
    7MOL    H26 1958   4.538   4.924   6.415 -1.1419  1.0405  0.3534
    7MOL    H27 1959   4.528   4.751   6.443 -0.2920 -0.2989 -1.1968
    7MOL    H28 1960   4.329   5.005   6.381  2.1806 -1.4379  0.3985
    7MOL    H29 1961   4.084   5.020   6.425  0.0242  0.5858  1.0319
    7MOL    H30 1962   3.934   5.007   6.625  2.5921 -0.1549  0.7881
    7MOL    H31 1963   3.944   4.878   6.735 -0.8746  0.5558  0.0986
    7MOL    H32 1964   4.138   4.732   6.752  3.1223 -0.1528  2.3615
    7MOL    H33 1965   4.372   4.698   6.670 -2.0412 -1.4784 -1.3449
    7MOL    C34 1966   3.855   4.832   6.534 -0.0066  0.2444 -0.0767
    7MOL    C35 1967   3.712   4.842   6.583 -0.1677  0.2831 -0.6660
    7MOL    C36 1968   3.634   4.954   6.553 -0.6561 -1.2293  0.1009
    7MOL    C37 1969   3.505   4.970   6.603  0.9001  0.0887  0.1650
    7MOL    C38 1970   3.446   4.873   6.681  0.6973  0.1397 -0.3118
    7MOL    C39 1971   3.298   4.887   6.727  0.4657 -0.2563  0.1453
    7MOL    C40 1972   3.522   4.758   6.704  0.3419  1.2034  0.5226
    7MOL    C41 1973   3.652   4.739   6.657 -0.3139 -0.2326  0.7853
    7MOL    H42 1974   3.875   4.726   6.521  1.4333  0.7005 -1.8857
    7MOL    H43 1975   3.859   4.867   6.430 -0.8735 -0.8792 -0.4993
    7MOL    H44 1976   3.669   5.044   6.505  1.1658 -0.3444  2.9911
    7MOL    H45 1977   3.461   5.069   6.600  1.2655  0.2830  1.0062
    7MOL    H46 1978   3.285   4.844   6.826 -0.0390 -0.6513 -0.0852
    7MOL    H47 1979   3.266   4.991   6.732 -1.4833 -0.8725  1.2174
    7MOL    H48 1980   3.474   4.690   6.773 -1.2019 -0.1383 -1.7963
    7MOL    H49 1981   3.714   4.655   6.687  0.6690  0.5919  1.0849
    7MOL    C50 1982   3.200   4.823   6.623  0.3131 -1.0027 -0.2190
    7MOL    C51 1983   3.055   4.858   6.662  0.5236 -0.5064 -0.5761
    7MOL    C52 1984   3.013   4.990   6.680  0.3072 -0.0709 -0.7198
    7MOL    C53 1985   2.880   5.018   6.715 -0.4619 -0.4393  0.4797
    7MOL    C54 1986   2.780   4.915   6.725 -0.3044 -0.2789 -0.5699
    7MOL    C55 1987   2.642   4.943   6.778  0.3996  0.4685 -0.3538
    7MOL    C56 1988   2.827   4.780   6.699 -0.4115 -0.2635 -0.1423
    7MOL    C57 1989   2.958   4.754   6.658  0.0646  0.6324  0.2506
    7MOL    H58 1990   3.214   4.716   6.603 -1.3509 -1.2057 -0.3818
    7MOL    H59 1991   3.223   4.873   6.529 -4.3282  0.1310 -0.8646
    7MOL    H60 1992   3.078   5.076   6.674 -2.1571  1.9787  0.6122
    7MOL    H61 1993   2.859   5.122   6.730  2.9526  0.9323 -3.1220
    7MOL    H62 1994   2.613   4.857   6.839  0.4589 -0.0531 -1.0556
    7MOL    H63 1995   2.658   5.034   6.836  1.4219  0.4824 -0.6362
    7MOL    H64 1996   2.769   4.690   6.715  0.4946 -0.6637  0.9585
    7MOL    H65 1997   3.002   4.657   6.636  1.1823  0.8126  1.6375
    7MOL    C66 1998   2.535   4.967   6.671 -0.0190  0.7366 -0.1590
    7MOL    C67 1999   2.401   5.016   6.728  0.2425 -0.2537 -0.3943
    7MOL    C68 2000   2.309   4.928   6.783  0.4526  0.3417  0.0054
    7MOL    C69 2001   2.181   4.976   6.833  0.0473 -0.3667 -0.5279
    7MOL    C70 2002   2.153   5.115   6.829  0.1032  0.0288 -0.3932
    7MOL    C71 2003   2.021   5.168   6.881  0.0751 -0.3025 -0.0994
    7MOL    C72 2004   2.244   5.202   6.766  0.2391  0.5241  0.7932
    7MOL    C73 2005   2.367   5.148   6.722  0.7471  0.8478  0.8374
    7MOL    H74 2006   2.509   4.877   6.616 -1.4004 -1.0433  3.1965
    7MOL    H75 2007   2.559   5.039   6.593 -2.2132  1.5865 -0.0893
    7MOL    H76 2008   2.323   4.821   6.778  0.0739  0.2750  0.3092
    7MOL    H77 2009   2.115   4.906   6.881 -0.5610 -0.9007 -2.1203
    7MOL    H78 2010   2.037   5.260   6.937 -0.1882 -1.4155  1.8380
    7MOL    H79 2011   1.983   5.102   6.959 -1.4561  1.2934  0.5441
    7MOL    H80 2012   2.225   5.307   6.746  1.1324  0.4710 -0.3801
    7MOL    H81 2013   2.430   5.220   6.672 -0.9191  1.6596 -0.1062
    7MOL    C82 2014   1.928   5.200   6.766 -0.0526  0.1744  0.3816
    7MOL    C83 2015   1.799   5.253   6.809 -0.1490 -0.5152  0.2171
    7MOL    C84 2016   1.712   5.165   6.870 -0.1398 -0.0155  0.2680
    7MOL    C85 2017   1.584   5.202   6.902 -0.1427 -0.2906 -0.2789
    7MOL    C86 2018   1.549   5.339   6.883 -0.6463 -0.0377 -0.3856
    7MOL    C87 2019   1.404   5.379   6.922  0.4380 -0.2513 -0.2877
    7MOL    C88 2020   1.635   5.435   6.827 -0.3901  0.0079 -0.1912
    7MOL    C89 2021   1.763   5.384   6.787  0.0037  0.5022  0.0693
    7MOL    H90 2022   1.913   5.108   6.710  0.0246 -0.1686  0.9179
    7MOL    H91 2023   1.972   5.268   6.693  1.6572 -2.5616 -1.1995
    7MOL    H92 2024   1.745   5.063   6.886 -1.2688 -0.2600  1.0947
    7MOL    H93 2025   1.526   5.124   6.948 -0.6434  0.1710 -0.1253
    7MOL    H94 2026   1.413   5.460   6.995  0.3734  0.0912 -0.6578
    7MOL    H95 2027   1.353   5.298   6.974 -0.7474  0.3827 -0.4297
    7MOL    H96 2028   1.607   5.538   6.812  1.9982  0.6908 -0.1370
    7MOL    H97 2029   1.824   5.460   6.741 -1.5615  1.0580 -1.1525
    7MOL    C98 2030   1.313   5.410   6.803  0.1714 -0.2643 -0.6536
    7MOL    C99 2031   1.173   5.443   6.857 -0.2147  0.1750  0.3532
    7MOL   C100 2032   1.129   5.573   6.889 -0.2132  0.5148 -0.2063
    7MOL   C101 2033   0.999   5.595   6.937 -0.5424 -0.2605  1.0231
    7MOL   C102 2034   0.906   5.491   6.952 -0.0450 -0.4122 -0.1349
    7MOL   C103 2035   0.763   5.525   6.989 -0.5198 -0.3854  0.1468
    7MOL   C104 2036   0.948   5.358   6.922  0.4361  0.1958  0.3432
    7MOL   C105 2037   1.079   5.337   6.875  0.1914 -0.1751 -0.5235
    7MOL   H106 2038   1.299   5.332   6.729  1.9555 -0.8618 -0.3828
    7MOL   H107 2039   1.346   5.489   6.735  1.0204 -0.2750 -0.2695
    7MOL   H108 2040   1.197   5.654   6.865  2.1150 -1.6866 -1.3330
    7MOL   H109 2041   0.979   5.700   6.953  0.8718 -0.1484  2.1685
    7MOL   H110 2042   0.704   5.438   6.962 -1.7104  0.8042 -1.1656
    7MOL   H111 2043   0.761   5.531   7.098  1.3668 -0.3730  0.2041
    7MOL   H112 2044   0.896   5.265   6.941  1.1071  0.2651  2.6996
    7MOL   H113 2045   1.118   5.237   6.867  2.0606  0.4223  0.8668
    7MOL   C114 2046   0.700   5.651   6.929  0.0393  0.5085  0.0667
    7MOL   C115 2047   0.555   5.670   6.967 -0.3986  0.2863  0.0891
    7MOL   C116 2048   0.462   5.562   6.994 -0.3392  0.5966 -0.1413
    7MOL   C117 2049   0.325   5.579   7.036  0.1887 -0.3275  0.0941
    7MOL   C118 2050   0.284   5.714   7.032 -0.4649 -0.5049 -0.2129
    7MOL   C119 2051   0.139   5.742   7.069 -0.1804  0.5236  0.1087
    7MOL   C120 2052   0.366   5.823   6.999  0.5839 -0.3710  0.3740
    7MOL   C121 2053   0.505   5.799   6.968  0.8271 -0.6708  0.7801
    7MOL   H122 2054   0.694   5.639   6.821 -1.4203  0.2538  0.1677
    7MOL   H123 2055   0.771   5.728   6.957  0.6827 -0.0861  0.0890
    7MOL   H124 2056   0.488   5.458   6.978  0.3758  0.9663 -1.4809
    7MOL   H125 2057   0.255   5.497   7.031 -0.7871  0.6030 -2.6829
    7MOL   H126 2058   0.109   5.678   7.152  0.3254 -1.4994 -1.2102
    7MOL   H127 2059   0.142   5.843   7.110 -1.5349 -0.1013  1.8382
    7MOL   H128 2060   0.325   5.922   6.983  0.6023 -0.1184  1.8810
    7MOL   H129 2061   0.566   5.886   6.950  1.6865 -1.1576  1.2954
    7MOL   C130 2062   0.040   5.728   6.954  0.0367 -0.2014  0.8446
    7MOL   C131 2063  -0.100   5.770   6.995 -0.1788  0.9409  0.0639
    7MOL   C132 2064  -0.133   5.906   6.997  0.5791  1.1031 -0.6857
    7MOL   C133 2065  -0.263   5.940   7.039  0.4788  0.1376 -0.0002
    7MOL   C134 2066  -0.354   5.842   7.083 -0.2200 -0.6483  0.1054
    7MOL   C135 2067  -0.493   5.876   7.138  0.3592 -0.5687  0.0965
    7MOL   C136 2068  -0.323   5.701   7.072 -0.6113 -1.1453 -0.1938
    7MOL   C137 2069  -0.197   5.667   7.027 -0.3458 -0.7667  0.6108
    7MOL   H138 2070   0.035   5.622   6.930  0.2522  0.1147 -0.5995
    7MOL   H139 2071   0.063   5.786   6.865  0.9017 -1.0705  0.4929
    7MOL   H140 2072  -0.066   5.986   6.967  3.0327 -1.6795 -2.9427
    7MOL   H141 2073  -0.281   6.044   7.060  1.2368  0.3363 -0.3178
    7MOL   H142 2074  -0.541   5.802   7.201 -0.9561 -0.7291 -1.0646
    7MOL   H143 2075  -0.491   5.964   7.202 -1.5474 -0.2166 -0.2995
    7MOL   H144 2076  -0.387   5.625   7.114  0.5544 -2.0284 -0.0013
    7MOL   H145 2077  -0.169   5.563   7.021  3.2543  0.2413 -0.9324
    7MOL   C146 2078  -0.584   5.894   7.014  0.0271  0.0025 -0.0721
    7MOL   C147 2079  -0.734   5.922   7.053 -0.1624 -0.1944 -0.4571
    7MOL   C148 2080  -0.810   5.829   7.130  0.7769  0.3369 -0.5326
    7MOL   C149 2081  -0.946   5.845   7.170  0.7218  0.0548  0.1720
    7MOL   C150 2082  -1.005   5.961   7.120 -0.2053 -0.1196  0.0228
    7MOL   C151 2083  -1.148   5.986   7.151 -0.5094  0.7103  0.7296
    7MOL   C152 2084  -0.935   6.056   7.043  0.1505  0.1415 -0.0955
    7MOL   C153 2085  -0.799   6.040   7.013 -0.0028  0.1193  0.0255
    7MOL   H154 2086  -0.579   5.815   6.939 -0.2443  1.1877 -1.3570
    7MOL   H155 2087  -0.553   5.984   6.962  0.2062 -1.1660 -2.0197
    7MOL   H156 2088  -0.755   5.743   7.165  0.0585  0.8849  2.0377
    7MOL   H157 2089  -1.009   5.780   7.229  0.6311 -0.2880 -0.3002
    7MOL   H158 2090  -1.185   5.914   7.223  0.9126 -1.1794 -0.3791
    7MOL   H159 2091  -1.134   6.083   7.199  1.2162  1.0404 -0.3798
    7MOL   H160 2092  -0.993   6.143   7.018  2.0757  1.0028 -1.6920
    7MOL   H161 2093  -0.741   6.104   6.948  0.6182 -2.0441 -1.5934
    7MOL   C162 2094  -1.248   5.977   7.034  0.5862 -0.2600  0.4295
    7MOL   C163 2095  -1.383   6.021   7.088  0.3443 -0.3335  0.0630
    7MOL   C164 2096  -1.501   5.960   7.037 -0.5365  0.2252 -0.0663
    7MOL   C165 2097  -1.626   5.999   7.079  0.2719  0.3030  0.6430
    7MOL   C166 2098  -1.640   6.114   7.163  0.1304 -0.1737 -0.3096
    7MOL   C167 2099  -1.780   6.151   7.217  0.0364 -0.3356 -0.6496
    7MOL   C168 2100  -1.526   6.188   7.199  0.5105  0.6679 -0.2562
    7MOL   C169 2101  -1.400   6.143   7.166 -0.1835  0.3605  0.1339
    7MOL   H170 2102  -1.243   5.877   6.990  1.2265 -0.4336  0.8761
    7MOL   H171 2103  -1.224   6.047   6.954  0.3646 -0.7655 -0.0824
    7MOL   H172 2104  -1.491   5.876   6.970  0.0343 -1.3684  1.9771
    7MOL   H173 2105  -1.711   5.940   7.049  1.1461 -0.9397  0.6033
    7MOL   H174 2106  -1.822   6.082   7.291  1.4423 -0.0346  0.4347
    7MOL   H175 2107  -1.769   6.237   7.282  1.8439 -0.8800 -0.2221
    7MOL   H176 2108  -1.537   6.273   7.266  1.1766  1.0803 -0.6614
    7MOL   H177 2109  -1.311   6.200   7.189  0.3510  0.3361 -1.7761
    7MOL   C178 2110  -1.901   6.184   7.121 -0.5665 -0.1004  0.2333
    7MOL   C179 2111  -2.034   6.205   7.195 -0.3426 -0.5461  0.1295
    7MOL   C180 2112  -2.062   6.334   7.236  0.0202 -0.2175 -0.1378
    7MOL   C181 2113  -2.190   6.356   7.291 -0.4385 -0.1765 -0.2871
    7MOL   C182 2114  -2.281   6.247   7.311 -0.4626 -0.6232 -0.1482
    7MOL   C183 2115  -2.404   6.269   7.397  0.7881  0.4760  0.6432
    7MOL   C184 2116  -2.239   6.119   7.280  0.2198 -0.2556 -0.3317
    7MOL   C185 2117  -2.123   6.096   7.212 -0.1314 -0.5508  0.0695
    7MOL   H186 2118  -1.907   6.093   7.060  0.9111  0.8398 -1.3727
    7MOL   H187 2119  -1.869   6.268   7.059 -1.4559 -0.6874 -1.0657
    7MOL   H188 2120  -2.002   6.423   7.223  0.7098 -1.0162 -2.7627
    7MOL   H189 2121  -2.218   6.456   7.321 -3.7159 -0.2267 -2.9225
    7MOL   H190 2122  -2.420   6.190   7.471 -1.1325 -0.0242 -0.2770
    7MOL   H191 2123  -2.405   6.367   7.445  1.3726 -0.4880  2.6680
    7MOL   H192 2124  -2.298   6.034   7.312 -1.6031  1.0832 -0.0703
    7MOL   H193 2125  -2.079   6.003   7.181  0.2846  0.0215 -1.1199
    7MOL   C194 2126  -2.528   6.257   7.314 -0.0521 -0.2381  0.1574
    7MOL   C195 2127  -2.647   6.289   7.396 -0.1793  0.5834 -0.5063
    7MOL   C196 2128  -2.708   6.190   7.487 -0.0489 -0.6707  0.6682
    7MOL   C197 2129  -2.815   6.240   7.571 -0.1615  0.8091 -0.3212
    7MOL   C198 2130  -2.861   6.370   7.561 -0.2098 -0.1539 -0.3458
    7MOL   C199 2131  -2.976   6.416   7.650 -0.3182 -0.1794  0.3001
    7MOL   C200 2132  -2.806   6.458   7.471 -0.0999  0.0468 -0.7347
    7MOL   C201 2133  -2.698   6.420   7.393 -0.6588 -0.0106 -0.8587
    7MOL   H202 2134  -2.536   6.156   7.273  0.5866  0.1041 -0.8334
    7MOL   H203 2135  -2.512   6.325   7.231  1.2918 -0.8229 -0.0895
    7MOL   H204 2136  -2.678   6.086   7.486 -4.4240 -2.0430  0.0746
    7MOL   H205 2137  -2.871   6.172   7.633  0.6775  0.4687  0.0716
    7MOL   H206 2138  -2.963   6.373   7.750  0.8035 -0.2579  0.1296
    7MOL   H207 2139  -2.957   6.521   7.670  1.1461 -0.1580 -1.1001
    7MOL   H208 2140  -2.841   6.559   7.458 -0.6354  0.2690  2.0673
    7MOL   H209 2141  -2.652   6.486   7.321 -1.1482  1.3314  0.0578
    7MOL   C210 2142  -3.115   6.385   7.588 -0.0715  0.9286 -0.5681
    7MOL   C211 2143  -3.226   6.446   7.670 -0.5483  0.1271 -0.1938
    7MOL   C212 2144  -3.270   6.580   7.645  0.1657 -0.4466  0.5765
    7MOL   C213 2145  -3.364   6.639   7.726 -0.2153 -0.2573  0.0261
    7MOL   C214 2146  -3.415   6.566   7.834  0.0488  0.0875  0.9338
    7MOL   C215 2147  -3.510   6.629   7.929 -0.1888  0.1969  0.2419
    7MOL   C216 2148  -3.368   6.435   7.869  0.2983  0.0574 -0.4582
    7MOL   C217 2149  -3.270   6.378   7.790 -0.0160 -0.3731  0.1372
    7MOL   H218 2150  -3.134   6.278   7.581 -0.2027  1.0203 -1.7278
    7MOL   H219 2151  -3.114   6.431   7.489  1.5867  1.3180 -0.3914
    7MOL   H220 2152  -3.240   6.627   7.553 -2.6797  1.4115  0.5698
    7MOL   H221 2153  -3.397   6.737   7.693 -0.7358 -0.8292 -1.2081
    7MOL   H222 2154  -3.474   6.625   8.032 -0.6207 -0.5681  0.3627
    7MOL   H223 2155  -3.533   6.730   7.895  0.0029  0.2625  0.3080
    7MOL   H224 2156  -3.387   6.383   7.962 -2.0948 -1.9179 -1.9988
    7MOL   H225 2157  -3.216   6.288   7.817 -1.0272 -0.3763  2.2516
    7MOL   C226 2158  -3.654   6.568   7.934  0.2027  0.7359  0.3976
    7MOL   C227 2159  -3.745   6.600   8.052 -0.0454 -1.2985  0.4000
    7MOL   C228 2160  -3.836   6.705   8.043  0.0061 -0.4452  0.3214
    7MOL   C229 2161  -3.927   6.735   8.149 -0.7414  0.2944  0.4029
    7MOL   C230 2162  -3.935   6.649   8.256 -0.2927  0.0663 -0.2496
    7MOL   C231 2163  -4.032   6.685   8.371 -0.3535  0.0665  0.3781
    7MOL   C232 2164  -3.846   6.538   8.268  0.2084 -0.0347 -0.5180
    7MOL   C233 2165  -3.751   6.518   8.163  0.3392 -0.3257 -0.5883
    7MOL   H234 2166  -3.644   6.461   7.953 -0.3459  0.5948 -0.0810
    7MOL   H235 2167  -3.710   6.589   7.843 -0.0710  2.7664  1.0106
    7MOL   H236 2168  -3.829   6.769   7.956 -0.5381 -3.5675 -2.0688
    7MOL   H237 2169  -3.987   6.824   8.134 -1.9150 -0.5742 -0.1819
    7MOL   H238 2170  -4.112   6.749   8.333 -0.2006  1.1058  1.7628
    7MOL   H239 2171  -4.087   6.598   8.407  0.8981 -1.0438 -0.3552
    7MOL   H240 2172  -3.856   6.463   8.346 -0.6284  2.2013  1.5831
    7MOL   H241 2173  -3.676   6.442   8.180  0.2283 -0.1601  0.7074
    7MOL   C242 2174  -3.968   6.753   8.499  0.7972 -0.0575 -1.0452
    7MOL   C243 2175  -3.844   6.692   8.553 -0.3871 -0.5869  0.6679
    7MOL   C244 2176  -3.849   6.572   8.629  0.5312  0.1208 -0.3974
    7MOL   C245 2177  -3.725   6.518   8.672  0.8945  0.2159 -0.4817
    7MOL   C246 2178  -3.606   6.582   8.633  0.5757  0.4375  0.3300
    7MOL   C247 2179  -3.473   6.520   8.648 -0.8396  0.8732  0.8368
    7MOL   C248 2180  -3.604   6.702   8.560 -0.3223  0.1550  0.3458
    7MOL   C249 2181  -3.726   6.760   8.523  0.6057 -0.3238 -0.9204
    7MOL   H250 2182  -3.939   6.856   8.476  0.3135  0.1633 -0.7019
    7MOL   H251 2183  -4.046   6.764   8.575 -0.6494  1.8335 -2.7200
    7MOL   H252 2184  -3.947   6.528   8.640  1.0777 -1.5706 -2.0648
    7MOL   H253 2185  -3.723   6.433   8.739 -0.5345  0.1678 -0.4813
    7MOL   H254 2186  -3.396   6.588   8.613  0.1968 -1.4719 -1.6499
    7MOL   H255 2187  -3.454   6.498   8.753 -1.2499 -0.3982  0.6597
    7MOL   H256 2188  -3.516   6.761   8.540 -0.8032  0.3119 -1.3455
    7MOL   H257 2189  -3.723   6.854   8.468 -0.3233  1.1888  1.5488
    7MOL   C258 2190  -3.469   6.397   8.558 -0.4511  0.6583 -0.7441
    7MOL   C259 2191  -3.338   6.323   8.585  0.0337 -0.3221  0.2299
    7MOL   C260 2192  -3.223   6.357   8.511  0.1911  0.1915  0.7965
    7MOL   C261 2193  -3.101   6.287   8.532 -0.3365 -0.6536 -0.8536
    7MOL   C262 2194  -3.101   6.166   8.603 -0.6165 -0.0904  0.2565
    7MOL   C263 2195  -2.964   6.089   8.619  0.1049  0.2233  0.2404
    7MOL   C264 2196  -3.218   6.127   8.677 -0.2397 -0.0092 -0.0495
    7MOL   C265 2197  -3.338   6.206   8.663 -0.3162 -0.3169  0.6131
    7MOL   H266 2198  -3.475   6.425   8.453  0.7950 -2.6847 -1.7860
    7MOL   H267 2199  -3.537   6.318   8.589 -1.1228  0.9695 -1.4417
    7MOL   H268 2200  -3.214   6.448   8.454 -4.1110 -0.2338 -0.7374
    7MOL   H269 2201  -3.012   6.326   8.483 -0.6351  2.7821  1.1632
    7MOL   H270 2202  -2.967   6.002   8.554  2.0027  1.7766 -2.0101
    7MOL   H271 2203  -2.886   6.149   8.572  0.9655 -0.4520  0.8010
    7MOL   H272 2204  -3.218   6.039   8.740 -0.0735  0.5092  0.6720
    7MOL   H273 2205  -3.421   6.168   8.722  1.3606 -0.7232  2.7966
    7MOL   C274 2206  -2.924   6.055   8.757 -0.0192 -0.2964 -0.1477
    7MOL   C275 2207  -2.783   5.994   8.753  0.3775  0.1807 -0.2920
    7MOL   C276 2208  -2.670   6.068   8.787  0.0267 -0.8213  0.0122
    7MOL   C277 2209  -2.537   6.018   8.779  0.7076  0.4780 -0.2132
    7MOL   C278 2210  -2.524   5.884   8.735 -0.3811  0.4793  0.9024
    7MOL   C279 2211  -2.380   5.817   8.737  0.1140 -0.3745  0.0291
    7MOL   C280 2212  -2.637   5.811   8.697 -0.2646 -0.0224 -0.0154
    7MOL   C281 2213  -2.767   5.864   8.709  0.4226 -0.4199 -0.1990
    7MOL   H282 2214  -2.922   6.142   8.823  1.4905 -1.1094  0.9165
    7MOL   H283 2215  -2.990   5.978   8.799  0.2309  0.2047  1.1995
    7MOL   H284 2216  -2.681   6.173   8.811 -0.0184 -1.2121  1.8067
    7MOL   H285 2217  -2.454   6.082   8.803 -0.4532  1.6483  0.7787
    7MOL   H286 2218  -2.312   5.900   8.752 -1.5838  1.3462 -1.5592
    7MOL   H287 2219  -2.367   5.758   8.829 -0.4761  2.0738  1.7360
    7MOL   H288 2220  -2.627   5.704   8.681 -1.0686  0.0137 -0.7472
    7MOL   H289 2221  -2.847   5.801   8.674  2.1310 -2.8006  0.0596
    7MOL   C290 2222  -2.341   5.745   8.605  0.0322 -0.4149  0.0570
    7MOL   C291 2223  -2.207   5.676   8.604 -0.0039  0.3330 -0.1512
    7MOL   C292 2224  -2.181   5.572   8.513 -0.5071  0.6670  0.3654
    7MOL   C293 2225  -2.056   5.510   8.516 -0.3978  0.2579 -0.5076
    7MOL   C294 2226  -1.956   5.555   8.606 -0.1782 -0.5218  0.2012
    7MOL   C295 2227  -1.824   5.472   8.606  0.1287 -0.0173 -0.3726
    7MOL   C296 2228  -1.986   5.660   8.690 -0.0808 -0.6648  0.1012
    7MOL   C297 2229  -2.109   5.728   8.692 -0.0136 -0.0917  0.6161
    7MOL   H298 2230  -2.346   5.813   8.520 -3.2938 -0.8592 -0.1752
    7MOL   H299 2231  -2.426   5.685   8.574  0.0727 -0.7392  0.5639
    7MOL   H300 2232  -2.256   5.538   8.443 -0.4206 -0.2522  0.7128
    7MOL   H301 2233  -2.034   5.424   8.453  2.6184  0.2913  0.3977
    7MOL   H302 2234  -1.838   5.374   8.649 -0.4773  1.5067  3.0157
    7MOL   H303 2235  -1.811   5.450   8.500 -3.8405 -0.1672 -0.8988
    7MOL   H304 2236  -1.910   5.693   8.759 -1.9157  1.1853  1.2829
    7MOL   H305 2237  -2.125   5.815   8.754 -1.7420  2.2547 -3.0069
    7MOL   C306 2238  -1.706   5.550   8.642 -0.3439 -0.0124 -0.0097
    7MOL   C307 2239  -1.571   5.480   8.630  0.3995 -0.7828 -0.1225
    7MOL   C308 2240  -1.532   5.375   8.715  0.3088  0.0447 -0.0906
    7MOL   C309 2241  -1.409   5.313   8.700  0.0305  0.3559  0.5946
    7MOL   C310 2242  -1.320   5.355   8.600  0.2092  0.1029  0.8825
    7MOL   C311 2243  -1.200   5.275   8.567  0.1989 -0.0811 -0.0821
    7MOL   C312 2244  -1.356   5.465   8.519 -0.3435 -0.0958  0.7655
    7MOL   C313 2245  -1.477   5.536   8.537 -0.6198  0.2396  0.8076
    7MOL   H314 2246  -1.722   5.583   8.745 -0.5719  0.4006 -0.1788
    7MOL   H315 2247  -1.711   5.639   8.580 -0.8923  0.5863  0.8739
    7MOL   H316 2248  -1.596   5.330   8.789  0.5982  0.8514  0.6681
    7MOL   H317 2249  -1.379   5.226   8.758  0.8091 -0.4882 -1.0391
    7MOL   H318 2250  -1.125   5.332   8.513 -0.3963  1.0922  0.3176
    7MOL   H319 2251  -1.143   5.251   8.657  1.1320  1.2491 -0.3134
    7MOL   H320 2252  -1.289   5.504   8.444 -0.2808  0.7696  1.2694
    7MOL   H321 2253  -1.510   5.621   8.478 -0.6627  0.9849  1.9052
    7MOL   H322 2254  -1.235   5.186   8.514  0.7089 -0.2854 -0.0775
    8MOL     C1 2255   6.793   4.703   2.755  0.2228 -0.4789  0.1835
    8MOL     C2 2256   6.656   4.759   2.729  0.2646 -0.8588 -0.4762
    8MOL     C3 2257   6.628   4.823   2.605  0.4460 -0.3376 -0.1129
    8MOL     C4 2258   6.496   4.878   2.587 -0.3648 -0.1509  0.4570
    8MOL     C5 2259   6.397   4.883   2.686 -0.4327  0.1631  0.2151
    8MOL     C6 2260   6.254   4.931   2.656 -0.1940 -0.0526 -0.2414
    8MOL     C7 2261   6.427   4.813   2.803 -0.1874 -0.1139  0.2222
    8MOL     C8 2262   6.555   4.754   2.828  0.2800  0.0953  0.2223
    8MOL     H9 2263   6.846   4.777   2.814 -1.3990  0.1825  0.8478
    8MOL    H10 2264   6.795   4.599   2.789  3.1275 -0.7576 -0.6837
    8MOL    H11 2265   6.701   4.813   2.526  0.9984 -1.4196  0.5316
    8MOL    H12 2266   6.473   4.919   2.489  1.2267  2.3049  1.0718
    8MOL    H13 2267   6.208   4.989   2.736 -0.2457  0.5904 -0.7419
    8MOL    H14 2268   6.257   5.009   2.580  1.6587 -0.3878 -0.5403
    8MOL    H15 2269   6.344   4.807   2.872 -0.4496  1.2921  0.0416
    8MOL    H16 2270   6.567   4.702   2.922 -1.5432  2.5765  1.9051
    8MOL    H17 2271   6.849   4.700   2.661 -0.7834  1.3842 -0.5005
    8MOL    C18 2272   6.162   4.819   2.606  0.2481  0.2705  0.3456
    8MOL    C19 2273   6.023   4.867   2.561 -0.1066 -0.1130 -0.4364
    8MOL    C20 2274   5.991   4.882   2.427 -0.1104 -0.5752  0.3311
    8MOL    C21 2275   5.861   4.936   2.391  0.5484  0.9530  0.6693
    8MOL    C22 2276   5.776   4.981   2.493 -0.5164  0.1813  0.1777
    8MOL    C23 2277   5.645   5.039   2.456 -0.5461  0.1908  0.2143
    8MOL    C24 2278   5.818   4.971   2.629  0.0932 -0.3623 -0.2190
    8MOL    C25 2279   5.942   4.915   2.657 -0.2628  0.7555  0.2996
    8MOL    H26 2280   6.206   4.768   2.520  0.7923 -0.1218  0.8598
    8MOL    H27 2281   6.155   4.732   2.671 -0.7591 -0.6039 -0.8972
    8MOL    H28 2282   6.059   4.850   2.349 -0.8811 -0.1411 -0.5400
    8MOL    H29 2283   5.826   4.951   2.290 -0.2589 -1.5732  0.5356
    8MOL    H30 2284   5.649   5.087   2.359  0.5301  4.2306  2.1584
    8MOL    H31 2285   5.615   5.114   2.529 -2.5962  1.7925 -2.1653
    8MOL    H32 2286   5.765   5.024   2.706  1.9088 -0.5469  1.1833
    8MOL    H33 2287   5.975   4.913   2.760  0.7365  0.2394 -0.0239
    8MOL    C34 2288   5.532   4.940   2.461  0.6928 -0.0347  0.0031
    8MOL    C35 2289   5.389   5.007   2.451  0.5136 -0.5646  0.0959
    8MOL    C36 2290   5.359   5.094   2.342  0.8077  0.5408 -1.0915
    8MOL    C37 2291   5.236   5.162   2.341 -0.3497  0.7187  0.2696
    8MOL    C38 2292   5.131   5.126   2.431  0.1070 -0.1868 -0.2912
    8MOL    C39 2293   4.996   5.196   2.427 -0.3279  0.9279 -0.3645
    8MOL    C40 2294   5.157   5.027   2.529 -0.5258  0.1654  0.4159
    8MOL    C41 2295   5.288   4.971   2.543  0.2216 -0.2547  0.1878
    8MOL    H42 2296   5.538   4.896   2.561  1.8420  1.6526  0.7003
    8MOL    H43 2297   5.538   4.852   2.396 -3.1172  0.0673 -0.5999
    8MOL    H44 2298   5.438   5.127   2.276  3.6830 -0.3953  1.7064
    8MOL    H45 2299   5.216   5.240   2.269  1.9003 -0.3253 -1.5423
    8MOL    H46 2300   4.934   5.162   2.510  0.6104  1.7524  0.6783
    8MOL    H47 2301   5.023   5.298   2.453  0.3806  0.6224  0.0857
    8MOL    H48 2302   5.082   4.999   2.602  0.6408 -2.4541  0.6340
    8MOL    H49 2303   5.306   4.902   2.624 -2.1692 -2.5973 -1.1971
    8MOL    C50 2304   4.905   5.172   2.301 -0.8670 -0.4389 -0.7096
    8MOL    C51 2305   4.772   5.234   2.311  0.4508  0.8813  0.4344
    8MOL    C52 2306   4.675   5.168   2.397  0.5713  0.0243  0.3782
    8MOL    C53 2307   4.551   5.225   2.403 -0.7154  0.6238  0.2136
    8MOL    C54 2308   4.526   5.358   2.356  0.8646 -0.7532 -0.1346
    8MOL    C55 2309   4.398   5.429   2.386  0.5432  0.1098  0.6352
    8MOL    C56 2310   4.624   5.417   2.280 -0.3029  0.2753 -0.3724
    8MOL    C57 2311   4.741   5.352   2.245  0.0321  0.6072 -0.0303
    8MOL    H58 2312   4.872   5.070   2.285 -0.6013 -0.2871 -2.3382
    8MOL    H59 2313   4.950   5.222   2.215  1.7689 -0.2917  0.6748
    8MOL    H60 2314   4.680   5.070   2.442  0.1782  0.7996  2.1463
    8MOL    H61 2315   4.480   5.176   2.468 -0.9920 -1.5845 -1.6749
    8MOL    H62 2316   4.361   5.397   2.484  0.2791 -1.6288 -0.0038
    8MOL    H63 2317   4.410   5.536   2.398 -0.1518  0.3255 -0.5639
    8MOL    H64 2318   4.612   5.513   2.232  3.0106  1.2490  0.5905
    8MOL    H65 2319   4.817   5.400   2.184 -0.5374  1.1643 -0.3009
    8MOL    C66 2320   4.298   5.397   2.275  0.6403  0.0061 -1.2619
    8MOL    C67 2321   4.166   5.473   2.291  0.4860 -0.2768 -0.2294
    8MOL    C68 2322   4.155   5.611   2.248 -0.6701 -0.3326  0.1309
    8MOL    C69 2323   4.034   5.680   2.264  0.0392  0.4036  0.1295
    8MOL    C70 2324   3.916   5.614   2.311  0.7159  0.0745  0.3496
    8MOL    C71 2325   3.786   5.694   2.327  0.2625  0.6734 -0.7690
    8MOL    C72 2326   3.926   5.476   2.346  0.0983 -0.1804 -0.2374
    8MOL    C73 2327   4.047   5.407   2.337 -0.2802  0.3966  0.0685
    8MOL    H74 2328   4.273   5.291   2.273 -0.4822  0.2757 -1.7223
    8MOL    H75 2329   4.337   5.425   2.178 -0.1040  3.2246 -0.7035
    8MOL    H76 2330   4.239   5.657   2.199 -1.1676  0.5689  0.1139
    8MOL    H77 2331   4.032   5.785   2.235  3.0045  0.7540  1.0282
    8MOL    H78 2332   3.806   5.800   2.312 -1.1632  1.2727  1.2741
    8MOL    H79 2333   3.764   5.681   2.433 -1.3086  0.6259 -1.0848
    8MOL    H80 2334   3.838   5.422   2.379 -0.1229  0.6902  0.6427
    8MOL    H81 2335   4.058   5.303   2.364 -2.4267  0.1562  0.1017
    8MOL    C82 2336   3.668   5.640   2.248 -0.6865 -0.0444 -0.3346
    8MOL    C83 2337   3.551   5.733   2.249 -0.4025  0.0104 -0.5923
    8MOL    C84 2338   3.526   5.818   2.141  0.1651 -0.3170  0.0510
    8MOL    C85 2339   3.413   5.896   2.137  1.3543 -0.3102  0.5995
    8MOL    C86 2340   3.318   5.886   2.239  0.5533 -0.2342 -0.7056
    8MOL    C87 2341   3.191   5.973   2.243 -0.4335 -0.3462  0.3026
    8MOL    C88 2342   3.342   5.804   2.354 -0.7823  0.1164  0.4089
    8MOL    C89 2343   3.460   5.727   2.357 -0.2347  0.1997  0.1833
    8MOL    H90 2344   3.624   5.549   2.290 -1.2734 -0.2924 -1.4493
    8MOL    H91 2345   3.705   5.621   2.148  0.5293 -0.0097  0.1080
    8MOL    H92 2346   3.596   5.839   2.061 -0.7814  3.3837  0.0830
    8MOL    H93 2347   3.389   5.969   2.061  0.1979 -1.7765 -0.4784
    8MOL    H94 2348   3.225   6.066   2.200 -0.8906 -0.0803  0.5170
    8MOL    H95 2349   3.166   5.984   2.349 -0.3030  2.1531  0.0917
    8MOL    H96 2350   3.277   5.810   2.440 -2.1828  0.4701 -0.6525
    8MOL    H97 2351   3.465   5.646   2.427 -0.3578 -1.7601 -1.9987
    8MOL    C98 2352   3.077   5.912   2.165  0.0317 -0.4701 -0.4780
    8MOL    C99 2353   2.949   5.991   2.186  0.8369  0.1999 -0.5220
    8MOL   C100 2354   2.899   6.085   2.098  0.0705 -0.5249  0.3249
    8MOL   C101 2355   2.772   6.145   2.120 -0.7631 -0.3266 -0.6586
    8MOL   C102 2356   2.693   6.100   2.229 -0.9551 -0.4920 -0.8575
    8MOL   C103 2357   2.557   6.153   2.263  0.1566  0.5816  0.7148
    8MOL   C104 2358   2.740   5.995   2.311 -0.0512  0.1262 -0.1451
    8MOL   C105 2359   2.865   5.947   2.290 -1.0561 -0.1086  0.1522
    8MOL   H106 2360   3.068   5.807   2.194 -0.2146 -0.9014 -2.0533
    8MOL   H107 2361   3.100   5.906   2.059 -0.1101 -1.5740 -0.4569
    8MOL   H108 2362   2.963   6.131   2.024  1.0771 -3.3274 -0.6106
    8MOL   H109 2363   2.747   6.221   2.047 -0.2261  0.4565 -0.0507
    8MOL   H110 2364   2.536   6.239   2.199 -0.6923 -1.5685 -1.9721
    8MOL   H111 2365   2.478   6.080   2.246 -0.2573  1.2360 -0.2445
    8MOL   H112 2366   2.689   5.952   2.396  0.9546  1.8642  1.3729
    8MOL   H113 2367   2.893   5.863   2.351 -0.3459 -0.0964 -0.1576
    8MOL   C114 2368   2.547   6.207   2.401  0.0426 -0.2243  0.1442
    8MOL   C115 2369   2.414   6.277   2.424 -0.0829 -0.2612 -0.1092
    8MOL   C116 2370   2.307   6.201   2.478 -0.4787 -0.4083  1.0158
    8MOL   C117 2371   2.186   6.263   2.511  0.3163  0.3737  0.1356
    8MOL   C118 2372   2.177   6.403   2.508  0.3513 -0.5316  0.1798
    8MOL   C119 2373   2.049   6.470   2.552  0.0739  0.6266 -0.5722
    8MOL   C120 2374   2.289   6.482   2.469  0.0764 -0.4948 -0.2334
    8MOL   C121 2375   2.404   6.421   2.424  1.1181 -0.4351  0.4973
    8MOL   H122 2376   2.629   6.278   2.414  1.3856 -1.5498 -0.8093
    8MOL   H123 2377   2.557   6.129   2.476  2.2879 -0.4319 -0.3285
    8MOL   H124 2378   2.313   6.093   2.481  0.1020 -0.3883  0.8092
    8MOL   H125 2379   2.104   6.207   2.554  1.9971 -0.1066  2.8800
    8MOL   H126 2380   1.981   6.407   2.609  0.3288 -0.1634 -1.1313
    8MOL   H127 2381   2.079   6.551   2.618 -3.3487  0.0325  1.8551
    8MOL   H128 2382   2.267   6.588   2.463  2.3863  0.0048 -0.6847
    8MOL   H129 2383   2.489   6.483   2.401  0.4255  0.9708  1.6313
    8MOL   C130 2384   1.977   6.516   2.433 -0.1235 -0.4722 -0.2974
    8MOL   C131 2385   1.849   6.585   2.457  0.1581 -0.2073  0.2335
    8MOL   C132 2386   1.847   6.721   2.510 -0.3326  0.5589 -0.1224
    8MOL   C133 2387   1.721   6.781   2.537 -0.1232 -0.1933  0.1836
    8MOL   C134 2388   1.602   6.715   2.499 -0.2368 -0.5873  0.1692
    8MOL   C135 2389   1.471   6.790   2.508  0.3107 -0.4317 -0.5640
    8MOL   C136 2390   1.604   6.579   2.457  0.5785 -0.4067 -0.2117
    8MOL   C137 2391   1.729   6.517   2.439  0.5620 -0.7511  0.3776
    8MOL   H138 2392   1.962   6.431   2.366  1.6706  0.2708 -1.6901
    8MOL   H139 2393   2.048   6.582   2.383 -0.0241 -1.1728 -1.1056
    8MOL   H140 2394   1.940   6.771   2.531  0.5904 -1.0558 -0.3090
    8MOL   H141 2395   1.718   6.880   2.579  0.2648  0.4481 -1.2838
    8MOL   H142 2396   1.480   6.880   2.568 -0.2599 -0.4787 -0.4003
    8MOL   H143 2397   1.454   6.826   2.407  0.0843  0.5328 -0.1897
    8MOL   H144 2398   1.515   6.521   2.436 -0.7495  1.9747 -1.4639
    8MOL   H145 2399   1.737   6.413   2.414  0.2264 -0.0419 -2.8842
    8MOL   C146 2400   1.350   6.706   2.553  0.0374  0.2193 -0.7696
    8MOL   C147 2401   1.222   6.784   2.582  0.3054 -0.1490 -0.0585
    8MOL   C148 2402   1.222   6.872   2.693 -0.2961 -0.8219 -0.6449
    8MOL   C149 2403   1.112   6.945   2.725  0.1497 -0.1331 -0.6384
    8MOL   C150 2404   0.997   6.937   2.652  0.6086 -0.3441  0.2807
    8MOL   C151 2405   0.876   7.019   2.681  0.9517 -0.0409  0.2403
    8MOL   C152 2406   0.994   6.852   2.539 -0.5210  0.4794 -0.2607
    8MOL   C153 2407   1.105   6.776   2.503  0.8433  0.4541  0.2817
    8MOL   H154 2408   1.374   6.658   2.648 -1.3205 -1.3212 -1.1735
    8MOL   H155 2409   1.308   6.633   2.484  0.1161 -0.0527 -0.5342
    8MOL   H156 2410   1.308   6.885   2.757 -0.9791 -0.3753  0.1899
    8MOL   H157 2411   1.106   7.009   2.812 -0.6774  0.1332 -0.8833
    8MOL   H158 2412   0.790   6.973   2.633 -0.3684  0.6227  1.8914
    8MOL   H159 2413   0.860   7.003   2.788 -1.4024  2.7129  0.3548
    8MOL   H160 2414   0.905   6.836   2.480  0.8978 -1.6679 -1.9068
    8MOL   H161 2415   1.120   6.713   2.416  1.3607  1.2382 -0.2032
    8MOL   C162 2416   0.892   7.169   2.646 -0.2489 -0.1036 -0.1358
    8MOL   C163 2417   0.760   7.244   2.655  0.3574  0.2638 -0.4795
    8MOL   C164 2418   0.690   7.262   2.777 -0.3636  0.7088 -0.4086
    8MOL   C165 2419   0.562   7.320   2.768 -0.1458  0.1022  0.0847
    8MOL   C166 2420   0.498   7.366   2.651  0.2582 -0.3352  0.1228
    8MOL   C167 2421   0.361   7.419   2.662 -0.3973  0.7593  0.6764
    8MOL   C168 2422   0.578   7.351   2.535 -0.5875  0.2768 -0.6070
    8MOL   C169 2423   0.709   7.297   2.537 -0.3167  0.3184  0.3849
    8MOL   H170 2424   0.936   7.185   2.548 -0.6637 -0.9446 -0.4714
    8MOL   H171 2425   0.950   7.206   2.730  2.5195 -1.9185 -1.1818
    8MOL   H172 2426   0.743   7.238   2.868 -0.1824  0.1761 -0.6545
    8MOL   H173 2427   0.506   7.351   2.855  3.6621  2.2571  1.8869
    8MOL   H174 2428   0.326   7.408   2.559  2.2910  1.8188 -0.3743
    8MOL   H175 2429   0.297   7.358   2.726 -1.9165  0.7796 -0.7631
    8MOL   H176 2430   0.544   7.387   2.439  1.8016 -1.3441 -2.1268
    8MOL   H177 2431   0.759   7.277   2.443 -0.2590  0.1719  0.4457
    8MOL   C178 2432   0.340   7.564   2.714  0.5971  1.1770 -0.2851
    8MOL   C179 2433   0.191   7.599   2.717  0.0357 -0.1890  0.5161
    8MOL   C180 2434   0.112   7.568   2.834 -0.2087  0.2090  0.3748
    8MOL   C181 2435  -0.022   7.607   2.835 -0.2886  0.1771  0.0423
    8MOL   C182 2436  -0.085   7.657   2.716 -0.2287 -0.8440  0.3984
    8MOL   C183 2437  -0.230   7.703   2.726  0.2820 -0.2985  0.2992
    8MOL   C184 2438  -0.010   7.681   2.604 -0.6120 -1.2082  0.0418
    8MOL   C185 2439   0.131   7.653   2.604  0.1060 -1.1340  0.5355
    8MOL   H186 2440   0.385   7.642   2.653 -1.2271 -0.0999 -3.3646
    8MOL   H187 2441   0.377   7.569   2.817 -0.7375 -3.1177  0.5042
    8MOL   H188 2442   0.153   7.517   2.920  0.4086 -0.5498 -0.3658
    8MOL   H189 2443  -0.081   7.602   2.925  0.3883  0.2058  0.4920
    8MOL   H190 2444  -0.234   7.783   2.800  0.3000  0.1582 -0.1862
    8MOL   H191 2445  -0.259   7.762   2.639 -1.1691 -0.4405  0.6773
    8MOL   H192 2446  -0.063   7.722   2.519  0.0600  0.9953  0.6623
    8MOL   H193 2447   0.190   7.661   2.514 -1.1297 -0.4754 -0.2271
    8MOL   C194 2448  -0.315   7.579   2.761  0.0681 -0.1053 -0.1733
    8MOL   C195 2449  -0.464   7.601   2.771 -0.9050 -0.2463 -0.3306
    8MOL   C196 2450  -0.540   7.612   2.654  0.4332 -0.4039 -0.0055
    8MOL   C197 2451  -0.675   7.636   2.662  0.9670 -0.6970  0.3152
    8MOL   C198 2452  -0.740   7.653   2.790  0.6000  0.7506  0.1909
    8MOL   C199 2453  -0.891   7.675   2.792  0.3627  0.0037  0.9559
    8MOL   C200 2454  -0.665   7.644   2.908  0.5022 -0.0589  0.7691
    8MOL   C201 2455  -0.528   7.626   2.895 -0.5669  0.1016  0.1849
    8MOL   H202 2456  -0.271   7.552   2.858  0.0162  0.8582  0.1230
    8MOL   H203 2457  -0.304   7.489   2.701 -1.3538 -0.7825  0.5466
    8MOL   H204 2458  -0.489   7.594   2.560  5.0188 -0.2514  2.2910
    8MOL   H205 2459  -0.737   7.642   2.574 -0.3824 -1.3344  1.1981
    8MOL   H206 2460  -0.948   7.597   2.743  2.0559  0.1451 -1.3665
    8MOL   H207 2461  -0.929   7.662   2.893 -3.4331 -0.0086 -0.4135
    8MOL   H208 2462  -0.714   7.650   3.004  0.8836 -0.8842  1.0126
    8MOL   H209 2463  -0.462   7.627   2.981 -0.1729 -1.4058 -0.0975
    8MOL   C210 2464  -0.926   7.817   2.741 -0.5403  0.6219  0.1959
    8MOL   C211 2465  -1.073   7.843   2.727 -0.7930 -0.4744 -0.3487
    8MOL   C212 2466  -1.161   7.810   2.835 -0.1839 -0.1084  0.2945
    8MOL   C213 2467  -1.295   7.850   2.833 -0.3442  0.7084 -0.7983
    8MOL   C214 2468  -1.347   7.910   2.715 -0.3709 -0.0703 -0.1194
    8MOL   C215 2469  -1.489   7.942   2.707  0.1146 -0.3559 -0.0387
    8MOL   C216 2470  -1.266   7.945   2.606 -0.5363  0.5280  0.3333
    8MOL   C217 2471  -1.128   7.906   2.610  0.1325 -0.1745 -0.4112
    8MOL   H218 2472  -0.889   7.829   2.639 -0.0622  0.4667  0.3526
    8MOL   H219 2473  -0.877   7.884   2.812  0.6375  0.7912 -0.7716
    8MOL   H220 2474  -1.120   7.777   2.929  0.7368  0.9918  0.2918
    8MOL   H221 2475  -1.353   7.839   2.923  0.9584 -0.1391 -0.0489
    8MOL   H222 2476  -1.520   7.944   2.602 -0.3636 -1.4522  0.0706
    8MOL   H223 2477  -1.544   7.860   2.754 -1.4670  1.1162  0.7334
    8MOL   H224 2478  -1.299   7.991   2.514  0.1068  2.4350  1.0444
    8MOL   H225 2479  -1.067   7.920   2.522  2.7262 -1.4049  1.1546
    8MOL   C226 2480  -1.525   8.079   2.758 -0.9656 -0.1996  0.5410
    8MOL   C227 2481  -1.668   8.111   2.746  0.0037 -0.0483 -0.3647
    8MOL   C228 2482  -1.713   8.184   2.637  0.4057 -0.1214 -0.0006
    8MOL   C229 2483  -1.849   8.215   2.621 -0.1519  1.2245 -0.3927
    8MOL   C230 2484  -1.940   8.162   2.716 -0.2919 -0.0314 -0.5245
    8MOL   C231 2485  -2.086   8.186   2.705 -0.3920 -0.7703  0.0844
    8MOL   C232 2486  -1.897   8.101   2.841  0.3842 -0.2102  0.4823
    8MOL   C233 2487  -1.761   8.076   2.852 -0.0852 -0.2836 -0.3942
    8MOL   H234 2488  -1.467   8.156   2.708 -2.1863  0.1532 -0.3598
    8MOL   H235 2489  -1.493   8.076   2.862 -2.3401 -1.8358  0.9413
    8MOL   H236 2490  -1.646   8.216   2.558  0.9467  2.2716  1.3851
    8MOL   H237 2491  -1.887   8.258   2.530 -0.7236  0.2412 -0.6301
    8MOL   H238 2492  -2.125   8.189   2.603  0.9559  0.2444 -0.4078
    8MOL   H239 2493  -2.129   8.104   2.762 -3.7066  0.1976 -0.9307
    8MOL   H240 2494  -1.972   8.072   2.912 -1.4926  3.2372  0.0219
    8MOL   H241 2495  -1.723   8.031   2.942  0.7925 -0.2200 -0.7275
    8MOL   C242 2496  -2.114   8.314   2.790  0.3065  0.3896  0.2552
    8MOL   C243 2497  -2.260   8.344   2.797 -0.0784  0.7667  0.8118
    8MOL   C244 2498  -2.343   8.333   2.910  0.0166  0.2780 -0.6053
    8MOL   C245 2499  -2.476   8.360   2.901  0.9658 -0.7979  0.4145
    8MOL   C246 2500  -2.533   8.406   2.784 -1.0267  0.3738  0.0877
    8MOL   C247 2501  -2.684   8.421   2.772 -0.1194  1.1141  0.3606
    8MOL   C248 2502  -2.451   8.435   2.669  0.5076 -0.6273 -0.0191
    8MOL   C249 2503  -2.317   8.396   2.676  1.2102  0.0363  0.5738
    8MOL   H250 2504  -2.081   8.311   2.894 -0.3800  1.9481  0.5336
    8MOL   H251 2505  -2.064   8.399   2.743  1.0044  0.6458  1.4446
    8MOL   H252 2506  -2.303   8.290   3.001 -0.6487  0.5646 -0.1777
    8MOL   H253 2507  -2.537   8.363   2.990 -0.8097  3.8008 -0.7969
    8MOL   H254 2508  -2.700   8.393   2.667 -1.1780  1.5512  0.3990
    8MOL   H255 2509  -2.735   8.339   2.824  0.1739  1.5156  1.2883
    8MOL   H256 2510  -2.483   8.477   2.575 -2.7499 -0.8715  0.9384
    8MOL   H257 2511  -2.262   8.411   2.584 -0.6895 -1.0094 -0.7616
    8MOL   C258 2512  -2.730   8.560   2.806  0.0309 -0.0797 -0.2482
    8MOL   C259 2513  -2.877   8.565   2.812 -0.2442 -0.2187 -0.4116
    8MOL   C260 2514  -2.948   8.523   2.929 -0.2234  0.5150 -0.2390
    8MOL   C261 2515  -3.087   8.524   2.944  0.1008 -0.6861 -0.0630
    8MOL   C262 2516  -3.160   8.587   2.843 -0.3184  0.0425 -0.4880
    8MOL   C263 2517  -3.307   8.618   2.852  0.5002  0.2794 -0.5074
    8MOL   C264 2518  -3.089   8.619   2.726  0.2818 -0.3462 -0.0099
    8MOL   C265 2519  -2.949   8.612   2.706 -0.2021  0.4615 -0.6937
    8MOL   H266 2520  -2.684   8.628   2.734  0.2703 -0.7020 -0.6867
    8MOL   H267 2521  -2.704   8.592   2.906  0.1900 -0.7433 -0.0718
    8MOL   H268 2522  -2.890   8.483   3.011  0.6236  0.1561 -1.0089
    8MOL   H269 2523  -3.135   8.491   3.035 -1.0605  0.0812 -0.3899
    8MOL   H270 2524  -3.349   8.617   2.752 -1.4062  0.3438  0.2682
    8MOL   H271 2525  -3.358   8.534   2.898  0.2039  0.6530 -0.1533
    8MOL   H272 2526  -3.138   8.648   2.634 -0.2206  3.6828  1.3955
    8MOL   H273 2527  -2.916   8.647   2.609 -0.6704  3.1773  0.0953
    8MOL   C274 2528  -3.343   8.750   2.916  0.2150  0.7874  0.5472
    8MOL   C275 2529  -3.492   8.784   2.902  0.5268  0.3617  1.1686
    8MOL   C276 2530  -3.580   8.757   3.010  0.1331 -0.2140  0.1208
    8MOL   C277 2531  -3.716   8.788   2.989  0.6132 -0.5682  0.2507
    8MOL   C278 2532  -3.763   8.848   2.867 -0.5988 -0.0909  0.8093
    8MOL   C279 2533  -3.914   8.864   2.857  0.3863 -0.2339  0.1048
    8MOL   C280 2534  -3.669   8.876   2.764  0.4806  0.3244  0.5574
    8MOL   C281 2535  -3.540   8.836   2.776 -0.7222  0.3708  0.1676
    8MOL   H282 2536  -3.310   8.759   3.019  0.0826  0.7553  0.5919
    8MOL   H283 2537  -3.291   8.837   2.875 -2.0884  2.4061  0.9911
    8MOL   H284 2538  -3.547   8.709   3.100  0.0878 -0.3619  0.0586
    8MOL   H285 2539  -3.788   8.759   3.065  0.0867 -0.4936 -0.2209
    8MOL   H286 2540  -3.950   8.840   2.757 -1.6626  0.6430  0.6106
    8MOL   H287 2541  -3.960   8.784   2.916 -1.4568  1.7867  1.4763
    8MOL   H288 2542  -3.689   8.920   2.668 -0.8770 -2.3919 -0.4479
    8MOL   H289 2543  -3.465   8.844   2.698  0.1694  0.7138  1.0527
    8MOL   C290 2544  -3.961   8.996   2.905  0.1255 -0.4920  0.5210
    8MOL   C291 2545  -4.107   9.017   2.893  0.0719 -0.0833  0.9397
    8MOL   C292 2546  -4.160   9.096   2.789  0.2877 -0.1695  0.4379
    8MOL   C293 2547  -4.297   9.124   2.791 -0.5553 -0.8325 -0.5339
    8MOL   C294 2548  -4.380   9.078   2.902  0.4636 -0.2509  0.8103
    8MOL   C295 2549  -4.524   9.110   2.916  0.3272 -0.1097  0.0451
    8MOL   C296 2550  -4.323   9.002   3.004  0.5341  0.0807 -0.0054
    8MOL   C297 2551  -4.188   8.973   3.001  0.4135 -0.0308 -0.5571
    8MOL   H298 2552  -3.904   9.075   2.856 -3.4665  1.5129 -0.6040
    8MOL   H299 2553  -3.940   9.009   3.011  0.7702 -0.0403  0.3413
    8MOL   H300 2554  -4.102   9.136   2.707  0.2863  0.9355  0.9804
    8MOL   H301 2555  -4.353   9.177   2.717 -0.2357  0.9335  0.4652
    8MOL   H302 2556  -4.576   9.097   2.821  1.5799  1.8287 -0.9300
    8MOL   H303 2557  -4.579   9.039   2.979 -1.0037 -2.0611 -3.1904
    8MOL   H304 2558  -4.377   8.963   3.090 -0.5143 -2.2443 -1.6794
    8MOL   H305 2559  -4.152   8.923   3.090 -1.5825  0.8971  0.7807
    8MOL   C306 2560  -4.546   9.254   2.961 -0.0016 -0.9118  0.3639
    8MOL   C307 2561  -4.693   9.296   2.952  0.0299 -0.3450  0.3983
    8MOL   C308 2562  -4.773   9.303   3.065 -0.0250  0.2383  0.7730
    8MOL   C309 2563  -4.912   9.350   3.066 -0.2923  0.5849  0.1314
    8MOL   C310 2564  -4.960   9.404   2.946  0.1622  0.2140 -0.1161
    8MOL   C311 2565  -5.090   9.475   2.945 -0.5013  0.1000  0.9224
    8MOL   C312 2566  -4.883   9.401   2.829  0.1969  0.1202 -0.5181
    8MOL   C313 2567  -4.754   9.341   2.833 -0.6397 -0.6983  0.4090
    8MOL   H314 2568  -4.482   9.325   2.910  0.7726 -1.2441  0.8623
    8MOL   H315 2569  -4.516   9.260   3.066 -0.3446  0.1325  0.4038
    8MOL   H316 2570  -4.731   9.258   3.154  0.1095 -0.2994  0.4392
    8MOL   H317 2571  -4.979   9.344   3.150 -0.0966 -0.6548  0.2138
    8MOL   H318 2572  -5.153   9.439   3.026  0.8324  1.4748  2.6327
    8MOL   H319 2573  -5.075   9.583   2.957 -0.4641  0.0461  1.3469
    8MOL   H320 2574  -4.912   9.435   2.730  2.1774  1.7629 -0.5658
    8MOL   H321 2575  -4.693   9.341   2.744 -2.9294  0.1733 -1.2014
    8MOL   H322 2576  -5.144   9.456   2.852  1.8780  1.6246 -0.8444
    9MOL     C1 2577   5.575   5.317   5.516 -0.5360  0.2951  0.5598
    9MOL     C2 2578   5.438   5.318   5.574  0.1142 -0.5390  0.7958
    9MOL     C3 2579   5.334   5.255   5.510 -0.3263  0.3440  0.0566
    9MOL     C4 2580   5.202   5.271   5.560 -0.0142 -0.1293 -0.4473
    9MOL     C5 2581   5.173   5.356   5.664 -0.7767 -0.1225  0.0847
    9MOL     C6 2582   5.029   5.378   5.692 -0.2189  0.0465  0.0752
    9MOL     C7 2583   5.282   5.407   5.736  0.1783  0.1857 -1.1585
    9MOL     C8 2584   5.412   5.380   5.697  0.2039 -0.0136  0.0325
    9MOL     H9 2585   5.572   5.329   5.407 -0.4756 -0.5463  0.4598
    9MOL    H10 2586   5.627   5.399   5.565  0.4655 -0.0911  0.1680
    9MOL    H11 2587   5.347   5.196   5.421 -0.8924 -0.0248  0.2218
    9MOL    H12 2588   5.122   5.222   5.507  0.0850 -2.2047  1.2497
    9MOL    H13 2589   5.017   5.460   5.762 -1.2544 -0.7111  0.8059
    9MOL    H14 2590   4.980   5.417   5.602  0.3000  0.1585 -0.1607
    9MOL    H15 2591   5.270   5.468   5.825 -0.3236 -0.9925 -0.4112
    9MOL    H16 2592   5.490   5.417   5.762 -0.3984 -1.9183  1.8762
    9MOL    H17 2593   5.635   5.229   5.542 -1.3578 -0.6576 -0.7262
    9MOL    C18 2594   4.969   5.248   5.737  0.0383  0.1623 -0.1843
    9MOL    C19 2595   4.828   5.277   5.768 -0.2028 -0.0513  0.4230
    9MOL    C20 2596   4.725   5.242   5.683  0.3122 -0.2949  0.7115
    9MOL    C21 2597   4.593   5.269   5.713 -0.5924  0.1327  0.1393
    9MOL    C22 2598   4.565   5.342   5.825  0.3752 -0.0699  0.0204
    9MOL    C23 2599   4.425   5.390   5.849  0.9252 -0.3002 -0.0413
    9MOL    C24 2600   4.666   5.387   5.913  0.0235  0.0335 -0.4747
    9MOL    C25 2601   4.794   5.353   5.887  0.4332 -0.0320 -0.5676
    9MOL    H26 2602   4.973   5.165   5.666  1.1228  1.2622 -1.4479
    9MOL    H27 2603   5.020   5.223   5.830  0.1857 -1.5702 -0.7054
    9MOL    H28 2604   4.748   5.204   5.584 -1.1357  0.4244  0.0880
    9MOL    H29 2605   4.520   5.247   5.636 -1.2257 -0.4076  0.8860
    9MOL    H30 2606   4.409   5.365   5.954  0.2247  0.4946  0.0453
    9MOL    H31 2607   4.361   5.334   5.782  0.2968  1.5818 -1.0495
    9MOL    H32 2608   4.643   5.443   6.002  2.1432  0.9607 -0.4625
    9MOL    H33 2609   4.871   5.360   5.962  0.7791  0.7365 -0.9817
    9MOL    C34 2610   4.407   5.538   5.821  0.2769 -1.1077  0.2293
    9MOL    C35 2611   4.263   5.578   5.847 -0.6985 -0.8444 -0.4253
    9MOL    C36 2612   4.187   5.611   5.732  0.3529 -0.4986 -0.3190
    9MOL    C37 2613   4.051   5.625   5.740 -0.1340 -0.4176  0.7978
    9MOL    C38 2614   3.989   5.629   5.868  1.0826  0.2843  0.2771
    9MOL    C39 2615   3.841   5.653   5.876 -0.4896 -0.8745 -0.4091
    9MOL    C40 2616   4.063   5.586   5.986  0.5980 -0.0529 -0.2412
    9MOL    C41 2617   4.205   5.571   5.975  0.5104  0.7046  0.0173
    9MOL    H42 2618   4.441   5.562   5.720  2.3802 -2.0232  0.7099
    9MOL    H43 2619   4.461   5.596   5.896 -1.2672  1.2965 -0.4212
    9MOL    H44 2620   4.228   5.620   5.632 -1.8196 -1.9211 -1.3811
    9MOL    H45 2621   3.994   5.648   5.651  0.4609  1.2133  0.8336
    9MOL    H46 2622   3.789   5.584   5.809 -0.5212 -1.3730  0.1174
    9MOL    H47 2623   3.815   5.619   5.976 -3.1580  1.7484 -0.1656
    9MOL    H48 2624   4.009   5.586   6.079 -0.0960  1.2019 -0.6285
    9MOL    H49 2625   4.264   5.535   6.058  0.3484  1.0157  0.2664
    9MOL    C50 2626   3.797   5.799   5.846 -0.3931  0.3458 -1.2110
    9MOL    C51 2627   3.648   5.821   5.862 -0.1991 -0.6991 -0.4325
    9MOL    C52 2628   3.605   5.883   5.978  0.2414  0.8988 -0.2074
    9MOL    C53 2629   3.469   5.914   5.987  0.3506 -0.0732 -0.2519
    9MOL    C54 2630   3.384   5.903   5.874  0.3614  0.4479 -0.4928
    9MOL    C55 2631   3.241   5.955   5.892  0.5546 -0.5923 -1.3083
    9MOL    C56 2632   3.430   5.841   5.757 -0.8990 -0.6705  0.4559
    9MOL    C57 2633   3.562   5.800   5.750  0.2079  1.2231 -0.4115
    9MOL    H58 2634   3.813   5.808   5.739  1.9441 -0.1849 -0.9181
    9MOL    H59 2635   3.853   5.875   5.901  0.9846 -1.0538 -0.6678
    9MOL    H60 2636   3.680   5.897   6.055 -0.0677 -0.6167  0.3873
    9MOL    H61 2637   3.438   5.964   6.078  1.4824  0.5845 -0.2207
    9MOL    H62 2638   3.248   6.062   5.910  2.0004 -1.0349  0.9108
    9MOL    H63 2639   3.193   5.944   5.795  1.5389 -2.1705 -1.6231
    9MOL    H64 2640   3.368   5.836   5.669 -0.7114 -1.7487  0.3749
    9MOL    H65 2641   3.609   5.764   5.660  1.0930  2.0392 -0.2916
    9MOL    C66 2642   3.158   5.908   6.009  0.4994  0.4312 -0.5126
    9MOL    C67 2643   3.016   5.967   6.010  0.7292  0.5661  0.9412
    9MOL    C68 2644   2.978   6.059   6.103  0.0335 -0.0718  0.0948
    9MOL    C69 2645   2.842   6.099   6.123 -0.3322  0.1370  0.4856
    9MOL    C70 2646   2.749   6.066   6.023  0.8147 -0.4658  0.0401
    9MOL    C71 2647   2.612   6.134   6.023 -0.1101  0.3481  0.1550
    9MOL    C72 2648   2.782   5.970   5.927 -0.2746 -0.1348  0.0004
    9MOL    C73 2649   2.917   5.921   5.917 -0.2534 -0.1813 -0.0684
    9MOL    H74 2650   3.212   5.938   6.099  0.9926  0.8580 -0.9504
    9MOL    H75 2651   3.158   5.799   6.006 -0.6474  0.4460 -1.2499
    9MOL    H76 2652   3.056   6.100   6.167  2.3556 -3.1462 -0.6450
    9MOL    H77 2653   2.817   6.169   6.201  0.2001 -0.7944  1.5211
    9MOL    H78 2654   2.607   6.169   5.920  1.6603 -0.1408 -0.1227
    9MOL    H79 2655   2.633   6.224   6.081  2.6100  1.1474 -1.9785
    9MOL    H80 2656   2.720   5.946   5.842  0.4524  0.8110 -0.8015
    9MOL    H81 2657   2.933   5.841   5.847 -0.1907 -0.5904  0.4046
    9MOL    C82 2658   2.489   6.054   6.065 -0.0384  0.4894 -0.2416
    9MOL    C83 2659   2.355   6.136   6.075  0.3816 -0.6467  0.3481
    9MOL    C84 2660   2.322   6.224   6.177 -0.4911  0.5563 -1.1168
    9MOL    C85 2661   2.194   6.279   6.191  0.3142  0.3378  0.2692
    9MOL    C86 2662   2.100   6.260   6.082  0.1052  0.1649 -0.8345
    9MOL    C87 2663   1.982   6.350   6.062 -0.2139  0.3311  0.4119
    9MOL    C88 2664   2.135   6.169   5.983  0.4510 -0.8007  1.3608
    9MOL    C89 2665   2.260   6.107   5.981  0.3845 -0.5909  0.3208
    9MOL    H90 2666   2.515   6.018   6.165  0.3900 -1.1005 -0.9101
    9MOL    H91 2667   2.486   5.971   5.995 -0.9227  0.3338 -0.0213
    9MOL    H92 2668   2.397   6.248   6.250 -1.3549 -3.2692  1.1646
    9MOL    H93 2669   2.172   6.358   6.262 -0.7339 -0.9416  1.3758
    9MOL    H94 2670   1.966   6.362   5.955 -2.6970 -1.6881  0.5032
    9MOL    H95 2671   1.985   6.446   6.112 -0.3380  0.9847 -0.8289
    9MOL    H96 2672   2.082   6.173   5.889  1.0335 -0.9507  1.0267
    9MOL    H97 2673   2.266   6.031   5.905 -1.1274  0.9068 -1.3549
    9MOL    C98 2674   1.855   6.281   6.121 -0.2747  0.4414 -0.1756
    9MOL    C99 2675   1.730   6.365   6.139  0.0651 -0.5928 -0.5009
    9MOL   C100 2676   1.627   6.364   6.043  0.4596  0.0416  0.4495
    9MOL   C101 2677   1.505   6.431   6.069  0.1418  0.0450 -0.5691
    9MOL   C102 2678   1.491   6.503   6.193  0.3187 -0.2842 -0.0758
    9MOL   C103 2679   1.359   6.573   6.221  0.1602  0.1056  0.0408
    9MOL   C104 2680   1.600   6.517   6.283 -0.0210  0.4899  0.2712
    9MOL   C105 2681   1.717   6.442   6.257 -0.1033  0.4435 -0.2012
    9MOL   H106 2682   1.871   6.236   6.219 -4.4443 -1.0430 -0.0850
    9MOL   H107 2683   1.835   6.188   6.068  0.0629 -0.4430  1.2366
    9MOL   H108 2684   1.646   6.322   5.945  1.9170  1.2601  0.1723
    9MOL   H109 2685   1.428   6.440   5.993 -0.3412 -2.4265 -0.4022
    9MOL   H110 2686   1.353   6.655   6.149  0.2607 -0.0878 -0.1852
    9MOL   H111 2687   1.279   6.509   6.183 -1.9805  1.8841  1.3610
    9MOL   H112 2688   1.607   6.564   6.380  0.9287 -1.2206  1.0478
    9MOL   H113 2689   1.802   6.439   6.323  0.6595  4.2117 -0.9049
    9MOL   C114 2690   1.331   6.635   6.365  0.5211 -0.2182 -0.4882
    9MOL   C115 2691   1.212   6.723   6.369  0.5324 -0.5050 -0.2483
    9MOL   C116 2692   1.222   6.848   6.305 -0.1924  0.1392  0.7764
    9MOL   C117 2693   1.112   6.936   6.294 -0.0582 -0.0923  0.4076
    9MOL   C118 2694   0.993   6.903   6.361  0.0254 -0.2510  0.1103
    9MOL   C119 2695   0.878   7.000   6.348  0.6203 -0.3711  1.0609
    9MOL   C120 2696   0.982   6.782   6.435 -0.2905 -0.4494  0.0452
    9MOL   C121 2697   1.088   6.693   6.439 -0.1410  0.4885 -0.8797
    9MOL   H122 2698   1.419   6.686   6.403  0.4564 -0.9267  0.6350
    9MOL   H123 2699   1.317   6.558   6.441 -0.1606  0.2773 -0.1065
    9MOL   H124 2700   1.317   6.857   6.255 -0.5432 -1.3823 -0.1913
    9MOL   H125 2701   1.119   7.029   6.238 -0.2514 -0.0388  0.4721
    9MOL   H126 2702   0.832   7.012   6.446  0.2966 -0.2501  0.8950
    9MOL   H127 2703   0.913   7.099   6.317 -0.1592 -0.9128 -1.7208
    9MOL   H128 2704   0.894   6.749   6.489 -1.2622  0.5352 -0.9245
    9MOL   H129 2705   1.082   6.592   6.477 -0.6312  0.9361  0.2347
    9MOL   C130 2706   0.763   6.941   6.259 -0.0241 -0.6493 -0.6714
    9MOL   C131 2707   0.630   7.016   6.277 -0.2679 -0.4222  0.2101
    9MOL   C132 2708   0.602   7.113   6.179 -0.7839 -0.5924  0.5685
    9MOL   C133 2709   0.482   7.187   6.189  0.2270  0.3171  0.0409
    9MOL   C134 2710   0.393   7.170   6.293  0.2146 -0.5872  0.2861
    9MOL   C135 2711   0.266   7.253   6.293  0.3547 -0.3564  0.1080
    9MOL   C136 2712   0.427   7.077   6.389 -0.4474 -0.1165  0.0566
    9MOL   C137 2713   0.547   7.003   6.388  0.5762  0.3185 -0.1581
    9MOL   H138 2714   0.746   6.835   6.281 -1.5766 -0.3890 -0.5645
    9MOL   H139 2715   0.805   6.939   6.158  0.7095 -3.6561 -0.3670
    9MOL   H140 2716   0.668   7.127   6.095 -0.2556 -0.8719  0.9368
    9MOL   H141 2717   0.448   7.257   6.114 -2.2418 -3.1545 -2.1869
    9MOL   H142 2718   0.301   7.336   6.355  1.2645  0.7748 -1.8947
    9MOL   H143 2719   0.236   7.282   6.193  0.9546 -2.7252 -0.7953
    9MOL   H144 2720   0.363   7.064   6.476 -1.0079 -1.0066 -0.4836
    9MOL   H145 2721   0.568   6.933   6.468 -1.8131 -1.5374 -1.0773
    9MOL   C146 2722   0.141   7.180   6.347  0.1513 -0.4430  0.3871
    9MOL   C147 2723   0.021   7.267   6.366 -0.1466  0.7180 -0.6445
    9MOL   C148 2724  -0.035   7.340   6.260 -0.0085  0.7419  0.2670
    9MOL   C149 2725  -0.143   7.429   6.287  0.1585  0.1574  0.4552
    9MOL   C150 2726  -0.187   7.454   6.416  0.8433  0.0005  0.2485
    9MOL   C151 2727  -0.309   7.535   6.432 -0.5251 -0.6011  0.0661
    9MOL   C152 2728  -0.121   7.387   6.524 -0.1128  0.5169 -0.3210
    9MOL   C153 2729  -0.019   7.294   6.498 -0.0612 -0.2014 -0.2407
    9MOL   H154 2730   0.166   7.129   6.439  0.8275 -2.3107 -0.8023
    9MOL   H155 2731   0.118   7.096   6.282 -2.4576 -1.6494  2.8185
    9MOL   H156 2732   0.007   7.323   6.162 -0.3037 -1.5805  0.5214
    9MOL   H157 2733  -0.191   7.473   6.201 -0.2148 -1.3321 -0.1090
    9MOL   H158 2734  -0.280   7.616   6.499  0.8612 -0.4730 -0.6590
    9MOL   H159 2735  -0.345   7.583   6.341 -1.9579 -1.4046  0.2036
    9MOL   H160 2736  -0.153   7.405   6.626 -0.9928 -1.1684 -0.2798
    9MOL   H161 2737   0.024   7.238   6.579 -1.3755 -1.8438 -0.6624
    9MOL   C162 2738  -0.421   7.457   6.502  0.0360 -0.0329 -0.2997
    9MOL   C163 2739  -0.550   7.535   6.504  0.3611  0.5572 -0.0697
    9MOL   C164 2740  -0.607   7.572   6.628  0.3296  0.0736 -0.1968
    9MOL   C165 2741  -0.726   7.644   6.628 -0.0131  0.5296 -0.5146
    9MOL   C166 2742  -0.795   7.668   6.504  0.1684 -0.8046 -1.0579
    9MOL   C167 2743  -0.918   7.760   6.501 -1.1180 -0.0969  0.1691
    9MOL   C168 2744  -0.733   7.634   6.384  0.3055  0.1903 -0.7175
    9MOL   C169 2745  -0.617   7.559   6.381  0.2867 -0.8802 -0.1007
    9MOL   H170 2746  -0.394   7.448   6.607  0.2370  1.4470 -0.2255
    9MOL   H171 2747  -0.427   7.355   6.463 -1.9331 -0.4225  0.9187
    9MOL   H172 2748  -0.560   7.550   6.722  2.9149  1.9280 -0.9860
    9MOL   H173 2749  -0.760   7.684   6.722  0.9881 -0.6593  0.3673
    9MOL   H174 2750  -0.889   7.848   6.558  1.6567 -2.2281  2.1441
    9MOL   H175 2751  -0.948   7.806   6.406  2.1856  1.0330 -0.3906
    9MOL   H176 2752  -0.771   7.658   6.286 -0.5288 -2.7663 -1.1646
    9MOL   H177 2753  -0.566   7.529   6.290  0.7408 -1.7549  0.4312
    9MOL   C178 2754  -1.040   7.692   6.558  0.1615 -0.4084 -0.1918
    9MOL   C179 2755  -1.155   7.780   6.590 -0.1203  0.2203 -0.4382
    9MOL   C180 2756  -1.255   7.790   6.495  0.1899 -0.2430  0.3573
    9MOL   C181 2757  -1.356   7.882   6.515 -0.4733  0.1072 -0.5450
    9MOL   C182 2758  -1.370   7.956   6.637 -0.0894  0.0525  0.2566
    9MOL   C183 2759  -1.493   8.042   6.665 -0.2316 -0.2764 -0.3127
    9MOL   C184 2760  -1.267   7.937   6.729  0.1597 -0.6368 -0.0942
    9MOL   C185 2761  -1.156   7.856   6.705 -0.0188  0.2443 -0.8461
    9MOL   H186 2762  -1.015   7.656   6.658 -2.0351  0.9777  0.9068
    9MOL   H187 2763  -1.063   7.612   6.488 -0.0488 -1.3877  0.9729
    9MOL   H188 2764  -1.250   7.736   6.401 -0.3478  1.0559 -0.4243
    9MOL   H189 2765  -1.434   7.892   6.441 -1.5458  1.5510  0.7256
    9MOL   H190 2766  -1.463   8.114   6.741  1.9209 -0.4899 -0.9259
    9MOL   H191 2767  -1.517   8.096   6.574  0.7950  1.4035  0.3927
    9MOL   H192 2768  -1.267   7.989   6.824  1.0023 -3.2953  1.3929
    9MOL   H193 2769  -1.080   7.843   6.780 -2.0214 -1.5883  0.9109
    9MOL   C194 2770  -1.618   7.964   6.703 -0.6064  0.0870 -0.1547
    9MOL   C195 2771  -1.731   8.060   6.742  0.6050  0.6833 -0.3712
    9MOL   C196 2772  -1.819   8.114   6.647  0.3901  0.2393  0.4072
    9MOL   C197 2773  -1.920   8.204   6.682 -0.0091  0.6165  0.0490
    9MOL   C198 2774  -1.936   8.234   6.820 -0.1744 -0.2604  0.2048
    9MOL   C199 2775  -2.052   8.322   6.862  0.0918 -0.0679  0.5302
    9MOL   C200 2776  -1.852   8.181   6.920 -0.3551  0.0203  0.9666
    9MOL   C201 2777  -1.744   8.096   6.874  0.4310 -0.8513 -0.2434
    9MOL   H202 2778  -1.610   7.898   6.790 -1.0935  0.4370  0.1586
    9MOL   H203 2779  -1.661   7.905   6.621  0.4242 -1.4145  0.3571
    9MOL   H204 2780  -1.811   8.073   6.548  0.1965 -1.1779  0.9593
    9MOL   H205 2781  -1.983   8.231   6.598  0.5841 -0.2495 -0.6843
    9MOL   H206 2782  -2.013   8.402   6.926  1.0166  2.1044 -2.6343
    9MOL   H207 2783  -2.080   8.383   6.776  0.0972 -1.7018 -0.6389
    9MOL   H208 2784  -1.862   8.224   7.018  1.4226  1.0106  0.7466
    9MOL   H209 2785  -1.681   8.049   6.949  1.0007 -2.2072 -1.5538
    9MOL   C210 2786  -2.175   8.244   6.927  0.6136 -0.2380 -0.0416
    9MOL   C211 2787  -2.287   8.347   6.938  0.0589 -0.0871  0.2511
    9MOL   C212 2788  -2.407   8.317   6.878  0.7159 -0.8266  1.2925
    9MOL   C213 2789  -2.516   8.400   6.894  0.1686 -0.5315 -0.1664
    9MOL   C214 2790  -2.504   8.529   6.950 -0.0379  0.4937  0.0130
    9MOL   C215 2791  -2.623   8.617   6.959  0.1379  0.8745  0.0988
    9MOL   C216 2792  -2.378   8.569   7.004 -0.2002 -0.0503  0.5314
    9MOL   C217 2793  -2.274   8.476   7.004 -0.7146  0.3100 -0.0168
    9MOL   H218 2794  -2.156   8.199   7.024  0.8504 -1.1818 -0.5132
    9MOL   H219 2795  -2.208   8.173   6.851  1.3965  1.4715 -2.0521
    9MOL   H220 2796  -2.424   8.222   6.828  1.4365  0.5324 -1.6493
    9MOL   H221 2797  -2.606   8.368   6.844 -0.1007  1.0046 -0.7000
    9MOL   H222 2798  -2.696   8.551   7.004  0.6303  0.2920  0.0599
    9MOL   H223 2799  -2.594   8.694   7.031  1.0807  0.6851 -0.0655
    9MOL   H224 2800  -2.361   8.672   7.034  2.7107  0.1651 -1.5556
    9MOL   H225 2801  -2.180   8.507   7.047  0.0969  0.9372 -2.2038
    9MOL   C226 2802  -2.679   8.656   6.818  0.5571 -0.1675 -0.3273
    9MOL   C227 2803  -2.806   8.737   6.822 -0.2536  0.1783 -0.7726
    9MOL   C228 2804  -2.913   8.691   6.900 -0.3736  0.4663  0.4876
    9MOL   C229 2805  -3.030   8.765   6.916 -0.0278 -0.4277  0.2243
    9MOL   C230 2806  -3.047   8.889   6.852 -0.5703 -0.0973 -0.2022
    9MOL   C231 2807  -3.172   8.976   6.877 -0.6961 -0.1299  0.4886
    9MOL   C232 2808  -2.944   8.934   6.774 -0.0438 -0.8031  0.1339
    9MOL   C233 2809  -2.823   8.861   6.756  0.6966  0.5321  0.2534
    9MOL   H234 2810  -2.703   8.570   6.756 -0.0970  0.2857 -0.7160
    9MOL   H235 2811  -2.611   8.719   6.759  0.4612 -0.1292 -0.3970
    9MOL   H236 2812  -2.903   8.600   6.958  0.5725  0.5944  0.5480
    9MOL   H237 2813  -3.111   8.738   6.983  0.9068  1.1572  2.0387
    9MOL   H238 2814  -3.208   9.020   6.784 -2.2875  0.7170  1.4877
    9MOL   H239 2815  -3.251   8.909   6.910  0.3273 -1.3010  0.5989
    9MOL   H240 2816  -2.962   9.028   6.725  1.1871  0.5288  2.1959
    9MOL   H241 2817  -2.741   8.889   6.691  0.6826  1.6719  0.7324
    9MOL   C242 2818  -3.146   9.088   6.977 -0.4849 -0.2745 -0.9982
    9MOL   C243 2819  -3.275   9.174   7.002 -0.5011 -0.7185  0.0681
    9MOL   C244 2820  -3.275   9.315   6.985  0.0336  0.0766 -0.5392
    9MOL   C245 2821  -3.387   9.401   6.989  0.0913 -0.1971 -0.3543
    9MOL   C246 2822  -3.508   9.328   6.995  0.2985 -0.3026  0.1384
    9MOL   C247 2823  -3.641   9.405   6.992 -0.8433 -0.5364 -0.3711
    9MOL   C248 2824  -3.508   9.185   7.015  0.2535 -0.0416 -0.2778
    9MOL   C249 2825  -3.391   9.111   7.023  0.1900 -0.0669 -0.2324
    9MOL   H250 2826  -3.128   9.040   7.073  0.6904 -0.4473 -1.2996
    9MOL   H251 2827  -3.062   9.153   6.952  0.6191 -1.7908 -1.2978
    9MOL   H252 2828  -3.187   9.373   6.961 -0.7201  2.8229  2.9620
    9MOL   H253 2829  -3.383   9.509   6.982  1.0418 -0.1022  1.3374
    9MOL   H254 2830  -3.676   9.459   6.904 -0.8986 -2.0706 -1.3130
    9MOL   H255 2831  -3.717   9.327   6.990 -1.4049 -0.0170  0.3470
    9MOL   H256 2832  -3.604   9.136   7.015  1.8178 -3.2289 -1.6554
    9MOL   H257 2833  -3.404   9.006   7.045 -2.5137  0.5234  1.2314
    9MOL   C258 2834  -3.644   9.486   7.124 -0.4869  0.2363  0.1333
    9MOL   C259 2835  -3.779   9.558   7.136 -0.0572  0.0355 -0.6368
    9MOL   C260 2836  -3.809   9.673   7.061 -0.0895  0.4707 -0.7148
    9MOL   C261 2837  -3.941   9.725   7.067 -0.7739 -0.1442 -0.6067
    9MOL   C262 2838  -4.041   9.662   7.150  0.4721  0.3482 -0.3521
    9MOL   C263 2839  -4.179   9.725   7.167 -0.0800  0.8002 -0.1150
    9MOL   C264 2840  -4.004   9.547   7.224 -0.1917  0.3506 -0.1954
    9MOL   C265 2841  -3.875   9.497   7.221  0.0636  0.0559 -0.7508
    9MOL   H266 2842  -3.557   9.550   7.139  0.6467 -1.2981  0.2542
    9MOL   H267 2843  -3.636   9.420   7.210 -0.9850  0.0065  0.0026
    9MOL   H268 2844  -3.737   9.720   6.995 -0.1025 -0.4678 -1.4042
    9MOL   H269 2845  -3.958   9.817   7.015  0.5838  0.0881 -0.6588
    9MOL   H270 2846  -4.207   9.767   7.071  0.1142  4.7305  1.4450
    9MOL   H271 2847  -4.258   9.651   7.180  0.3665  0.4610  0.7272
    9MOL   H272 2848  -4.082   9.504   7.285 -1.9139  2.5867 -0.7440
    9MOL   H273 2849  -3.850   9.404   7.269 -1.6887  1.0962  2.3347
    9MOL   C274 2850  -4.189   9.813   7.294 -0.0728 -0.4618  0.1985
    9MOL   C275 2851  -4.324   9.885   7.295  0.2597  0.2403 -0.1718
    9MOL   C276 2852  -4.417   9.831   7.390  0.5099 -0.3026 -1.0993
    9MOL   C277 2853  -4.545   9.882   7.390 -0.0634 -0.0038  0.1152
    9MOL   C278 2854  -4.578   9.994   7.310 -0.3061 -0.0421  0.1264
    9MOL   C279 2855  -4.714  10.058   7.330 -0.0287  0.8221  0.0035
    9MOL   C280 2856  -4.483  10.058   7.229 -0.4087 -0.5139 -0.5478
    9MOL   C281 2857  -4.358   9.998   7.216  0.6385  0.6529  0.6573
    9MOL   H282 2858  -4.164   9.760   7.386  2.5179  1.0267  0.3991
    9MOL   H283 2859  -4.109   9.886   7.285 -2.2053  2.2853  2.4753
    9MOL   H284 2860  -4.405   9.735   7.439 -0.3542 -0.7265 -1.6948
    9MOL   H285 2861  -4.632   9.840   7.438 -2.9168  1.2834 -3.6087
    9MOL   H286 2862  -4.758  10.027   7.424  2.4533  0.0788  0.9457
    9MOL   H287 2863  -4.701  10.166   7.343 -0.7717  0.9824 -0.5431
    9MOL   H288 2864  -4.510  10.149   7.178  1.0770  0.5337  0.4760
    9MOL   H289 2865  -4.282  10.038   7.150  0.5576 -0.7212 -0.2946
    9MOL   C290 2866  -4.813  10.028   7.209 -0.7954  0.4123 -0.6342
    9MOL   C291 2867  -4.951  10.090   7.223 -1.0025  0.1049 -0.1293
    9MOL   C292 2868  -4.977  10.230   7.211  0.2230  0.2819  0.2168
    9MOL   C293 2869  -5.108  10.279   7.228 -0.3281 -0.3292 -0.1524
    9MOL   C294 2870  -5.213  10.188   7.245 -0.3093  0.0816  0.1954
    9MOL   C295 2871  -5.359  10.232   7.248  0.0760 -0.0274  0.5254
    9MOL   C296 2872  -5.192  10.051   7.247  0.1223 -0.5804 -0.6086
    9MOL   C297 2873  -5.057  10.004   7.235 -0.0735  0.2421  0.2350
    9MOL   H298 2874  -4.818   9.920   7.201  1.5256  0.3571 -1.6208
    9MOL   H299 2875  -4.757  10.056   7.120  0.4019  1.9694  0.5713
    9MOL   H300 2876  -4.896  10.299   7.189 -0.0173 -0.3256 -2.8397
    9MOL   H301 2877  -5.124  10.385   7.221 -0.5348 -0.2609  1.1722
    9MOL   H302 2878  -5.386  10.274   7.151  4.4498  1.9540  0.0651
    9MOL   H303 2879  -5.426  10.147   7.260 -1.4038  0.9367 -0.6601
    9MOL   H304 2880  -5.273   9.980   7.257  0.6866 -1.5078 -2.3845
    9MOL   H305 2881  -5.057   9.896   7.234  1.1608  0.2190  1.2771
    9MOL   C306 2882  -5.395  10.338   7.356  0.7059 -0.2257  0.5042
    9MOL   C307 2883  -5.539  10.365   7.357  0.2048  0.5268  0.3381
    9MOL   C308 2884  -5.596  10.459   7.267 -0.7727 -0.3964  0.1819
    9MOL   C309 2885  -5.735  10.479   7.267 -0.4870 -0.4473 -1.1235
    9MOL   C310 2886  -5.817  10.409   7.363 -0.2846  0.2622  0.1709
    9MOL   C311 2887  -5.969  10.424   7.367 -0.9889 -0.2334  0.5843
    9MOL   C312 2888  -5.756  10.315   7.457  0.0205  0.2520  0.1647
    9MOL   C313 2889  -5.621  10.297   7.449 -0.4626 -0.0116  0.2341
    9MOL   H314 2890  -5.341  10.431   7.340 -0.1301  0.5720  2.2332
    9MOL   H315 2891  -5.356  10.298   7.449  0.5150 -0.5854  0.4321
    9MOL   H316 2892  -5.543  10.516   7.192  3.3523 -2.4159  1.4521
    9MOL   H317 2893  -5.776  10.537   7.186 -0.8066 -0.4710 -0.9791
    9MOL   H318 2894  -5.988  10.517   7.421  0.3177 -0.6843  1.8633
    9MOL   H319 2895  -6.014  10.432   7.268  0.0486  0.4822  0.1599
    9MOL   H320 2896  -5.814  10.268   7.535 -1.6297  0.2569 -1.0451
    9MOL   H321 2897  -5.578  10.218   7.509  1.1314  0.8357  0.2149
    9MOL   H322 2898  -6.011  10.337   7.416 -1.8994  0.5356  1.1905
   10MOL     C1 2899   2.211   0.857   2.291  0.6052 -0.5037  0.1738
   10MOL     C2 2900   2.333   0.776   2.264 -0.1103 -0.1987  0.0317
   10MOL     C3 2901   2.346   0.639   2.280 -0.3293 -0.9545  0.4697
   10MOL     C4 2902   2.464   0.571   2.261  0.0728  0.2257 -0.3077
   10MOL     C5 2903   2.577   0.639   2.211  0.3171 -0.4928 -0.3855
   10MOL     C6 2904   2.707   0.565   2.168  0.9877 -0.3738 -0.3315
   10MOL     C7 2905   2.560   0.775   2.183 -0.2918 -0.1563 -0.5656
   10MOL     C8 2906   2.443   0.849   2.211 -0.0905 -0.9336  0.0498
   10MOL     H9 2907   2.247   0.951   2.332  1.1189 -0.7120  0.2034
   10MOL    H10 2908   2.161   0.889   2.199  1.2811  0.8077  0.2467
   10MOL    H11 2909   2.259   0.584   2.314  0.5412 -1.4962  1.8554
   10MOL    H12 2910   2.465   0.463   2.268 -2.8158  0.3241  2.8110
   10MOL    H13 2911   2.708   0.458   2.190  1.0937 -0.4183 -0.5572
   10MOL    H14 2912   2.711   0.572   2.060 -2.9921  0.8873 -0.4730
   10MOL    H15 2913   2.647   0.830   2.151 -0.9343  1.3736  0.2397
   10MOL    H16 2914   2.436   0.956   2.200 -0.6300 -1.1094 -1.3913
   10MOL    H17 2915   2.142   0.822   2.367 -1.1615  2.2801 -0.0744
   10MOL    C18 2916   2.831   0.627   2.233 -0.5309 -0.4480 -0.4493
   10MOL    C19 2917   2.957   0.542   2.226 -0.5927  0.0314  0.5563
   10MOL    C20 2918   3.025   0.499   2.108 -0.2489  0.3116  0.4545
   10MOL    C21 2919   3.141   0.422   2.116 -0.4133 -0.7086 -0.1662
   10MOL    C22 2920   3.196   0.390   2.245  0.3855  0.6885 -0.4459
   10MOL    C23 2921   3.328   0.322   2.255  0.3037  0.7430 -0.2134
   10MOL    C24 2922   3.128   0.423   2.360 -0.0837 -0.0352  0.2271
   10MOL    C25 2923   3.009   0.497   2.352  0.3886 -0.1139 -0.6926
   10MOL    H26 2924   2.867   0.718   2.186  0.5285  1.2870  3.5120
   10MOL    H27 2925   2.805   0.651   2.336 -0.0664 -0.7793 -0.2509
   10MOL    H28 2926   2.985   0.522   2.011 -1.8711  1.5227  1.3847
   10MOL    H29 2927   3.187   0.387   2.025  2.2756 -1.4455  1.4093
   10MOL    H30 2928   3.308   0.224   2.212  1.3543  0.0085  0.9413
   10MOL    H31 2929   3.358   0.310   2.360  0.8986  1.1552 -0.3288
   10MOL    H32 2930   3.179   0.402   2.452  0.7948  3.5561  0.6199
   10MOL    H33 2931   2.963   0.528   2.445  1.1757 -3.2585  0.8031
   10MOL    C34 2932   3.439   0.397   2.182 -0.2104  0.6609 -0.4650
   10MOL    C35 2933   3.577   0.331   2.187 -0.0260  0.0932 -0.2046
   10MOL    C36 2934   3.646   0.289   2.069 -0.9878  0.2757 -0.2106
   10MOL    C37 2935   3.785   0.248   2.070 -0.2179  0.1484  0.0057
   10MOL    C38 2936   3.849   0.236   2.192 -0.9319 -1.2502 -0.1909
   10MOL    C39 2937   3.995   0.194   2.205 -0.1481 -0.5661 -0.3671
   10MOL    C40 2938   3.781   0.269   2.313  0.0556 -0.0770  0.3727
   10MOL    C41 2939   3.647   0.309   2.308 -0.2159 -0.5169 -0.5515
   10MOL    H42 2940   3.461   0.493   2.231 -0.4224 -0.9264  2.8923
   10MOL    H43 2941   3.410   0.423   2.080  0.5999  1.0356 -0.6092
   10MOL    H44 2942   3.582   0.293   1.982 -3.2540 -0.1025  1.4026
   10MOL    H45 2943   3.821   0.218   1.972 -0.5262 -0.4418  0.0748
   10MOL    H46 2944   4.052   0.286   2.192 -0.7113 -0.4277 -2.0002
   10MOL    H47 2945   4.015   0.160   2.306 -2.1604  1.9011  0.9059
   10MOL    H48 2946   3.837   0.276   2.405 -0.3919  0.3530  0.6063
   10MOL    H49 2947   3.596   0.341   2.397  0.5744 -0.0148 -0.2779
   10MOL    C50 2948   4.047   0.087   2.098  0.6789 -0.1497  0.0010
   10MOL    C51 2949   4.193   0.041   2.120 -0.3239 -0.4943 -0.1124
   10MOL    C52 2950   4.233  -0.014   2.238 -0.4177  0.4831  0.8152
   10MOL    C53 2951   4.371  -0.032   2.268  0.1620  0.3739 -0.9083
   10MOL    C54 2952   4.461  -0.006   2.167 -0.0373  0.5718 -0.5880
   10MOL    C55 2953   4.616  -0.032   2.171  0.3578  0.1212  0.0635
   10MOL    C56 2954   4.419   0.044   2.041 -0.0038 -0.0794  0.5982
   10MOL    C57 2955   4.286   0.074   2.018  0.7675 -0.1949  0.2719
   10MOL    H58 2956   4.034   0.129   1.999 -0.2208 -3.8397 -1.5245
   10MOL    H59 2957   3.981   0.001   2.111  2.9522 -1.8178  0.8744
   10MOL    H60 2958   4.160  -0.037   2.315 -0.2983  2.5342  1.5848
   10MOL    H61 2959   4.402  -0.062   2.366  0.1206  2.8731 -0.0957
   10MOL    H62 2960   4.670   0.056   2.138  0.4133  0.4728  1.0761
   10MOL    H63 2961   4.649  -0.055   2.272  2.1570 -0.1154 -0.5709
   10MOL    H64 2962   4.484   0.082   1.964 -0.4804 -0.7154 -0.1339
   10MOL    H65 2963   4.259   0.134   1.932  2.6587  0.3794  0.0603
   10MOL    C66 2964   4.657  -0.144   2.073 -0.1489 -0.2172 -0.2903
   10MOL    C67 2965   4.810  -0.172   2.098  0.5670 -0.4031 -0.9497
   10MOL    C68 2966   4.845  -0.236   2.218 -0.6410 -0.1989  0.5304
   10MOL    C69 2967   4.987  -0.247   2.255  0.2113  0.1918  0.1890
   10MOL    C70 2968   5.084  -0.206   2.158  0.0477  0.6891  0.0100
   10MOL    C71 2969   5.231  -0.220   2.187  0.5162  0.0784 -0.4535
   10MOL    C72 2970   5.040  -0.143   2.040 -0.8092 -0.2041 -0.8696
   10MOL    C73 2971   4.906  -0.123   2.017 -0.2999 -0.1473 -0.5763
   10MOL    H74 2972   4.635  -0.114   1.971 -2.2737  3.6000  1.1933
   10MOL    H75 2973   4.601  -0.235   2.094  0.6915 -0.6840 -0.0408
   10MOL    H76 2974   4.768  -0.275   2.284 -1.5670  1.3222  0.3925
   10MOL    H77 2975   5.015  -0.267   2.357 -1.4057  0.0386  0.6174
   10MOL    H78 2976   5.255  -0.156   2.271  0.3143 -1.4179  0.7662
   10MOL    H79 2977   5.284  -0.195   2.095  0.8591  3.4822  0.6044
   10MOL    H80 2978   5.107  -0.099   1.968 -1.4249  2.3852  0.1063
   10MOL    H81 2979   4.868  -0.066   1.933  1.3534  0.7978 -0.7071
   10MOL    C82 2980   5.250  -0.367   2.214  0.7078 -0.2747  0.0831
   10MOL    C83 2981   5.393  -0.407   2.197 -0.3910  1.4744  0.1152
   10MOL    C84 2982   5.471  -0.425   2.314  0.6285  0.3266 -0.2020
   10MOL    C85 2983   5.605  -0.465   2.310  0.0061  0.1460 -0.5582
   10MOL    C86 2984   5.661  -0.498   2.181 -0.3467 -0.2691  0.3162
   10MOL    C87 2985   5.807  -0.542   2.169 -0.3105 -0.6690  0.4058
   10MOL    C88 2986   5.582  -0.493   2.063 -0.3181 -0.5872  0.0047
   10MOL    C89 2987   5.448  -0.444   2.072  0.0413 -0.0066  0.0791
   10MOL    H90 2988   5.200  -0.435   2.145 -0.1556  0.0289  0.4011
   10MOL    H91 2989   5.221  -0.383   2.318 -1.4290 -2.1722 -0.7585
   10MOL    H92 2990   5.437  -0.398   2.413 -1.0779  1.5584 -1.0941
   10MOL    H93 2991   5.665  -0.472   2.399 -0.9043  1.5813  0.1859
   10MOL    H94 2992   5.870  -0.494   2.245 -0.1870  0.2662 -0.2771
   10MOL    H95 2993   5.846  -0.488   2.082  1.3336 -1.2054  0.7860
   10MOL    H96 2994   5.622  -0.508   1.964  1.4401 -0.7114  0.7154
   10MOL    H97 2995   5.392  -0.433   1.981 -2.4810  0.2467  1.6095
   10MOL    C98 2996   5.839  -0.690   2.166  0.3189  0.2090 -0.8495
   10MOL    C99 2997   5.987  -0.731   2.182  0.7797  0.6006 -0.8535
   10MOL   C100 2998   6.049  -0.765   2.067  0.2089  0.2364 -0.0613
   10MOL   C101 2999   6.184  -0.807   2.073  0.0009  0.5188  0.4750
   10MOL   C102 3000   6.251  -0.813   2.201  0.5815  0.3166 -0.3246
   10MOL   C103 3001   6.394  -0.862   2.206 -0.5402  0.3764 -0.6243
   10MOL   C104 3002   6.184  -0.774   2.316 -0.5449 -0.2579  0.6908
   10MOL   C105 3003   6.047  -0.730   2.309  0.0538  0.2245 -0.1742
   10MOL   H106 3004   5.788  -0.721   2.075 -1.6530 -0.0345  0.3232
   10MOL   H107 3005   5.789  -0.743   2.246  2.2501  1.1547  1.0475
   10MOL   H108 3006   5.996  -0.752   1.974  2.3622  1.2628 -1.1935
   10MOL   H109 3007   6.233  -0.831   1.979 -1.0917 -2.7841  0.6915
   10MOL   H110 3008   6.470  -0.784   2.194 -0.2190  0.0617 -0.6355
   10MOL   H111 3009   6.405  -0.901   2.307  5.1620 -1.7830 -1.8581
   10MOL   H112 3010   6.242  -0.766   2.407  1.7130 -0.6871 -0.6841
   10MOL   H113 3011   5.997  -0.690   2.396  0.2066 -1.5380  0.7577
   10MOL   C114 3012   6.438  -0.978   2.107  0.2032  0.4750  0.0709
   10MOL   C115 3013   6.586  -1.014   2.102  0.3431  0.0829 -0.1481
   10MOL   C116 3014   6.655  -1.051   2.215  0.2125 -0.4548 -0.1430
   10MOL   C117 3015   6.787  -1.086   2.209 -0.0823 -0.0009 -0.4854
   10MOL   C118 3016   6.850  -1.096   2.081  0.3702 -0.3359  0.7118
   10MOL   C119 3017   6.999  -1.138   2.072 -0.2020 -0.1877  0.1148
   10MOL   C120 3018   6.783  -1.058   1.965 -0.7782  0.1294 -0.0530
   10MOL   C121 3019   6.650  -1.013   1.975  0.1640 -0.8260  0.3077
   10MOL   H122 3020   6.411  -0.962   2.003  2.6037 -0.9827 -0.8235
   10MOL   H123 3021   6.380  -1.067   2.133  1.3576 -0.1736  0.5035
   10MOL   H124 3022   6.603  -1.036   2.309  0.5398  2.0273 -0.3139
   10MOL   H125 3023   6.834  -1.093   2.306  0.8919 -1.5156 -1.0504
   10MOL   H126 3024   7.034  -1.147   1.969 -0.1363 -1.4771  0.2378
   10MOL   H127 3025   7.054  -1.056   2.116  0.3766 -1.0285  0.9842
   10MOL   H128 3026   6.833  -1.072   1.870 -0.6853 -0.9297  0.1437
   10MOL   H129 3027   6.592  -0.984   1.889 -1.5013 -3.4898  0.4917
   10MOL   C130 3028   7.019  -1.282   2.126  0.4184 -1.1023 -0.5256
   10MOL   C131 3029   7.158  -1.334   2.105 -0.0295 -0.4678 -0.1369
   10MOL   C132 3030   7.200  -1.357   1.971 -0.3947  0.4914  0.4330
   10MOL   C133 3031   7.319  -1.420   1.942 -0.3501 -0.0273  0.5374
   10MOL   C134 3032   7.400  -1.466   2.047  0.8510 -0.6776 -0.1676
   10MOL   C135 3033   7.533  -1.540   2.016  0.1348  0.1042 -0.2839
   10MOL   C136 3034   7.360  -1.446   2.178  1.0891 -0.4502 -0.4689
   10MOL   C137 3035   7.238  -1.382   2.209  0.0585 -0.2072 -0.6200
   10MOL   H138 3036   6.954  -1.351   2.072 -2.1300  1.0110 -0.2815
   10MOL   H139 3037   6.981  -1.297   2.227 -0.8839 -0.0942 -0.8461
   10MOL   H140 3038   7.145  -1.312   1.890 -1.6090 -1.6959  0.0045
   10MOL   H141 3039   7.343  -1.427   1.837  0.6556  0.2892  0.7346
   10MOL   H142 3040   7.558  -1.518   1.912  0.3684 -0.6241 -0.3842
   10MOL   H143 3041   7.612  -1.508   2.084  0.3212 -1.5377  0.2873
   10MOL   H144 3042   7.415  -1.482   2.264  0.6330 -1.0766 -0.4336
   10MOL   H145 3043   7.209  -1.364   2.312 -2.4176  1.2444 -1.5090
   10MOL   C146 3044   7.522  -1.689   2.040 -0.1740 -0.0514 -0.1785
   10MOL   C147 3045   7.639  -1.769   1.983 -0.5884  0.1023  0.0615
   10MOL   C148 3046   7.626  -1.911   1.977 -0.5913 -0.5291  0.2765
   10MOL   C149 3047   7.728  -1.992   1.922  0.1164 -0.1714 -0.0664
   10MOL   C150 3048   7.855  -1.930   1.879  0.7582 -0.5003 -0.3473
   10MOL   C151 3049   7.961  -2.024   1.831  0.1878 -0.3704  0.4561
   10MOL   C152 3050   7.869  -1.788   1.897 -0.8817  0.2425 -0.5530
   10MOL   C153 3051   7.768  -1.713   1.950 -0.2460 -0.5604 -1.3133
   10MOL   H154 3052   7.431  -1.719   1.988 -0.4897  0.6614 -0.0410
   10MOL   H155 3053   7.511  -1.718   2.144 -0.3918  3.3500  0.7942
   10MOL   H156 3054   7.533  -1.947   2.019 -0.5789  0.6652  1.3825
   10MOL   H157 3055   7.698  -2.095   1.910 -0.3081 -0.2505  1.4916
   10MOL   H158 3056   7.913  -2.105   1.775 -0.3106  0.0261  0.3129
   10MOL   H159 3057   8.036  -1.969   1.773 -0.4948 -1.3867 -1.4441
   10MOL   H160 3058   7.963  -1.737   1.881 -0.3706 -0.9583 -1.4058
   10MOL   H161 3059   7.793  -1.610   1.968  0.1704 -0.6635 -1.2879
   10MOL   C162 3060   8.036  -2.086   1.951  0.3374  0.1335 -0.1131
   10MOL   C163 3061   8.131  -2.192   1.901 -0.4556  1.0530  0.2133
   10MOL   C164 3062   8.112  -2.324   1.944 -0.4001  0.2501 -0.4702
   10MOL   C165 3063   8.213  -2.423   1.916  0.3674  0.1006 -0.6374
   10MOL   C166 3064   8.328  -2.383   1.838 -0.2893 -0.0788 -0.0181
   10MOL   C167 3065   8.437  -2.479   1.813  0.2728  0.2663  0.6712
   10MOL   C168 3066   8.336  -2.254   1.787 -0.5869  0.1105 -0.2380
   10MOL   C169 3067   8.238  -2.155   1.818 -0.6388 -0.7191 -0.1436
   10MOL   H170 3068   7.966  -2.152   2.002  1.4900 -1.9856 -1.1789
   10MOL   H171 3069   8.085  -2.019   2.021  1.6751 -1.2160  0.2548
   10MOL   H172 3070   8.028  -2.343   2.008 -0.3469  1.2333 -0.1042
   10MOL   H173 3071   8.201  -2.521   1.960 -1.7574 -0.3032 -1.9994
   10MOL   H174 3072   8.523  -2.415   1.830  0.1486  0.6186  0.0120
   10MOL   H175 3073   8.433  -2.560   1.885  0.0564  0.0817  0.4516
   10MOL   H176 3074   8.422  -2.227   1.728 -1.2858 -0.4699 -1.5389
   10MOL   H177 3075   8.248  -2.054   1.782  1.8844 -1.1960 -0.9238
   10MOL   C178 3076   8.447  -2.522   1.669 -0.6063  0.0642  0.7973
   10MOL   C179 3077   8.564  -2.611   1.630 -0.0206  0.0813 -0.4717
   10MOL   C180 3078   8.535  -2.725   1.555 -0.2558  0.6590 -0.2761
   10MOL   C181 3079   8.645  -2.797   1.497 -0.0559  0.5302 -0.0620
   10MOL   C182 3080   8.776  -2.767   1.534  0.0283 -0.3567  0.0790
   10MOL   C183 3081   8.885  -2.852   1.479 -0.8541 -0.3583  0.1704
   10MOL   C184 3082   8.800  -2.653   1.613 -0.4593  0.0770  0.1152
   10MOL   C185 3083   8.695  -2.574   1.656 -0.0752 -0.6766  0.3079
   10MOL   H186 3084   8.461  -2.434   1.607 -0.6576  0.9603  2.0260
   10MOL   H187 3085   8.352  -2.566   1.639  1.2920 -1.3739 -3.4143
   10MOL   H188 3086   8.430  -2.749   1.541 -0.1986 -0.0510  0.4747
   10MOL   H189 3087   8.628  -2.885   1.437 -0.3168  1.2495 -1.0600
   10MOL   H190 3088   8.879  -2.857   1.371  0.4940 -1.4271  0.1303
   10MOL   H191 3089   8.983  -2.808   1.500 -0.5876 -1.6178  1.6751
   10MOL   H192 3090   8.895  -2.626   1.656  0.2947 -0.2501 -1.3478
   10MOL   H193 3091   8.716  -2.480   1.705  0.1152  0.3977 -1.7630
   10MOL   C194 3092   8.895  -2.999   1.543  0.1796 -0.3913 -0.1468
   10MOL   C195 3093   9.022  -3.069   1.502  0.2697  1.0703  0.1358
   10MOL   C196 3094   9.032  -3.143   1.379  0.0000 -0.2048 -0.0935
   10MOL   C197 3095   9.158  -3.212   1.357  0.0065 -0.9677  0.2794
   10MOL   C198 3096   9.269  -3.207   1.447  0.0305 -0.3651 -1.2650
   10MOL   C199 3097   9.401  -3.268   1.411  0.2505  0.5401  0.0535
   10MOL   C200 3098   9.246  -3.136   1.572 -0.2531 -0.7082  0.7093
   10MOL   C201 3099   9.125  -3.077   1.600 -0.1951  0.3716 -0.0434
   10MOL   H202 3100   8.818  -3.069   1.513  1.7457 -1.7996 -0.9582
   10MOL   H203 3101   8.904  -2.998   1.652  2.3986 -1.1847 -0.3104
   10MOL   H204 3102   8.953  -3.138   1.305 -0.4716  2.4980  0.5283
   10MOL   H205 3103   9.165  -3.257   1.259  3.4793 -1.3364  0.6328
   10MOL   H206 3104   9.403  -3.308   1.310 -0.9024 -0.1995  0.3218
   10MOL   H207 3105   9.479  -3.192   1.415  0.0532  0.7271  0.4753
   10MOL   H208 3106   9.329  -3.120   1.640 -0.3573  0.3367  0.5928
   10MOL   H209 3107   9.097  -3.039   1.697 -0.5510 -1.8999  0.7809
   10MOL   C210 3108   9.429  -3.382   1.507 -0.9393  0.0357  0.0473
   10MOL   C211 3109   9.568  -3.446   1.477 -0.2402  0.1785  0.2908
   10MOL   C212 3110   9.576  -3.544   1.375  0.0128  0.4032  0.0355
   10MOL   C213 3111   9.706  -3.593   1.340 -0.5689  0.3401 -0.1961
   10MOL   C214 3112   9.813  -3.559   1.425  0.0202  0.5939  1.0415
   10MOL   C215 3113   9.946  -3.616   1.390 -0.0051 -0.3540  0.6644
   10MOL   C216 3114   9.802  -3.459   1.528 -0.0410 -0.1890  0.5759
   10MOL   C217 3115   9.676  -3.408   1.557 -0.0472 -0.6308  0.1325
   10MOL   H218 3116   9.351  -3.458   1.511 -0.9239  0.0118 -0.1121
   10MOL   H219 3117   9.436  -3.331   1.603 -1.3825 -0.1414  0.1732
   10MOL   H220 3118   9.487  -3.575   1.324  0.1348 -0.7758  0.5232
   10MOL   H221 3119   9.726  -3.653   1.252 -2.1151  0.0345 -0.3562
   10MOL   H222 3120   9.936  -3.684   1.305 -0.2746 -0.0306  0.4353
   10MOL   H223 3121  10.003  -3.530   1.354 -0.0330 -1.2684 -1.6706
   10MOL   H224 3122   9.882  -3.423   1.592 -0.0714 -1.2210  1.2139
   10MOL   H225 3123   9.663  -3.341   1.641 -2.4359  0.6877 -1.2303
   10MOL   C226 3124  10.020  -3.690   1.505 -0.4604  0.3784 -0.2667
   10MOL   C227 3125  10.143  -3.770   1.471  0.2325  0.1511  0.4235
   10MOL   C228 3126  10.163  -3.866   1.369  0.8448  0.3173 -0.1304
   10MOL   C229 3127  10.291  -3.917   1.343  1.0256  0.0475 -0.0945
   10MOL   C230 3128  10.404  -3.886   1.416  0.1408 -0.5533  0.3126
   10MOL   C231 3129  10.534  -3.941   1.363 -0.4385  0.1189 -0.3359
   10MOL   C232 3130  10.380  -3.805   1.530  0.8482 -0.1443 -0.0069
   10MOL   C233 3131  10.252  -3.751   1.561  0.4330  0.4582 -0.4106
   10MOL   H234 3132   9.951  -3.771   1.531 -1.3034  1.5627  1.2575
   10MOL   H235 3133  10.022  -3.639   1.601 -0.4006 -0.8731  0.4047
   10MOL   H236 3134  10.082  -3.905   1.309  2.4156 -2.6057 -0.4499
   10MOL   H237 3135  10.301  -3.979   1.255 -0.6024 -0.5944  0.1570
   10MOL   H238 3136  10.520  -4.000   1.272 -0.8696 -0.9876  0.4354
   10MOL   H239 3137  10.599  -3.857   1.342  1.4608 -0.8566  1.4626
   10MOL   H240 3138  10.468  -3.768   1.580  0.6377 -0.7023  0.7821
   10MOL   H241 3139  10.239  -3.685   1.645  0.3514 -1.2532  0.9588
   10MOL   C242 3140  10.601  -4.022   1.477 -0.2307  0.2216  0.5697
   10MOL   C243 3141  10.735  -4.085   1.439  0.1699 -0.2441  0.3761
   10MOL   C244 3142  10.731  -4.196   1.348 -0.0481  0.1049 -0.1181
   10MOL   C245 3143  10.849  -4.265   1.329 -0.4387  0.4488 -0.0347
   10MOL   C246 3144  10.974  -4.231   1.390  0.0747  0.7234  0.3759
   10MOL   C247 3145  11.103  -4.314   1.359 -0.6219 -0.3022 -0.7751
   10MOL   C248 3146  10.973  -4.124   1.480  0.3497 -0.5347 -0.1430
   10MOL   C249 3147  10.856  -4.045   1.503  0.0783 -0.9679  0.1900
   10MOL   H250 3148  10.621  -3.953   1.560  1.4262  1.9658 -1.2279
   10MOL   H251 3149  10.532  -4.099   1.511 -0.4315  0.0999 -0.1096
   10MOL   H252 3150  10.639  -4.228   1.302  0.5644 -2.0754  0.1432
   10MOL   H253 3151  10.847  -4.357   1.271  0.5381 -0.5756  1.5191
   10MOL   H254 3152  11.183  -4.282   1.425 -0.7213 -1.0055 -0.3072
   10MOL   H255 3153  11.081  -4.417   1.387 -0.3837 -0.6021 -1.6642
   10MOL   H256 3154  11.061  -4.098   1.537 -1.2713  2.9605  0.9230
   10MOL   H257 3155  10.844  -3.968   1.578 -0.7225 -0.3672 -0.5406
   10MOL   C258 3156  11.149  -4.321   1.209 -0.3601 -0.0325 -0.7719
   10MOL   C259 3157  11.279  -4.393   1.200  0.1720  1.0305  0.0171
   10MOL   C260 3158  11.409  -4.337   1.219  0.3756 -0.2478  0.1560
   10MOL   C261 3159  11.523  -4.415   1.225  0.2940 -0.3966 -0.0236
   10MOL   C262 3160  11.517  -4.552   1.217  0.2621 -0.1998 -0.5154
   10MOL   C263 3161  11.646  -4.639   1.228  0.4205 -0.0959 -0.3135
   10MOL   C264 3162  11.387  -4.609   1.214 -0.4734  0.1291  0.3087
   10MOL   C265 3163  11.267  -4.533   1.207  0.0841  0.0895  0.1990
   10MOL   H266 3164  11.159  -4.225   1.159  0.0242  0.4635  0.2371
   10MOL   H267 3165  11.078  -4.374   1.146  0.6196  1.7897 -3.4753
   10MOL   H268 3166  11.405  -4.229   1.215 -0.4640 -0.3103 -1.2179
   10MOL   H269 3167  11.619  -4.368   1.237  1.0775 -2.6005  2.6704
   10MOL   H270 3168  11.727  -4.571   1.254 -0.7818  1.9037 -1.6853
   10MOL   H271 3169  11.636  -4.696   1.321 -0.4823 -0.6637 -0.7462
   10MOL   H272 3170  11.384  -4.717   1.226 -0.8512  0.2655  1.5426
   10MOL   H273 3171  11.168  -4.575   1.204 -0.2041  0.7183  0.7916
   10MOL   C274 3172  11.671  -4.700   1.090 -1.3616  0.1605  0.0154
   10MOL   C275 3173  11.803  -4.770   1.088 -0.4342 -0.0106  0.4446
   10MOL   C276 3174  11.923  -4.696   1.104  0.5893  0.0879  0.2104
   10MOL   C277 3175  12.047  -4.761   1.108  0.2643 -0.1024  0.3342
   10MOL   C278 3176  12.057  -4.892   1.059 -0.2452  0.0901  0.1022
   10MOL   C279 3177  12.192  -4.960   1.046  0.3185  0.3853 -1.0904
   10MOL   C280 3178  11.935  -4.971   1.037 -0.5177  0.0219 -0.1209
   10MOL   C281 3179  11.810  -4.905   1.059 -0.3265 -0.1307 -0.3318
   10MOL   H282 3180  11.588  -4.760   1.053  0.1528 -1.5081 -0.7355
   10MOL   H283 3181  11.682  -4.614   1.024 -0.7564 -0.1385 -0.2738
   10MOL   H284 3182  11.923  -4.591   1.128  0.2635  0.4768 -1.4382
   10MOL   H285 3183  12.135  -4.699   1.113  1.1933 -1.3523 -0.2198
   10MOL   H286 3184  12.272  -4.902   1.091 -0.8391  1.1430  0.0607
   10MOL   H287 3185  12.186  -5.052   1.105 -0.9983  0.9344 -0.3189
   10MOL   H288 3186  11.935  -5.070   0.993  0.1640  0.0304 -0.1447
   10MOL   H289 3187  11.719  -4.959   1.034  0.7076 -1.7559 -0.6662
   10MOL   C290 3188  12.224  -4.988   0.895 -0.2265  0.2890 -0.0850
   10MOL   C291 3189  12.357  -5.064   0.876 -0.1800 -0.0139  0.1006
   10MOL   C292 3190  12.365  -5.203   0.884 -0.1950  0.1002 -0.7064
   10MOL   C293 3191  12.482  -5.274   0.878 -0.6208 -0.0723  0.3990
   10MOL   C294 3192  12.601  -5.202   0.848  0.9769  0.6000 -0.6484
   10MOL   C295 3193  12.732  -5.276   0.804 -0.0156  0.2554  0.7957
   10MOL   C296 3194  12.599  -5.059   0.851  0.0512  0.1559 -0.2453
   10MOL   C297 3195  12.478  -4.988   0.862 -0.5955 -0.2256 -0.6942
   10MOL   H298 3196  12.222  -4.896   0.836 -0.7241  1.1523  1.2577
   10MOL   H299 3197  12.142  -5.041   0.846 -0.1194 -0.6898  0.7939
   10MOL   H300 3198  12.276  -5.250   0.923  0.7007 -1.4322 -0.4598
   10MOL   H301 3199  12.481  -5.382   0.886  2.9581 -0.1660  0.2942
   10MOL   H302 3200  12.703  -5.373   0.765 -2.0436  0.3498  1.9621
   10MOL   H303 3201  12.771  -5.222   0.718 -0.1535 -1.7465 -0.5408
   10MOL   H304 3202  12.687  -4.997   0.846  0.5224 -0.4424  0.5745
   10MOL   H305 3203  12.485  -4.880   0.861  0.4878 -0.2783  1.0308
   10MOL   C306 3204  12.834  -5.286   0.923  0.1722 -0.4144  0.0494
   10MOL   C307 3205  12.969  -5.349   0.880  0.1300 -0.9174  0.5797
   10MOL   C308 3206  13.004  -5.482   0.912 -0.7092 -0.2369  0.4956
   10MOL   C309 3207  13.143  -5.520   0.902  1.0626  0.1742  0.7495
   10MOL   C310 3208  13.235  -5.446   0.825  0.4042 -0.1874 -0.0368
   10MOL   C311 3209  13.375  -5.482   0.813  0.2968  0.4850  0.4496
   10MOL   C312 3210  13.192  -5.320   0.766 -0.0384  0.3867 -0.1102
   10MOL   C313 3211  13.064  -5.279   0.798 -0.7533  0.4402  0.3153
   10MOL   H314 3212  12.798  -5.346   1.006  2.4555 -1.4312  0.3627
   10MOL   H315 3213  12.853  -5.187   0.963 -0.1131  0.0686 -0.9763
   10MOL   H316 3214  12.933  -5.541   0.969 -0.9597 -1.6134 -1.2191
   10MOL   H317 3215  13.179  -5.611   0.948  1.2847 -0.0155  0.2075
   10MOL   H318 3216  13.405  -5.558   0.742 -0.8709  3.0820 -2.9522
   10MOL   H319 3217  13.419  -5.385   0.787  0.3179  0.0122 -1.3137
   10MOL   H320 3218  13.251  -5.262   0.698 -0.2761  0.7885  0.0219
   10MOL   H321 3219  13.034  -5.184   0.757 -0.5140  1.6477  2.8384
   10MOL   H322 3220  13.411  -5.510   0.912  0.1970  2.4734  1.0689
   11MOL     C1 3221   5.975   1.658   1.679 -0.3769  0.1594 -0.0074
   11MOL     C2 3222   5.850   1.742   1.693 -0.3525 -0.2944 -1.0700
   11MOL     C3 3223   5.824   1.801   1.823  0.7778 -0.8500  0.1421
   11MOL     C4 3224   5.701   1.869   1.835 -0.5501  0.0527  0.0658
   11MOL     C5 3225   5.607   1.865   1.733 -0.5989 -0.0552 -0.5404
   11MOL     C6 3226   5.473   1.943   1.760  0.5233  0.5326 -0.6379
   11MOL     C7 3227   5.638   1.808   1.608 -0.0985 -0.1496  0.1830
   11MOL     C8 3228   5.761   1.751   1.587 -0.2448 -0.5419 -0.0425
   11MOL     H9 3229   6.046   1.718   1.623  0.0988 -0.1996  0.2107
   11MOL    H10 3230   6.029   1.640   1.772  1.3547 -0.9527 -1.1877
   11MOL    H11 3231   5.899   1.791   1.900  3.0385  2.7947 -1.4762
   11MOL    H12 3232   5.678   1.922   1.926  0.4675  0.5554  0.0353
   11MOL    H13 3233   5.488   2.030   1.824  2.1053 -0.1169 -0.0850
   11MOL    H14 3234   5.433   1.976   1.664 -0.0849  0.4471 -0.4137
   11MOL    H15 3235   5.567   1.807   1.527  0.0363 -1.2163  0.0747
   11MOL    H16 3236   5.780   1.708   1.489  0.2912  0.9900 -0.6336
   11MOL    H17 3237   5.952   1.563   1.631 -0.8733 -0.6888  1.8566
   11MOL    C18 3238   5.369   1.857   1.827 -0.0574  0.0240 -0.6853
   11MOL    C19 3239   5.234   1.929   1.837 -0.5105  0.2860 -0.0328
   11MOL    C20 3240   5.158   1.943   1.718  0.4584  0.8739 -0.1034
   11MOL    C21 3241   5.027   2.004   1.725 -1.3167 -0.3185  0.0203
   11MOL    C22 3242   4.965   2.033   1.844  0.0155  0.2696 -0.0056
   11MOL    C23 3243   4.824   2.088   1.851  0.0771 -0.3024 -0.4036
   11MOL    C24 3244   5.050   2.026   1.963 -0.4149 -0.3728  0.5473
   11MOL    C25 3245   5.181   1.979   1.964 -0.5699  0.3732 -0.2865
   11MOL    H26 3246   5.343   1.762   1.781 -0.0241 -0.2568 -0.1345
   11MOL    H27 3247   5.398   1.835   1.930 -0.3370  1.7137 -0.2303
   11MOL    H28 3248   5.195   1.906   1.624 -0.9292 -0.7342 -0.0337
   11MOL    H29 3249   4.977   2.014   1.630  2.4387  1.6321 -1.8874
   11MOL    H30 3250   4.757   2.021   1.905  0.5192  0.1551  0.7250
   11MOL    H31 3251   4.772   2.100   1.756 -1.5829 -2.3350  0.1941
   11MOL    H32 3252   5.014   2.072   2.055 -0.6088  1.1691 -0.2723
   11MOL    H33 3253   5.239   1.968   2.054  0.2968  1.1179 -0.7486
   11MOL    C34 3254   4.812   2.229   1.905 -0.2155 -0.1238  0.0890
   11MOL    C35 3255   4.670   2.284   1.903  0.6608 -0.3059  0.1695
   11MOL    C36 3256   4.592   2.284   2.015  0.5679  0.2363 -0.0432
   11MOL    C37 3257   4.458   2.327   2.014 -0.0166  0.0338  0.5888
   11MOL    C38 3258   4.413   2.392   1.902  0.3643 -0.2603 -0.0491
   11MOL    C39 3259   4.269   2.434   1.887  0.0831  0.0154  0.8360
   11MOL    C40 3260   4.491   2.410   1.790 -1.2143  0.7925 -0.6623
   11MOL    C41 3261   4.622   2.353   1.789  1.0380 -0.7097 -0.7269
   11MOL    H42 3262   4.880   2.302   1.861  0.0553 -1.1135 -1.1950
   11MOL    H43 3263   4.834   2.229   2.011  0.6702  3.0680 -0.0520
   11MOL    H44 3264   4.634   2.233   2.100  1.1118  0.9787  0.1349
   11MOL    H45 3265   4.400   2.329   2.105 -1.0092 -1.8553  0.0173
   11MOL    H46 3266   4.255   2.488   1.793  0.4997 -0.0363  0.7464
   11MOL    H47 3267   4.205   2.346   1.872  0.2453 -0.1045  0.8535
   11MOL    H48 3268   4.457   2.465   1.704  0.2711  2.4379 -0.2150
   11MOL    H49 3269   4.685   2.378   1.705  0.2407 -0.1120 -1.1636
   11MOL    C50 3270   4.228   2.526   1.999  0.6825  0.0142 -0.4081
   11MOL    C51 3271   4.079   2.561   2.003  0.5789 -0.2249 -0.1107
   11MOL    C52 3272   3.990   2.523   2.106 -0.2216 -0.2668  0.0984
   11MOL    C53 3273   3.855   2.579   2.106 -0.3648  0.4801  1.1318
   11MOL    C54 3274   3.810   2.650   1.995 -0.3345 -0.6639  0.1287
   11MOL    C55 3275   3.665   2.682   1.978 -0.3561  0.4401  0.3279
   11MOL    C56 3276   3.896   2.685   1.889 -0.3288  0.1668  0.2045
   11MOL    C57 3277   4.028   2.637   1.890 -0.6931  0.1688 -0.4694
   11MOL    H58 3278   4.276   2.623   1.993 -1.3902  1.2337  1.7452
   11MOL    H59 3279   4.263   2.489   2.096  2.9704 -1.4182 -1.7234
   11MOL    H60 3280   4.024   2.455   2.182 -0.3574  0.1003  0.4886
   11MOL    H61 3281   3.786   2.548   2.183 -2.3595 -1.7845 -1.4930
   11MOL    H62 3282   3.644   2.698   1.872  4.4540 -0.7921 -0.9284
   11MOL    H63 3283   3.605   2.593   1.999 -0.9469  1.0246  1.1622
   11MOL    H64 3284   3.871   2.747   1.803 -1.6067  0.1386  0.5378
   11MOL    H65 3285   4.097   2.669   1.813 -0.6930  1.2857 -0.0260
   11MOL    C66 3286   3.610   2.797   2.055 -0.8026  0.1313  0.3666
   11MOL    C67 3287   3.462   2.822   2.031 -0.1060  0.0305  0.2044
   11MOL    C68 3288   3.367   2.755   2.115 -0.2602 -0.4200 -0.3940
   11MOL    C69 3289   3.233   2.787   2.106  0.5666 -0.4216  0.4732
   11MOL    C70 3290   3.186   2.884   2.011  0.0895 -0.1933 -0.3995
   11MOL    C71 3291   3.035   2.910   1.999  0.0098  0.2202  0.2350
   11MOL    C72 3292   3.282   2.944   1.922  0.3748 -0.0646 -0.5717
   11MOL    C73 3293   3.417   2.920   1.935 -0.1323  0.8130  0.4202
   11MOL    H74 3294   3.659   2.892   2.034 -0.8333 -0.1143 -0.8476
   11MOL    H75 3295   3.623   2.775   2.161 -1.5291 -0.7112  0.2822
   11MOL    H76 3296   3.404   2.677   2.181  0.7279  1.1922  1.0049
   11MOL    H77 3297   3.168   2.727   2.166 -1.6034  0.3195 -1.0592
   11MOL    H78 3298   2.994   2.859   2.087  1.4311 -3.8372 -1.3231
   11MOL    H79 3299   2.981   2.869   1.914  1.4823  0.5145 -0.8656
   11MOL    H80 3300   3.254   2.997   1.833  0.5679  0.3815 -0.3652
   11MOL    H81 3301   3.499   2.969   1.884 -0.2288 -0.6449 -1.1789
   11MOL    C82 3302   2.999   3.058   2.003 -0.4920 -0.3871 -0.2032
   11MOL    C83 3303   2.848   3.081   1.993 -0.5260  0.0313 -0.3863
   11MOL    C84 3304   2.790   3.139   1.883 -0.6519  0.4222  0.9384
   11MOL    C85 3305   2.655   3.176   1.883  0.2438 -0.4193 -0.2247
   11MOL    C86 3306   2.579   3.160   1.999  1.0255 -0.2351  0.1762
   11MOL    C87 3307   2.432   3.197   1.998  0.1174  0.4004  0.4562
   11MOL    C88 3308   2.631   3.107   2.118 -0.6022 -0.7057 -0.1085
   11MOL    C89 3309   2.766   3.066   2.112 -0.3040 -0.1604  0.3240
   11MOL    H90 3310   3.043   3.105   1.915 -1.7989  0.2183 -0.5406
   11MOL    H91 3311   3.047   3.097   2.093  0.6915 -0.6508 -0.7050
   11MOL    H92 3312   2.852   3.160   1.797 -0.4724 -1.7680  0.4944
   11MOL    H93 3313   2.605   3.209   1.793  3.3701 -0.2147 -1.9644
   11MOL    H94 3314   2.379   3.115   2.046  0.5018  0.5184  1.0955
   11MOL    H95 3315   2.388   3.205   1.898  1.6957  1.9287 -0.1613
   11MOL    H96 3316   2.570   3.089   2.205 -0.0716  0.8768  0.6050
   11MOL    H97 3317   2.813   3.021   2.198  0.3385  0.8316  0.5058
   11MOL    C98 3318   2.400   3.318   2.084  0.1787 -0.1965  0.4068
   11MOL    C99 3319   2.250   3.348   2.067  0.1665  0.0816  0.0368
   11MOL   C100 3320   2.152   3.310   2.161 -0.2783  0.4805 -0.5899
   11MOL   C101 3321   2.016   3.338   2.148  0.1871  0.9217 -0.4503
   11MOL   C102 3322   1.975   3.413   2.039 -0.1810 -0.0769 -0.7446
   11MOL   C103 3323   1.829   3.456   2.022 -0.4717 -0.1128 -0.0895
   11MOL   C104 3324   2.067   3.448   1.941  0.3584  0.0575 -0.6853
   11MOL   C105 3325   2.203   3.422   1.955 -0.2435  0.0114  0.4908
   11MOL   H106 3326   2.454   3.407   2.050 -0.9162 -0.6951 -2.7244
   11MOL   H107 3327   2.428   3.297   2.188  0.3813 -0.7607  0.2376
   11MOL   H108 3328   2.185   3.246   2.241  0.7057  0.9568 -0.6064
   11MOL   H109 3329   1.944   3.300   2.218 -1.1065  1.5574 -1.4176
   11MOL   H110 3330   1.790   3.434   1.923  0.7783 -0.1870 -0.5736
   11MOL   H111 3331   1.759   3.397   2.082 -1.7126  1.1779 -0.2223
   11MOL   H112 3332   2.033   3.508   1.858  2.4079  0.6908 -1.0972
   11MOL   H113 3333   2.273   3.464   1.885  0.5209  1.1345  1.8966
   11MOL   C114 3334   1.819   3.608   2.046 -0.8064 -0.0910  0.4972
   11MOL   C115 3335   1.670   3.646   2.030 -0.6091 -0.6545 -0.0373
   11MOL   C116 3336   1.589   3.614   2.144 -0.3987  0.1579 -0.0055
   11MOL   C117 3337   1.449   3.646   2.146 -0.6865 -0.7417 -0.8283
   11MOL   C118 3338   1.398   3.719   2.043 -0.2650 -0.0112 -0.2367
   11MOL   C119 3339   1.248   3.754   2.040  0.1292  0.0631  0.7024
   11MOL   C120 3340   1.480   3.759   1.937 -0.1959 -0.1088  0.4026
   11MOL   C121 3341   1.610   3.717   1.922 -0.3872 -0.4495 -0.3776
   11MOL   H122 3342   1.881   3.662   1.974 -0.8488  0.9272  1.2089
   11MOL   H123 3343   1.861   3.645   2.140  1.9534  0.8477 -1.0596
   11MOL   H124 3344   1.633   3.561   2.227  0.0732 -0.2816 -0.5382
   11MOL   H125 3345   1.392   3.624   2.235  0.5776  1.5541  0.5991
   11MOL   H126 3346   1.233   3.840   2.105  0.0782  0.4263  0.2123
   11MOL   H127 3347   1.223   3.793   1.941  0.4713  0.2815  0.7010
   11MOL   H128 3348   1.441   3.821   1.857 -1.7081 -1.8441 -0.2725
   11MOL   H129 3349   1.668   3.737   1.832 -1.1356 -2.3161 -1.3093
   11MOL   C130 3350   1.155   3.638   2.077  0.2874  0.2091 -0.3196
   11MOL   C131 3351   1.013   3.655   2.016 -0.0274 -0.6008 -0.7800
   11MOL   C132 3352   0.953   3.543   1.948 -0.3673 -0.4796 -0.8725
   11MOL   C133 3353   0.822   3.550   1.896 -0.7429  0.4206 -0.5792
   11MOL   C134 3354   0.750   3.670   1.903  0.2982 -0.4668 -0.0160
   11MOL   C135 3355   0.611   3.676   1.834 -0.4101  0.5564  0.5228
   11MOL   C136 3356   0.808   3.780   1.960 -0.3693 -0.1881 -0.1767
   11MOL   C137 3357   0.936   3.778   2.021 -0.5111  0.3665  0.4549
   11MOL   H138 3358   1.153   3.622   2.185 -0.6015  0.9114 -0.2253
   11MOL   H139 3359   1.203   3.547   2.041  0.3247  0.0452  0.1411
   11MOL   H140 3360   0.996   3.444   1.935  0.4214 -0.2707  0.0637
   11MOL   H141 3361   0.774   3.471   1.840 -0.4960 -0.2616  0.1652
   11MOL   H142 3362   0.626   3.648   1.730 -1.2211 -3.3643  1.3626
   11MOL   H143 3363   0.548   3.597   1.876 -1.3934  1.1125  0.1177
   11MOL   H144 3364   0.755   3.874   1.969  0.1935 -0.0197  1.6826
   11MOL   H145 3365   0.982   3.858   2.076  0.5470  1.0121 -1.3036
   11MOL   C146 3366   0.536   3.810   1.840 -0.0190 -0.0831 -0.0417
   11MOL   C147 3367   0.397   3.806   1.771  0.4182  0.1762  0.0195
   11MOL   C148 3368   0.278   3.793   1.844 -0.2235  0.8702  0.1177
   11MOL   C149 3369   0.154   3.780   1.781  0.1869  0.4759  0.5980
   11MOL   C150 3370   0.145   3.798   1.643  0.0150  0.2963  0.6354
   11MOL   C151 3371   0.005   3.810   1.582  0.4097 -0.5360  0.0565
   11MOL   C152 3372   0.263   3.812   1.563 -0.1927  0.7907  0.6222
   11MOL   C153 3373   0.385   3.818   1.630  0.2558  0.0315 -0.1173
   11MOL   H154 3374   0.593   3.891   1.795 -0.9407  0.2517 -0.6165
   11MOL   H155 3375   0.524   3.835   1.946  1.5464 -0.3460  0.2123
   11MOL   H156 3376   0.275   3.792   1.952 -1.2133 -2.8378  0.1176
   11MOL   H157 3377   0.060   3.771   1.833 -0.4739  0.3817 -0.5874
   11MOL   H158 3378  -0.059   3.869   1.648 -0.8270 -0.2988 -1.3262
   11MOL   H159 3379   0.014   3.869   1.491 -2.2254  0.8571  0.6329
   11MOL   H160 3380   0.254   3.817   1.455 -1.2587  0.3572  0.6877
   11MOL   H161 3381   0.480   3.826   1.579  0.4428  1.0192  0.3834
   11MOL   C162 3382  -0.063   3.670   1.551  0.1084  0.2166  0.0515
   11MOL   C163 3383   0.039   3.576   1.491 -0.2992  0.1506 -0.2895
   11MOL   C164 3384   0.095   3.594   1.363 -0.1261  0.7464  0.3766
   11MOL   C165 3385   0.206   3.518   1.321 -0.0032  0.2633 -0.2201
   11MOL   C166 3386   0.263   3.420   1.404  0.1658  0.0976 -0.1852
   11MOL   C167 3387   0.390   3.346   1.362  0.1793 -0.2536 -0.0643
   11MOL   C168 3388   0.202   3.398   1.528  0.7376  0.0774  0.1852
   11MOL   C169 3389   0.095   3.474   1.570  0.5994 -0.4927 -0.0407
   11MOL   H170 3390  -0.151   3.677   1.488  1.9986 -0.3863 -2.7256
   11MOL   H171 3391  -0.106   3.619   1.638  1.3695  2.8580  2.3201
   11MOL   H172 3392   0.066   3.672   1.294  2.5657 -0.6084 -2.4314
   11MOL   H173 3393   0.258   3.531   1.227 -0.7545  1.1088 -0.5250
   11MOL   H174 3394   0.396   3.244   1.401 -2.7685 -0.2527  0.5309
   11MOL   H175 3395   0.388   3.321   1.257  0.7461  0.1717 -0.1821
   11MOL   H176 3396   0.251   3.322   1.587 -0.1394  0.6449  1.6673
   11MOL   H177 3397   0.042   3.454   1.662 -1.8685 -0.8262 -1.4651
   11MOL   C178 3398   0.515   3.424   1.402  0.5469 -0.2476 -0.7352
   11MOL   C179 3399   0.657   3.359   1.394  0.1188  0.6382  0.0466
   11MOL   C180 3400   0.766   3.399   1.473 -0.0837 -0.1895 -0.1566
   11MOL   C181 3401   0.889   3.329   1.469 -0.9502  0.0562  0.0758
   11MOL   C182 3402   0.917   3.226   1.377  0.3803  0.3479 -0.3068
   11MOL   C183 3403   1.051   3.167   1.365 -0.3939 -0.6126 -0.1857
   11MOL   C184 3404   0.800   3.181   1.296  0.2728 -0.0166 -0.6693
   11MOL   C185 3405   0.678   3.252   1.301 -0.3730  0.1665 -0.0787
   11MOL   H186 3406   0.493   3.435   1.509  0.0370  0.2079 -0.8869
   11MOL   H187 3407   0.513   3.523   1.357  0.5361 -0.1508 -0.5262
   11MOL   H188 3408   0.752   3.472   1.552 -1.4250 -1.6177  0.9671
   11MOL   H189 3409   0.966   3.361   1.537  0.6061 -3.4767  0.0914
   11MOL   H190 3410   1.067   3.113   1.271 -2.1217 -2.4853  0.5471
   11MOL   H191 3411   1.129   3.243   1.357 -1.1381  0.0484 -1.2600
   11MOL   H192 3412   0.802   3.105   1.219  0.7221 -1.2101  0.4955
   11MOL   H193 3413   0.599   3.224   1.233 -1.0743  3.1391 -0.5921
   11MOL   C194 3414   1.071   3.063   1.478 -0.3705  0.4327  0.1306
   11MOL   C195 3415   1.212   3.005   1.486  0.2958  0.3433 -0.1051
   11MOL   C196 3416   1.270   2.947   1.368 -0.6895  0.8349  0.0490
   11MOL   C197 3417   1.402   2.911   1.367  0.2805 -0.3690 -0.0461
   11MOL   C198 3418   1.473   2.930   1.490  0.2230  0.0827  0.5886
   11MOL   C199 3419   1.623   2.896   1.491  0.2208 -0.6159  0.2040
   11MOL   C200 3420   1.418   2.982   1.607 -0.3210 -0.2340  0.9819
   11MOL   C201 3421   1.284   3.007   1.610  0.2509 -0.5179 -0.3637
   11MOL   H202 3422   1.003   2.979   1.464  0.7118 -0.2927 -0.8545
   11MOL   H203 3423   1.041   3.106   1.574 -0.4017  1.7827 -0.4787
   11MOL   H204 3424   1.215   2.934   1.276 -0.3572 -1.1520  0.1135
   11MOL   H205 3425   1.448   2.870   1.278  1.6181  1.0129 -0.0202
   11MOL   H206 3426   1.656   2.915   1.389  0.7762  4.8748  1.2994
   11MOL   H207 3427   1.670   2.975   1.548 -0.2078  1.2378 -1.9624
   11MOL   H208 3428   1.486   3.007   1.687  0.2142  1.7726 -0.0755
   11MOL   H209 3429   1.248   3.051   1.702  1.1334  0.8966 -0.6664
   11MOL   C210 3430   1.665   2.751   1.534 -0.7878  0.1785 -0.3778
   11MOL   C211 3431   1.812   2.734   1.499  0.3824  0.1774 -0.4257
   11MOL   C212 3432   1.909   2.737   1.599  0.1112  0.1362  0.5135
   11MOL   C213 3433   2.048   2.731   1.572 -0.4581  0.3360 -0.4912
   11MOL   C214 3434   2.090   2.708   1.440 -0.2707 -0.1606  0.6462
   11MOL   C215 3435   2.240   2.679   1.419  0.4536 -0.1353 -0.2064
   11MOL   C216 3436   1.992   2.696   1.338 -0.0657 -0.2540 -0.9630
   11MOL   C217 3437   1.852   2.711   1.365  0.3446 -0.6106 -0.4802
   11MOL   H218 3438   1.614   2.677   1.473  0.1271 -1.6567  1.0461
   11MOL   H219 3439   1.650   2.720   1.637  0.6927 -0.2477 -0.2744
   11MOL   H220 3440   1.876   2.760   1.699  1.4548 -0.0271  1.0131
   11MOL   H221 3441   2.113   2.729   1.658 -2.3457 -0.6738  0.9448
   11MOL   H222 3442   2.274   2.717   1.322 -1.0354  2.8560  0.3896
   11MOL   H223 3443   2.290   2.736   1.497  0.0304 -0.0780  0.0234
   11MOL   H224 3444   2.033   2.673   1.241 -1.3483  0.4110 -1.6831
   11MOL   H225 3445   1.783   2.706   1.281 -0.8240  1.8397  0.2888
   11MOL   C226 3446   2.284   2.533   1.440 -0.8379  0.6381 -0.4821
   11MOL   C227 3447   2.438   2.498   1.435  0.4505  0.1372  0.4211
   11MOL   C228 3448   2.517   2.496   1.551 -0.0921 -0.7075  0.3624
   11MOL   C229 3449   2.653   2.464   1.542 -0.3852  0.1045 -0.9268
   11MOL   C230 3450   2.713   2.426   1.417  0.3200  0.3805 -0.1803
   11MOL   C231 3451   2.859   2.396   1.399  0.2303 -0.5484 -0.0581
   11MOL   C232 3452   2.626   2.430   1.304 -0.6167 -0.6975  0.6526
   11MOL   C233 3453   2.496   2.475   1.311  0.1979 -0.2551  0.0938
   11MOL   H234 3454   2.223   2.461   1.386 -2.3807  1.6638 -0.1396
   11MOL   H235 3455   2.249   2.527   1.543  0.3928  0.1472 -0.0812
   11MOL   H236 3456   2.472   2.505   1.648  2.4372  2.6671  1.2763
   11MOL   H237 3457   2.711   2.471   1.634 -0.0009  1.5301 -1.2652
   11MOL   H238 3458   2.896   2.433   1.303 -0.6293  0.5721  0.0396
   11MOL   H239 3459   2.895   2.455   1.482 -0.7822  1.9704 -1.3685
   11MOL   H240 3460   2.667   2.409   1.206 -2.6628  1.4861 -0.7379
   11MOL   H241 3461   2.431   2.482   1.225  0.0931  0.3631  0.2243
   11MOL   C242 3462   2.899   2.247   1.419 -0.1078 -0.4557  0.1000
   11MOL   C243 3463   3.049   2.231   1.391  0.0154  0.4041 -0.2279
   11MOL   C244 3464   3.145   2.241   1.490  0.5121  0.6116 -1.0330
   11MOL   C245 3465   3.280   2.237   1.462 -0.8065 -0.3814 -0.4139
   11MOL   C246 3466   3.325   2.207   1.329  0.2579 -0.0119  0.1746
   11MOL   C247 3467   3.468   2.178   1.290 -0.0830 -0.0271  0.0518
   11MOL   C248 3468   3.230   2.189   1.229  0.8624  0.5805  0.7193
   11MOL   C249 3469   3.087   2.197   1.259  0.1508 -0.3545 -0.3734
   11MOL   H250 3470   2.864   2.219   1.518 -0.2213 -1.5767 -0.2558
   11MOL   H251 3471   2.846   2.192   1.342  1.2213  2.9569 -3.4358
   11MOL   H252 3472   3.110   2.262   1.590 -0.5639  1.5280 -1.5906
   11MOL   H253 3473   3.359   2.243   1.536 -0.3716 -1.4163 -0.7788
   11MOL   H254 3474   3.477   2.205   1.184  1.4969  0.1056  0.2129
   11MOL   H255 3475   3.538   2.247   1.336  1.2552  0.4794 -2.6219
   11MOL   H256 3476   3.271   2.166   1.132  0.0801 -1.5088  0.8467
   11MOL   H257 3477   3.011   2.190   1.183 -1.4894  3.5745  0.7718
   11MOL   C258 3478   3.500   2.031   1.306  0.3864  0.1439  0.0996
   11MOL   C259 3479   3.640   1.995   1.264  0.6639 -0.2936 -0.5220
   11MOL   C260 3480   3.739   1.999   1.360  0.0094  0.3177 -0.2619
   11MOL   C261 3481   3.870   1.979   1.320 -0.2169 -0.4015  0.2574
   11MOL   C262 3482   3.903   1.963   1.184 -0.4386 -0.7054  0.1408
   11MOL   C263 3483   4.055   1.949   1.144  0.0228 -0.1339  1.1467
   11MOL   C264 3484   3.803   1.960   1.088 -0.1566  0.6113  0.3538
   11MOL   C265 3485   3.671   1.971   1.134 -0.0672  0.1944  0.1464
   11MOL   H266 3486   3.433   1.966   1.249 -1.8868  0.8849  1.8534
   11MOL   H267 3487   3.482   2.004   1.410 -1.8243  2.3451  0.3282
   11MOL   H268 3488   3.730   2.014   1.467 -2.2322  0.2724 -0.4183
   11MOL   H269 3489   3.951   1.982   1.390  1.5112 -0.4657 -1.7041
   11MOL   H270 3490   4.063   1.977   1.039 -2.1884 -0.6127  0.8195
   11MOL   H271 3491   4.119   2.029   1.181  0.2230 -0.0088  0.5337
   11MOL   H272 3492   3.833   1.940   0.987 -3.4027 -0.1947 -0.5010
   11MOL   H273 3493   3.599   1.956   1.054  1.5248 -2.5647 -0.8268
   11MOL   C274 3494   4.096   1.803   1.179 -0.6983 -0.1013  0.2852
   11MOL   C275 3495   4.240   1.782   1.133 -0.4782 -0.5460  0.2423
   11MOL   C276 3496   4.257   1.730   1.002  0.0492 -0.4255  0.3314
   11MOL   C277 3497   4.389   1.703   0.962  0.4900  0.2580  1.0232
   11MOL   C278 3498   4.506   1.719   1.042  0.0056  0.5510 -0.3118
   11MOL   C279 3499   4.646   1.679   0.997  0.6963  0.1361  0.4528
   11MOL   C280 3500   4.481   1.765   1.174 -0.2704  0.2338  0.0017
   11MOL   C281 3501   4.352   1.792   1.222  0.3069 -0.1590 -0.3557
   11MOL   H282 3502   4.100   1.789   1.287 -0.1026  1.6969  0.5093
   11MOL   H283 3503   4.024   1.733   1.136 -0.6197  0.2414 -0.4223
   11MOL   H284 3504   4.177   1.713   0.932 -3.0378  5.1489  2.1307
   11MOL   H285 3505   4.401   1.665   0.861 -1.0916  0.3117  0.8077
   11MOL   H286 3506   4.633   1.621   0.906 -1.0627 -1.0420  1.4290
   11MOL   H287 3507   4.706   1.770   0.984 -0.3395  0.8873  0.9030
   11MOL   H288 3508   4.559   1.766   1.249  1.2768 -3.3322 -1.4800
   11MOL   H289 3509   4.340   1.830   1.323  0.6349  2.7500 -1.3820
   11MOL   C290 3510   4.721   1.577   1.091 -0.2322 -0.1326 -0.3035
   11MOL   C291 3511   4.842   1.527   1.023 -0.0967  0.0840  0.0662
   11MOL   C292 3512   4.969   1.573   1.058  0.7419  0.7636  0.5367
   11MOL   C293 3513   5.080   1.522   0.994 -0.4189 -0.2712 -0.4882
   11MOL   C294 3514   5.072   1.425   0.892 -0.4033  0.2107  0.0091
   11MOL   C295 3515   5.193   1.364   0.833  0.4548 -0.6603 -0.0651
   11MOL   C296 3516   4.941   1.394   0.851  0.0204  0.3154 -0.6554
   11MOL   C297 3517   4.828   1.439   0.917  0.8770 -0.0002  0.2390
   11MOL   H298 3518   4.657   1.492   1.115 -1.8852  0.8548 -1.1207
   11MOL   H299 3519   4.742   1.618   1.189  0.0855 -0.3053 -0.2993
   11MOL   H300 3520   4.970   1.645   1.139 -1.8821 -0.5402  1.7929
   11MOL   H301 3521   5.176   1.564   1.022 -2.4504  1.8266  3.7074
   11MOL   H302 3522   5.204   1.390   0.728  1.4399 -0.1695  0.1528
   11MOL   H303 3523   5.277   1.406   0.888  2.7131 -1.5705 -2.6913
   11MOL   H304 3524   4.928   1.324   0.770 -1.0422 -0.3846  0.1082
   11MOL   H305 3525   4.731   1.398   0.894 -0.1133  1.5638  1.5814
   11MOL   C306 3526   5.202   1.210   0.841 -0.1541  0.5957  0.3113
   11MOL   C307 3527   5.335   1.160   0.782 -0.3722  0.1840  0.7508
   11MOL   C308 3528   5.437   1.135   0.877  0.0120 -0.2263  0.0751
   11MOL   C309 3529   5.561   1.086   0.832  1.1192 -0.0555  0.0014
   11MOL   C310 3530   5.574   1.057   0.691  0.2009  0.2381  0.5570
   11MOL   C311 3531   5.697   0.993   0.639 -0.7709  1.3216  0.6749
   11MOL   C312 3532   5.464   1.075   0.603 -0.0347  0.3020 -0.4178
   11MOL   C313 3533   5.351   1.137   0.642  0.1939  0.4458  0.4440
   11MOL   H314 3534   5.122   1.160   0.787  1.0659 -1.4552  0.3098
   11MOL   H315 3535   5.195   1.175   0.944  1.2716 -1.5510 -0.2674
   11MOL   H316 3536   5.427   1.143   0.984 -1.4487 -2.2958  0.1319
   11MOL   H317 3537   5.641   1.062   0.900  0.1617 -1.0292  0.8006
   11MOL   H318 3538   5.780   1.035   0.696  0.3317  1.5843 -1.0966
   11MOL   H319 3539   5.702   0.884   0.640  2.1171  1.4050 -0.2058
   11MOL   H320 3540   5.471   1.077   0.495 -5.5924 -1.4805 -0.9868
   11MOL   H321 3541   5.278   1.164   0.567 -1.2283  0.0322  1.6526
   11MOL   H322 3542   5.722   1.012   0.535  0.0256 -0.1929  0.5689
   12MOL     C1 3543   7.118   5.395   0.874  0.2073  0.2519  0.5676
   12MOL     C2 3544   7.257   5.325   0.846  0.4745  0.6174 -0.2084
   12MOL     C3 3545   7.308   5.225   0.934 -0.0629  0.0447 -0.0619
   12MOL     C4 3546   7.427   5.158   0.905 -0.4608 -0.5234  1.0733
   12MOL     C5 3547   7.499   5.193   0.792 -0.2281 -0.0007 -0.3332
   12MOL     C6 3548   7.629   5.125   0.767  0.0852 -0.4607 -1.1714
   12MOL     C7 3549   7.455   5.290   0.705 -0.1772 -0.0501 -0.5871
   12MOL     C8 3550   7.330   5.355   0.730  0.4224  1.3240 -0.3745
   12MOL     H9 3551   7.136   5.500   0.896  1.3405  0.1384  0.2276
   12MOL    H10 3552   7.065   5.406   0.780 -1.4625  0.7577  1.5583
   12MOL    H11 3553   7.250   5.207   1.023  0.7759  1.6802  0.8485
   12MOL    H12 3554   7.464   5.090   0.980 -1.6926 -0.4650  1.7464
   12MOL    H13 3555   7.625   5.019   0.792  0.2404  0.4390  3.0101
   12MOL    H14 3556   7.633   5.144   0.660  0.5567 -0.8633 -1.2211
   12MOL    H15 3557   7.502   5.326   0.614  0.2459  2.7041  0.6711
   12MOL    H16 3558   7.295   5.436   0.666 -0.3233 -0.1861 -1.9193
   12MOL    H17 3559   7.065   5.338   0.950  2.0940 -2.3236  0.0534
   12MOL    C18 3560   7.757   5.178   0.827 -0.1797 -0.0665  0.7945
   12MOL    C19 3561   7.881   5.088   0.811 -0.1371  0.4671 -0.3767
   12MOL    C20 3562   7.884   4.964   0.882 -0.2277 -0.0227 -0.0521
   12MOL    C21 3563   7.992   4.883   0.872  0.1063  0.2591  0.9138
   12MOL    C22 3564   8.098   4.917   0.784 -0.2766  0.4701 -0.2627
   12MOL    C23 3565   8.213   4.822   0.778  0.5921 -0.4993 -0.5790
   12MOL    C24 3566   8.089   5.033   0.706 -0.5955 -0.5713  0.0150
   12MOL    C25 3567   7.988   5.122   0.727  0.3169 -0.3605 -0.8438
   12MOL    H26 3568   7.776   5.275   0.782 -0.0663 -0.4728 -0.0493
   12MOL    H27 3569   7.735   5.199   0.932  0.8409 -2.3644  1.5038
   12MOL    H28 3570   7.802   4.942   0.949  0.8201  0.7454  1.5172
   12MOL    H29 3571   8.000   4.796   0.936  0.2349  0.1579  0.7624
   12MOL    H30 3572   8.189   4.767   0.687  1.7766  1.6945 -2.2682
   12MOL    H31 3573   8.213   4.748   0.859 -0.2809 -0.1002 -0.2111
   12MOL    H32 3574   8.168   5.066   0.640 -0.5337 -0.9151 -0.0850
   12MOL    H33 3575   7.988   5.210   0.665 -1.0873 -0.5845 -1.1953
   12MOL    C34 3576   8.349   4.889   0.764 -0.3588  0.5312  0.2067
   12MOL    C35 3577   8.455   4.787   0.743  0.1445  0.6844 -0.1222
   12MOL    C36 3578   8.507   4.710   0.849 -0.1973 -0.6546 -0.2575
   12MOL    C37 3579   8.619   4.623   0.841  0.3002  0.0020  0.4034
   12MOL    C38 3580   8.690   4.620   0.725  0.5787  0.0335 -0.8457
   12MOL    C39 3581   8.827   4.538   0.716  0.5439 -0.4834  0.7380
   12MOL    C40 3582   8.654   4.703   0.624 -0.5228  0.6783  0.6500
   12MOL    C41 3583   8.535   4.787   0.626 -0.1757 -0.4171  0.1176
   12MOL    H42 3584   8.372   4.952   0.851  0.7006 -0.5915  0.7515
   12MOL    H43 3585   8.361   4.952   0.676  0.2316 -0.9147 -0.7634
   12MOL    H44 3586   8.447   4.712   0.939 -2.7960 -3.8002 -1.8207
   12MOL    H45 3587   8.644   4.567   0.929 -0.8571  0.1376  0.8353
   12MOL    H46 3588   8.798   4.437   0.743  1.7957 -0.6099  1.6282
   12MOL    H47 3589   8.856   4.542   0.611  0.9669  3.9059  0.9378
   12MOL    H48 3590   8.716   4.711   0.536 -1.0486 -0.0596  0.2029
   12MOL    H49 3591   8.507   4.854   0.546 -1.6279 -0.0154  0.9417
   12MOL    C50 3592   8.936   4.603   0.802 -0.4975  0.0613  0.1223
   12MOL    C51 3593   9.052   4.520   0.819 -0.0099  0.7186  0.3319
   12MOL    C52 3594   9.093   4.486   0.949 -0.7159 -0.1000  0.0959
   12MOL    C53 3595   9.210   4.412   0.972  0.2909  0.0716  0.8001
   12MOL    C54 3596   9.292   4.382   0.860 -0.6728  0.1467  0.3645
   12MOL    C55 3597   9.422   4.311   0.881  0.0776 -0.1650 -0.2401
   12MOL    C56 3598   9.250   4.419   0.725  0.2125 -0.2115  0.2546
   12MOL    C57 3599   9.131   4.488   0.705  0.4776  0.3099  0.0868
   12MOL    H58 3600   8.901   4.611   0.905  0.9640  0.1510  0.6257
   12MOL    H59 3601   8.952   4.705   0.767 -0.5220  0.7264  1.9790
   12MOL    H60 3602   9.036   4.518   1.035 -4.1098  1.9084 -2.7600
   12MOL    H61 3603   9.243   4.384   1.071 -2.3075 -1.5763  1.2594
   12MOL    H62 3604   9.495   4.349   0.810  1.1477 -0.5306  0.6558
   12MOL    H63 3605   9.460   4.343   0.978 -0.3506  0.5681 -0.3035
   12MOL    H64 3606   9.317   4.393   0.644  0.1490  1.6185 -0.4233
   12MOL    H65 3607   9.108   4.507   0.601  2.4942 -1.3177 -0.6759
   12MOL    C66 3608   9.416   4.154   0.898 -0.0999  0.1167  0.1912
   12MOL    C67 3609   9.546   4.102   0.938 -0.0446 -0.1533 -0.2855
   12MOL    C68 3610   9.613   4.022   0.844 -0.0844  0.3400 -0.1486
   12MOL    C69 3611   9.747   3.980   0.877 -0.4089 -0.2337 -0.1419
   12MOL    C70 3612   9.798   3.999   1.008 -0.3225  0.5681 -0.3795
   12MOL    C71 3613   9.937   3.940   1.029 -0.3121  0.4638  0.3472
   12MOL    C72 3614   9.717   4.057   1.107 -0.5860 -0.5588 -0.2084
   12MOL    C73 3615   9.595   4.119   1.064  0.2450  0.5045 -0.6647
   12MOL    H74 3616   9.386   4.101   0.807  2.6689 -1.2745  0.0432
   12MOL    H75 3617   9.340   4.120   0.969  0.6976  0.2622  1.1152
   12MOL    H76 3618   9.584   4.000   0.742  1.0770 -0.7875 -0.2507
   12MOL    H77 3619   9.810   3.936   0.800 -0.0518  1.2289 -0.7031
   12MOL    H78 3620   9.983   3.975   1.121  1.4932  0.0932 -0.4079
   12MOL    H79 3621  10.004   3.970   0.949  0.4086 -1.8910  0.0421
   12MOL    H80 3622   9.756   4.072   1.207  1.0615  2.5300 -1.2739
   12MOL    H81 3623   9.547   4.187   1.134 -1.8106 -1.7858  0.2266
   12MOL    C82 3624   9.938   3.786   1.044 -0.5764  0.5137 -0.1729
   12MOL    C83 3625  10.081   3.731   1.045  0.6184  0.4090 -0.8907
   12MOL    C84 3626  10.134   3.673   0.929 -0.1095  1.0615 -0.1975
   12MOL    C85 3627  10.263   3.622   0.919  0.3271 -0.2559 -0.1500
   12MOL    C86 3628  10.351   3.632   1.026 -0.2840 -0.1833  0.0418
   12MOL    C87 3629  10.492   3.581   1.010  0.6053  0.8774  0.0147
   12MOL    C88 3630  10.301   3.684   1.149 -0.0320  0.0483  0.4617
   12MOL    C89 3631  10.170   3.738   1.150  0.3018  0.3172 -0.6766
   12MOL    H90 3632   9.886   3.731   0.966  0.4538  1.3996 -1.4899
   12MOL    H91 3633   9.896   3.755   1.140 -1.5236 -1.2496 -1.1310
   12MOL    H92 3634  10.066   3.666   0.845  1.7545 -0.7516 -1.5835
   12MOL    H93 3635  10.291   3.575   0.826 -2.2716  1.1375 -1.7070
   12MOL    H94 3636  10.556   3.624   1.087 -1.3196  1.4045  1.3558
   12MOL    H95 3637  10.525   3.615   0.912  1.4203 -0.1951 -0.0999
   12MOL    H96 3638  10.358   3.697   1.240 -0.7747  0.2755  0.9085
   12MOL    H97 3639  10.142   3.766   1.251  3.7848 -1.7790  0.9964
   12MOL    C98 3640  10.500   3.426   1.032 -0.6426  0.4336 -0.6586
   12MOL    C99 3641  10.645   3.376   1.002 -0.2557  0.8541 -0.1090
   12MOL   C100 3642  10.744   3.369   1.102 -0.2043 -0.4465  0.2194
   12MOL   C101 3643  10.873   3.324   1.069 -0.3115 -0.6732  0.6877
   12MOL   C102 3644  10.907   3.272   0.945 -1.1051 -0.1111  0.3329
   12MOL   C103 3645  11.053   3.231   0.921 -0.0362  0.2930 -0.9895
   12MOL   C104 3646  10.808   3.274   0.846 -0.2228 -0.0097  0.1433
   12MOL   C105 3647  10.678   3.313   0.883  0.1703  0.5054  0.1831
   12MOL   H106 3648  10.431   3.373   0.967 -0.1033 -0.9271 -0.1646
   12MOL   H107 3649  10.454   3.409   1.130  1.9249 -1.0254  0.3690
   12MOL   H108 3650  10.730   3.398   1.205  1.0595  0.7807  0.0752
   12MOL   H109 3651  10.949   3.322   1.145  2.8451 -2.6185 -2.3581
   12MOL   H110 3652  11.083   3.271   0.824  0.7910 -0.2958 -0.9791
   12MOL   H111 3653  11.120   3.263   1.001 -1.1326 -0.9905  0.4600
   12MOL   H112 3654  10.831   3.240   0.746  0.4021 -0.0435  0.2957
   12MOL   H113 3655  10.606   3.301   0.803  1.0740  0.9249 -0.7157
   12MOL   C114 3656  11.054   3.079   0.902 -0.0843 -0.2385 -0.4107
   12MOL   C115 3657  11.182   3.024   0.838 -0.0915 -0.6112  0.7186
   12MOL   C116 3658  11.177   2.927   0.736 -0.0668 -0.1756  0.2325
   12MOL   C117 3659  11.295   2.871   0.682 -0.0696 -0.4832  0.5986
   12MOL   C118 3660  11.415   2.910   0.736 -0.4608 -0.3887 -0.0651
   12MOL   C119 3661  11.545   2.847   0.688  0.3081 -0.8323  0.2815
   12MOL   C120 3662  11.419   3.007   0.844 -0.9147  0.1911  0.3546
   12MOL   C121 3663  11.303   3.062   0.891 -0.4314 -0.0474 -0.3321
   12MOL   H122 3664  10.966   3.051   0.844  1.4775  0.0776 -3.0171
   12MOL   H123 3665  11.042   3.031   1.000  0.0755 -0.8904 -0.7056
   12MOL   H124 3666  11.081   2.899   0.696  0.8715 -1.6493 -1.1058
   12MOL   H125 3667  11.298   2.796   0.604 -0.6263 -0.0419  0.1462
   12MOL   H126 3668  11.548   2.840   0.579 -2.4539 -0.4457  0.1472
   12MOL   H127 3669  11.628   2.911   0.717  0.3059 -1.1218  0.9222
   12MOL   H128 3670  11.513   3.045   0.881 -1.6015  2.4406 -0.1353
   12MOL   H129 3671  11.319   3.135   0.969  0.1807 -1.4935  0.8999
   12MOL   C130 3672  11.569   2.706   0.737 -0.0384  0.6132  0.4363
   12MOL   C131 3673  11.709   2.659   0.694  0.1575  0.3297  0.1024
   12MOL   C132 3674  11.806   2.641   0.792  0.1661 -0.0315  0.0616
   12MOL   C133 3675  11.929   2.604   0.760 -0.3254  0.4676  0.0169
   12MOL   C134 3676  11.963   2.564   0.624 -0.2481 -0.3211  0.1187
   12MOL   C135 3677  12.107   2.541   0.585  0.5253  0.1246 -0.3862
   12MOL   C136 3678  11.872   2.579   0.527  1.0032  0.0694 -0.7398
   12MOL   C137 3679  11.738   2.626   0.559  0.0107  0.2415  0.3033
   12MOL   H138 3680  11.496   2.641   0.690 -0.2088  0.8453  0.3816
   12MOL   H139 3681  11.565   2.707   0.846  2.3611 -5.0122  0.7445
   12MOL   H140 3682  11.787   2.673   0.893  1.8338 -0.2645  0.4634
   12MOL   H141 3683  12.009   2.606   0.833 -0.7867  1.5941  0.5023
   12MOL   H142 3684  12.125   2.550   0.478 -0.6203  2.0732 -0.4350
   12MOL   H143 3685  12.169   2.614   0.637  1.5169 -1.1793  0.3138
   12MOL   H144 3686  11.884   2.551   0.423  1.0072 -1.4341 -0.3419
   12MOL   H145 3687  11.653   2.624   0.493 -0.0169 -2.9653  0.3450
   12MOL   C146 3688  12.162   2.402   0.618 -0.3035  0.2567  0.1520
   12MOL   C147 3689  12.305   2.375   0.581  0.7849  0.2330  0.1296
   12MOL   C148 3690  12.348   2.367   0.444 -0.2676 -0.5656  0.0490
   12MOL   C149 3691  12.474   2.330   0.406 -0.2299  0.4148 -0.2403
   12MOL   C150 3692  12.568   2.306   0.506  0.1412 -0.4713  0.1463
   12MOL   C151 3693  12.707   2.279   0.467 -0.5429 -0.0111  0.5279
   12MOL   C152 3694  12.534   2.306   0.643  0.2831  0.3575 -0.1135
   12MOL   C153 3695  12.403   2.341   0.680  0.4365  0.3777 -0.0981
   12MOL   H154 3696  12.103   2.329   0.562  0.1726  0.9328 -1.2498
   12MOL   H155 3697  12.138   2.388   0.723  0.3561 -2.5179 -0.0145
   12MOL   H156 3698  12.279   2.387   0.363 -0.4926 -0.0359  0.3648
   12MOL   H157 3699  12.504   2.329   0.302  0.4299  0.8406 -0.0573
   12MOL   H158 3700  12.716   2.329   0.371  0.9106 -1.2376  0.0227
   12MOL   H159 3701  12.780   2.324   0.533  0.1704  0.0089 -0.2729
   12MOL   H160 3702  12.603   2.280   0.722 -0.3035 -1.8202 -0.2885
   12MOL   H161 3703  12.381   2.341   0.786 -0.1362  2.8736 -0.1786
   12MOL   C162 3704  12.738   2.131   0.463 -0.2522  0.1708  0.4233
   12MOL   C163 3705  12.874   2.095   0.403  0.9375  0.3711  0.3114
   12MOL   C164 3706  12.884   2.080   0.269  0.8720  0.5587  0.6179
   12MOL   C165 3707  13.012   2.063   0.213 -0.7075 -0.3636  0.5823
   12MOL   C166 3708  13.123   2.039   0.296 -0.3591 -0.1636  0.0048
   12MOL   C167 3709  13.262   2.012   0.239  0.6211 -0.2496  0.5383
   12MOL   C168 3710  13.104   2.050   0.438  0.0272  0.5832 -0.1875
   12MOL   C169 3711  12.979   2.071   0.490  0.3740 -0.3566 -0.4852
   12MOL   H170 3712  12.668   2.079   0.398  0.0416 -0.8829  0.9387
   12MOL   H171 3713  12.728   2.085   0.561  0.1058  0.8849  0.8038
   12MOL   H172 3714  12.796   2.091   0.207 -0.3431 -0.6773  2.0621
   12MOL   H173 3715  13.028   2.058   0.107  0.5221  0.1458  0.7376
   12MOL   H174 3716  13.256   2.011   0.130 -1.6664  0.7031  0.6210
   12MOL   H175 3717  13.329   2.095   0.264 -1.1896  1.1841  0.7686
   12MOL   H176 3718  13.194   2.040   0.497 -0.8895 -1.0413  0.9535
   12MOL   H177 3719  12.971   2.052   0.596 -0.9468 -1.3236 -0.7371
   12MOL   C178 3720  13.322   1.876   0.269  0.0734 -0.5644  0.2395
   12MOL   C179 3721  13.451   1.846   0.191 -0.1987 -0.2997 -0.4569
   12MOL   C180 3722  13.452   1.736   0.103  0.4323  0.3517  0.0258
   12MOL   C181 3723  13.574   1.702   0.039 -0.0434 -0.2711 -0.3336
   12MOL   C182 3724  13.689   1.781   0.059 -0.3318 -0.7456  0.2988
   12MOL   C183 3725  13.819   1.737  -0.012  0.4717 -0.1610  0.3875
   12MOL   C184 3726  13.688   1.884   0.159  0.5678  0.5605  0.1083
   12MOL   C185 3727  13.568   1.914   0.226 -0.1465 -0.0214  0.1367
   12MOL   H186 3728  13.252   1.794   0.255 -1.0739  0.9892 -3.7356
   12MOL   H187 3729  13.344   1.885   0.375  0.4374  1.4462  0.0139
   12MOL   H188 3730  13.363   1.676   0.091  0.7525  0.1641 -1.5667
   12MOL   H189 3731  13.580   1.618  -0.029  1.6045 -1.3896  1.1421
   12MOL   H190 3732  13.801   1.699  -0.113  2.5611  1.8921 -0.8178
   12MOL   H191 3733  13.892   1.818  -0.022  1.1784 -0.9003 -0.5764
   12MOL   H192 3734  13.781   1.936   0.174  0.3502  1.2605 -0.9318
   12MOL   H193 3735  13.568   1.996   0.296  0.8362 -0.4876  0.6933
   12MOL   C194 3736  13.904   1.623   0.059 -0.2377  0.5903  0.6652
   12MOL   C195 3737  14.033   1.595  -0.013 -0.2151 -0.5710  0.4666
   12MOL   C196 3738  14.140   1.685  -0.001 -0.2117 -0.0185 -1.0060
   12MOL   C197 3739  14.264   1.647  -0.053  0.4529 -0.1487 -0.7973
   12MOL   C198 3740  14.277   1.540  -0.142 -0.2387 -0.1832 -0.1079
   12MOL   C199 3741  14.405   1.501  -0.210 -0.4553  0.1369 -0.5687
   12MOL   C200 3742  14.161   1.467  -0.173 -0.5988 -0.0215  0.1915
   12MOL   C201 3743  14.037   1.494  -0.109  0.1442  0.7492  0.0875
   12MOL   H202 3744  13.856   1.526   0.064 -1.6007  0.9920 -3.2141
   12MOL   H203 3745  13.919   1.659   0.161 -3.1331  0.0976  1.2933
   12MOL   H204 3746  14.140   1.770   0.066 -3.2879  0.5320 -1.6490
   12MOL   H205 3747  14.343   1.714  -0.021 -1.1599  1.4108  0.0119
   12MOL   H206 3748  14.381   1.494  -0.316 -0.8624  5.9398 -1.0167
   12MOL   H207 3749  14.466   1.591  -0.208  0.4826 -0.4583  3.3899
   12MOL   H208 3750  14.166   1.392  -0.251 -1.2410  0.9225 -0.7554
   12MOL   H209 3751  13.951   1.436  -0.138 -0.8043  1.3960  1.5796
   12MOL   C210 3752  14.465   1.385  -0.130 -0.7587 -0.2973  0.2727
   12MOL   C211 3753  14.598   1.334  -0.181  0.0342 -0.2599  0.0723
   12MOL   C212 3754  14.720   1.394  -0.141 -1.1470 -0.8238 -0.0400
   12MOL   C213 3755  14.844   1.340  -0.178  0.0290  0.0209  0.5914
   12MOL   C214 3756  14.852   1.222  -0.252  0.1226 -0.3012 -0.4772
   12MOL   C215 3757  14.977   1.144  -0.268 -0.4045  0.1282  0.1081
   12MOL   C216 3758  14.731   1.172  -0.307  0.1961  0.2888  0.5007
   12MOL   C217 3759  14.607   1.228  -0.272  0.4290 -0.4380  0.6190
   12MOL   H218 3760  14.400   1.298  -0.120 -1.0508 -0.1489 -0.2713
   12MOL   H219 3761  14.480   1.409  -0.025  2.8658 -1.7687  0.1578
   12MOL   H220 3762  14.717   1.484  -0.082  1.5962 -0.4974 -0.2994
   12MOL   H221 3763  14.934   1.377  -0.131 -0.7432  2.5546  0.1739
   12MOL   H222 3764  15.063   1.168  -0.205 -0.4977 -0.4613  0.4612
   12MOL   H223 3765  14.966   1.038  -0.246  1.1078 -0.1630 -0.4355
   12MOL   H224 3766  14.731   1.080  -0.364 -2.0128 -0.7203  2.0337
   12MOL   H225 3767  14.521   1.182  -0.319  1.5970  0.3897 -2.4457
   12MOL   C226 3768  15.038   1.165  -0.406 -0.4144 -0.4348  0.6750
   12MOL   C227 3769  15.173   1.099  -0.426 -0.2029  0.1941  0.2385
   12MOL   C228 3770  15.283   1.142  -0.357 -0.0551  0.4046 -0.0819
   12MOL   C229 3771  15.413   1.101  -0.395  0.7392 -0.3613 -0.3547
   12MOL   C230 3772  15.425   0.999  -0.491  0.4146 -0.0128  1.0736
   12MOL   C231 3773  15.562   0.941  -0.516 -0.2048  0.0262  0.5931
   12MOL   C232 3774  15.309   0.942  -0.557 -0.5444  0.1117 -0.4599
   12MOL   C233 3775  15.184   1.002  -0.524 -0.6296 -0.1786  0.5430
   12MOL   H234 3776  15.063   1.269  -0.427 -0.3602 -0.3927  0.9395
   12MOL   H235 3777  14.966   1.142  -0.484  1.2741  1.8523 -1.6501
   12MOL   H236 3778  15.283   1.213  -0.275  0.5693  0.4833 -0.1430
   12MOL   H237 3779  15.499   1.144  -0.345 -0.2792  2.2097 -0.7135
   12MOL   H238 3780  15.637   0.985  -0.450 -0.4930  0.8279  0.3852
   12MOL   H239 3781  15.560   0.833  -0.496  2.6160 -0.3608 -0.9062
   12MOL   H240 3782  15.322   0.857  -0.623  0.8190 -0.8463  1.0152
   12MOL   H241 3783  15.095   0.952  -0.559  0.5241 -1.2171 -0.9598
   12MOL   C242 3784  15.612   0.965  -0.660  0.4769  0.9383  0.7941
   12MOL   C243 3785  15.748   0.901  -0.680 -0.2892 -0.1559 -0.5316
   12MOL   C244 3786  15.859   0.940  -0.596  0.8879 -0.8052  0.0785
   12MOL   C245 3787  15.984   0.869  -0.608  0.5262 -0.0156  0.4863
   12MOL   C246 3788  16.004   0.772  -0.715 -0.6321 -0.6666 -0.4340
   12MOL   C247 3789  16.136   0.695  -0.734  0.0093  0.1346  0.4667
   12MOL   C248 3790  15.892   0.743  -0.794 -0.3961  0.0292  0.0187
   12MOL   C249 3791  15.766   0.809  -0.779  0.6621  0.5489  0.8105
   12MOL   H250 3792  15.550   0.928  -0.741  2.3709 -2.9645  0.9937
   12MOL   H251 3793  15.619   1.073  -0.672  0.8440  0.7762 -0.6257
   12MOL   H252 3794  15.854   1.027  -0.532 -0.6098 -2.1735  1.8831
   12MOL   H253 3795  16.067   0.903  -0.547  0.1140 -1.0858  1.6814
   12MOL   H254 3796  16.170   0.665  -0.635  0.5036 -0.9831 -0.0387
   12MOL   H255 3797  16.108   0.607  -0.791  0.7707  0.4826 -0.4705
   12MOL   H256 3798  15.902   0.678  -0.879  0.0241  0.9535 -0.6447
   12MOL   H257 3799  15.690   0.762  -0.841 -0.2091  1.8062  0.9107
   12MOL   C258 3800  16.232   0.781  -0.814  0.2300  0.3190  0.2043
   12MOL   C259 3801  16.368   0.714  -0.830 -0.6868 -0.2563  0.0327
   12MOL   C260 3802  16.476   0.732  -0.742  0.8279 -0.3348 -0.0255
   12MOL   C261 3803  16.601   0.674  -0.763  0.8798  0.3936  0.0640
   12MOL   C262 3804  16.622   0.589  -0.871  0.3292  0.0912 -0.2790
   12MOL   C263 3805  16.746   0.507  -0.887  0.0231 -0.5989 -0.1519
   12MOL   C264 3806  16.512   0.559  -0.961  0.3071  0.2873 -0.3661
   12MOL   C265 3807  16.386   0.624  -0.941 -0.0610 -0.1740 -0.0807
   12MOL   H266 3808  16.251   0.874  -0.760  1.6396  0.0769  0.1552
   12MOL   H267 3809  16.195   0.796  -0.916 -0.4133 -3.6984 -0.2268
   12MOL   H268 3810  16.465   0.802  -0.660 -0.9239  0.8941 -1.2709
   12MOL   H269 3811  16.691   0.695  -0.707  1.1002 -2.3644  0.8314
   12MOL   H270 3812  16.798   0.502  -0.791 -0.0410  1.4994  0.0060
   12MOL   H271 3813  16.724   0.404  -0.914  1.6716 -0.5304 -1.8468
   12MOL   H272 3814  16.516   0.490  -1.044  0.5747  0.3864 -0.4375
   12MOL   H273 3815  16.304   0.602  -1.008  0.8644 -0.2941 -1.2038
   12MOL   C274 3816  16.835   0.571  -0.992  0.9566 -0.4060 -1.0546
   12MOL   C275 3817  16.973   0.512  -0.988  0.1348 -0.4034  0.1547
   12MOL   C276 3818  17.061   0.549  -0.885  0.4630  0.4086  0.1527
   12MOL   C277 3819  17.181   0.485  -0.874 -0.2813 -0.4456  0.0762
   12MOL   C278 3820  17.221   0.393  -0.971 -0.6596  0.2475  0.3614
   12MOL   C279 3821  17.373   0.359  -0.977  0.2607  0.0727  0.0053
   12MOL   C280 3822  17.137   0.364  -1.082 -0.3023 -0.0657 -0.2967
   12MOL   C281 3823  17.009   0.418  -1.082 -0.3477  0.5346  0.5344
   12MOL   H282 3824  16.790   0.550  -1.089 -1.5461 -3.8910  0.7488
   12MOL   H283 3825  16.834   0.680  -0.985 -1.0565 -0.4065 -0.9710
   12MOL   H284 3826  17.024   0.619  -0.812 -1.1660  0.0510 -0.3192
   12MOL   H285 3827  17.244   0.513  -0.791 -2.7971 -1.6526  2.4611
   12MOL   H286 3828  17.433   0.409  -0.901  1.0459 -0.9422  0.0684
   12MOL   H287 3829  17.382   0.251  -0.962  0.3307  0.1249  0.3420
   12MOL   H288 3830  17.175   0.298  -1.159 -0.1825  0.1636 -0.4357
   12MOL   H289 3831  16.939   0.389  -1.159 -1.2317 -1.6259  2.1102
   12MOL   C290 3832  17.438   0.400  -1.113 -0.3694  0.7187  0.3448
   12MOL   C291 3833  17.573   0.331  -1.136 -0.1281  0.3410 -0.0916
   12MOL   C292 3834  17.683   0.351  -1.041  0.0407 -0.5718  0.1447
   12MOL   C293 3835  17.806   0.287  -1.053  0.0763  0.1657 -0.0561
   12MOL   C294 3836  17.828   0.214  -1.168  0.0161  0.2787 -0.0090
   12MOL   C295 3837  17.962   0.139  -1.186  0.8951  0.4543  0.0949
   12MOL   C296 3838  17.726   0.197  -1.266  0.2472 -1.1622  0.1185
   12MOL   C297 3839  17.594   0.247  -1.250  0.3475 -0.0451  0.2587
   12MOL   H298 3840  17.452   0.506  -1.138 -1.8778  0.8828  0.1485
   12MOL   H299 3841  17.382   0.369  -1.202  1.1372 -0.9519 -0.0543
   12MOL   H300 3842  17.670   0.409  -0.951 -1.3644 -0.7265  0.0533
   12MOL   H301 3843  17.877   0.316  -0.978 -0.0030  0.6977 -0.1834
   12MOL   H302 3844  17.980   0.081  -1.095 -0.7711  1.4856  1.1075
   12MOL   H303 3845  17.938   0.066  -1.263 -0.6202  0.0504  0.9187
   12MOL   H304 3846  17.750   0.144  -1.356  0.2026  0.1168 -0.6556
   12MOL   H305 3847  17.520   0.225  -1.326  0.3072  0.0366  0.2742
   12MOL   C306 3848  18.078   0.228  -1.228  0.3870  0.1481  0.4196
   12MOL   C307 3849  18.210   0.158  -1.250 -0.8190 -0.1718 -0.1950
   12MOL   C308 3850  18.317   0.186  -1.167  0.2597 -0.1412  1.1282
   12MOL   C309 3851  18.450   0.139  -1.193  0.2442 -1.1246  0.2573
   12MOL   C310 3852  18.461   0.035  -1.288  0.1894 -0.2009 -0.3464
   12MOL   C311 3853  18.596  -0.033  -1.311 -0.6241 -0.0226  0.2299
   12MOL   C312 3854  18.347  -0.005  -1.363 -0.6248  0.3175 -0.3483
   12MOL   C313 3855  18.227   0.065  -1.354  0.1756  0.2645 -0.9148
   12MOL   H314 3856  18.089   0.295  -1.142  1.5233  2.4217 -1.4266
   12MOL   H315 3857  18.046   0.285  -1.315  0.8275  1.4771  1.1098
   12MOL   H316 3858  18.307   0.252  -1.082  0.2864 -1.1691  1.9531
   12MOL   H317 3859  18.534   0.168  -1.131 -1.6951  1.1219  1.9524
   12MOL   H318 3860  18.615  -0.033  -1.419 -2.0724  2.0245 -0.0548
   12MOL   H319 3861  18.682   0.009  -1.259 -0.8282  1.0951 -0.3273
   12MOL   H320 3862  18.364  -0.097  -1.416 -0.0991 -0.9265  1.8994
   12MOL   H321 3863  18.146   0.034  -1.418 -0.3272  1.3942 -0.8329
   12MOL   H322 3864  18.602  -0.135  -1.274  0.3791 -0.7662 -1.8850
   13MOL     C1 3865   3.798   1.592   5.818 -0.2836 -0.1566 -0.1969
   13MOL     C2 3866   3.662   1.637   5.860 -0.7982  0.0259 -0.0123
   13MOL     C3 3867   3.565   1.539   5.855  0.4871 -0.5639  0.2328
   13MOL     C4 3868   3.435   1.581   5.889  0.1465 -0.6070  0.2714
   13MOL     C5 3869   3.407   1.715   5.929 -0.6212 -0.9901 -0.1264
   13MOL     C6 3870   3.260   1.758   5.961  0.3188 -0.6372  0.0135
   13MOL     C7 3871   3.512   1.812   5.930  0.1014  0.0017  0.2092
   13MOL     C8 3872   3.639   1.772   5.892  0.1343  0.3643 -0.5831
   13MOL     H9 3873   3.855   1.680   5.788 -1.6279  0.7596 -0.0634
   13MOL    H10 3874   3.852   1.538   5.896 -0.0930  2.2643  1.3869
   13MOL    H11 3875   3.579   1.438   5.822  1.9855  0.2240 -1.6370
   13MOL    H12 3876   3.349   1.516   5.890 -0.3487  0.0509  0.5191
   13MOL    H13 3877   3.198   1.672   5.982 -0.4398  0.2305  1.4336
   13MOL    H14 3878   3.258   1.827   6.046 -1.5445  1.3513 -1.5776
   13MOL    H15 3879   3.485   1.912   5.960  2.6461  1.0810 -0.9960
   13MOL    H16 3880   3.710   1.852   5.879  0.5723  0.1216  0.3429
   13MOL    H17 3881   3.802   1.527   5.730  1.6200 -0.4116  0.0408
   13MOL    C18 3882   3.178   1.836   5.846  0.5323 -0.4891  0.6016
   13MOL    C19 3883   3.043   1.890   5.901 -0.1302  0.4568  0.5959
   13MOL    C20 3884   2.935   1.806   5.905 -0.5314  0.3762 -0.2900
   13MOL    C21 3885   2.812   1.849   5.960 -0.0621  0.6747  0.5237
   13MOL    C22 3886   2.801   1.982   6.011 -0.2884  0.5907 -0.2731
   13MOL    C23 3887   2.672   2.030   6.061 -0.1369  0.6481  0.2463
   13MOL    C24 3888   2.919   2.062   6.012 -0.3480 -0.0190 -0.3254
   13MOL    C25 3889   3.037   2.017   5.958  0.0823 -0.6238  0.0315
   13MOL    H26 3890   3.223   1.925   5.803  2.5909 -0.5704  2.4658
   13MOL    H27 3891   3.159   1.763   5.767  0.2972  0.7391 -0.4934
   13MOL    H28 3892   2.938   1.704   5.868 -1.1485  0.2813 -0.0766
   13MOL    H29 3893   2.727   1.783   5.959 -0.8208  1.6357  1.4797
   13MOL    H30 3894   2.690   2.122   6.117 -0.4789  1.4244 -0.9072
   13MOL    H31 3895   2.648   1.956   6.138  0.9511  0.5809  0.5422
   13MOL    H32 3896   2.906   2.165   6.044 -3.2607 -0.1184 -1.0270
   13MOL    H33 3897   3.121   2.084   5.964 -0.7317  0.4875 -0.7108
   13MOL    C34 3898   2.554   2.038   5.958  0.4533  0.0410  0.7300
   13MOL    C35 3899   2.414   2.064   6.019  0.1686  0.0456  0.0359
   13MOL    C36 3900   2.312   1.968   6.008  0.2645  1.2528  0.2079
   13MOL    C37 3901   2.182   1.991   6.056 -0.5911 -0.4359  0.2658
   13MOL    C38 3902   2.153   2.120   6.107  0.3261 -0.3282  0.3388
   13MOL    C39 3903   2.017   2.154   6.173  0.6312  0.4044 -0.0666
   13MOL    C40 3904   2.254   2.217   6.112  0.2467 -0.0610  0.4189
   13MOL    C41 3905   2.386   2.190   6.070 -0.5347  0.1414 -0.4515
   13MOL    H42 3906   2.548   1.939   5.913 -0.1064  1.1382 -1.6494
   13MOL    H43 3907   2.569   2.110   5.878  1.2580 -1.7165 -0.7438
   13MOL    H44 3908   2.340   1.875   5.959  0.2797  1.5091 -0.2753
   13MOL    H45 3909   2.108   1.912   6.056  1.5868 -2.5073 -0.6348
   13MOL    H46 3910   1.949   2.071   6.191  0.9754 -0.7365 -3.7054
   13MOL    H47 3911   2.030   2.214   6.263 -1.3842 -2.6226  2.3564
   13MOL    H48 3912   2.232   2.315   6.149  0.7382  0.3660 -0.4002
   13MOL    H49 3913   2.461   2.266   6.065  0.8668 -1.3498 -3.0538
   13MOL    C50 3914   1.934   2.243   6.077 -0.4121  0.8453  0.0652
   13MOL    C51 3915   1.799   2.293   6.137 -0.4543  0.1172  0.2088
   13MOL    C52 3916   1.787   2.425   6.191 -0.0695  0.0956 -0.0311
   13MOL    C53 3917   1.657   2.465   6.233 -0.2063 -0.4321 -0.2271
   13MOL    C54 3918   1.542   2.381   6.223 -0.2607  0.0699  0.6250
   13MOL    C55 3919   1.410   2.427   6.284 -0.3873  0.0972 -0.2180
   13MOL    C56 3920   1.555   2.253   6.169  0.2056 -0.1958 -0.2536
   13MOL    C57 3921   1.684   2.212   6.128  0.2726  0.2705  0.0400
   13MOL    H58 3922   1.900   2.197   5.984 -0.1669 -0.4595  0.6127
   13MOL    H59 3923   1.996   2.330   6.051 -0.6431  1.1154  0.4165
   13MOL    H60 3924   1.859   2.506   6.194  0.0205 -0.0347  2.8441
   13MOL    H61 3925   1.648   2.565   6.273 -2.2359 -1.5708  2.3046
   13MOL    H62 3926   1.357   2.358   6.350  0.1889 -0.4543 -0.3326
   13MOL    H63 3927   1.434   2.518   6.340 -0.1113  0.2956 -0.6565
   13MOL    H64 3928   1.464   2.195   6.171 -2.1146  3.1305 -2.4783
   13MOL    H65 3929   1.677   2.117   6.077  0.1928 -0.4262  1.3121
   13MOL    C66 3930   1.318   2.467   6.169  0.2776 -0.0712  0.5698
   13MOL    C67 3931   1.183   2.504   6.235  0.5788 -0.0485  0.4133
   13MOL    C68 3932   1.161   2.629   6.298  0.3418  0.0611  0.0392
   13MOL    C69 3933   1.040   2.661   6.353 -0.2610  0.5411  0.0134
   13MOL    C70 3934   0.941   2.556   6.366 -1.3236 -0.7071 -0.4265
   13MOL    C71 3935   0.808   2.584   6.428 -0.1576  0.7459  0.5808
   13MOL    C72 3936   0.969   2.427   6.316  0.9157  0.3358  0.4597
   13MOL    C73 3937   1.087   2.406   6.246 -0.7637  0.4154 -0.3356
   13MOL    H74 3938   1.305   2.386   6.096 -1.7213 -0.2499  1.0736
   13MOL    H75 3939   1.369   2.547   6.116  0.4230 -1.8090 -1.9958
   13MOL    H76 3940   1.236   2.707   6.299  2.6627 -2.1377 -0.2139
   13MOL    H77 3941   1.020   2.761   6.389 -0.0083  0.3730  0.6212
   13MOL    H78 3942   0.823   2.659   6.506  1.7080  0.3640  0.6017
   13MOL    H79 3943   0.771   2.503   6.490  0.3822 -1.4657 -1.9101
   13MOL    H80 3944   0.893   2.351   6.326  0.1390  0.6780 -2.3315
   13MOL    H81 3945   1.110   2.307   6.210  1.3795  0.8336 -0.2076
   13MOL    C82 3946   0.702   2.657   6.335  0.7310  0.0947 -0.5645
   13MOL    C83 3947   0.579   2.693   6.401 -0.2368 -0.4170  0.1227
   13MOL    C84 3948   0.555   2.817   6.467  0.3720  0.1230 -0.5959
   13MOL    C85 3949   0.432   2.845   6.527  0.0928  0.1628 -0.5813
   13MOL    C86 3950   0.325   2.759   6.506  0.1425  0.5536 -0.0257
   13MOL    C87 3951   0.185   2.791   6.555  0.1555 -0.4079 -0.3173
   13MOL    C88 3952   0.344   2.636   6.439 -0.0053  0.1451  0.5390
   13MOL    C89 3953   0.471   2.599   6.391 -0.4143  0.1075  0.9002
   13MOL    H90 3954   0.679   2.598   6.246  0.0972  2.5168 -2.0693
   13MOL    H91 3955   0.746   2.751   6.300  1.6986  0.0807  0.5832
   13MOL    H92 3956   0.632   2.892   6.470 -0.8286  1.2921  2.1479
   13MOL    H93 3957   0.407   2.944   6.563  0.9172  1.7602 -4.1699
   13MOL    H94 3958   0.183   2.850   6.647  1.3142  0.6014 -0.9297
   13MOL    H95 3959   0.133   2.703   6.592  1.6880 -1.7344 -1.2828
   13MOL    H96 3960   0.262   2.571   6.415 -1.7872  2.3267  0.6065
   13MOL    H97 3961   0.494   2.504   6.344 -0.8464 -0.1168  1.1304
   13MOL    C98 3962   0.094   2.844   6.436 -0.2881  0.2348 -0.5881
   13MOL    C99 3963  -0.042   2.891   6.489  0.6369  0.5476  0.1070
   13MOL   C100 3964  -0.058   3.013   6.561 -0.2430  0.8954  0.4823
   13MOL   C101 3965  -0.176   3.040   6.630 -0.2648  0.0324  0.9587
   13MOL   C102 3966  -0.288   2.957   6.612 -0.3786 -0.1282  0.2800
   13MOL   C103 3967  -0.420   2.987   6.682  0.3554 -0.8278  0.0500
   13MOL   C104 3968  -0.274   2.838   6.537 -0.2188  0.3965 -0.1599
   13MOL   C105 3969  -0.152   2.805   6.472  0.2137  0.1370  0.1602
   13MOL   H106 3970   0.075   2.768   6.360 -1.2747 -1.2793  1.1440
   13MOL   H107 3971   0.143   2.923   6.379 -0.5922  0.7112 -0.1909
   13MOL   H108 3972   0.033   3.070   6.572 -0.3673  0.8324  1.9629
   13MOL   H109 3973  -0.177   3.123   6.699  1.8612  1.6498 -0.9052
   13MOL   H110 3974  -0.455   2.896   6.731 -1.6841 -0.2511 -0.2755
   13MOL   H111 3975  -0.402   3.066   6.755  0.4662 -0.4484 -0.3851
   13MOL   H112 3976  -0.360   2.774   6.529 -0.3677  0.7913 -1.8073
   13MOL   H113 3977  -0.143   2.707   6.426 -0.6196 -1.3371  3.0277
   13MOL   C114 3978  -0.536   3.028   6.590 -0.0214  0.0461 -0.3746
   13MOL   C115 3979  -0.661   3.048   6.670 -0.0368  0.5640 -0.4616
   13MOL   C116 3980  -0.760   2.948   6.664  0.6754  0.8223  0.2996
   13MOL   C117 3981  -0.884   2.971   6.728  0.0404 -0.3950  0.0384
   13MOL   C118 3982  -0.908   3.097   6.793  0.5515  0.1743  0.2812
   13MOL   C119 3983  -1.042   3.125   6.857  0.1363  0.1997 -0.5538
   13MOL   C120 3984  -0.795   3.183   6.819  0.1263  0.9035 -0.5345
   13MOL   C121 3985  -0.678   3.162   6.749 -0.2367  0.0250  0.1332
   13MOL   H122 3986  -0.558   2.955   6.512 -2.7984  0.5679 -0.1467
   13MOL   H123 3987  -0.510   3.124   6.545 -2.5825  1.2140  0.4955
   13MOL   H124 3988  -0.740   2.859   6.606  0.8267  1.1779 -0.1983
   13MOL   H125 3989  -0.971   2.910   6.710 -0.6384  1.2580 -2.6612
   13MOL   H126 3990  -1.073   3.032   6.905 -1.2880  1.7526  1.5950
   13MOL   H127 3991  -1.046   3.196   6.939 -1.1774  0.3973 -0.7692
   13MOL   H128 3992  -0.812   3.276   6.872 -0.1481 -0.5312  1.9358
   13MOL   H129 3993  -0.596   3.231   6.763 -1.2224  1.9393 -3.0630
   13MOL   C130 3994  -1.140   3.183   6.749 -0.3265 -0.3274 -0.0120
   13MOL   C131 3995  -1.282   3.205   6.805 -0.2082 -0.3087 -0.3047
   13MOL   C132 3996  -1.306   3.306   6.906  0.1308 -1.1912 -0.2991
   13MOL   C133 3997  -1.430   3.317   6.965  0.8183 -0.3027 -0.3877
   13MOL   C134 3998  -1.538   3.234   6.926 -0.1408  0.2014 -0.2818
   13MOL   C135 3999  -1.673   3.251   6.993  0.7759  0.5669 -0.6634
   13MOL   C136 4000  -1.518   3.137   6.828 -0.0721  0.4531 -0.4784
   13MOL   C137 4001  -1.387   3.116   6.769 -0.9990  0.2826  0.2895
   13MOL   H138 4002  -1.143   3.116   6.664 -0.5469 -2.4139  1.6014
   13MOL   H139 4003  -1.104   3.266   6.688 -1.9939  1.1911  1.0252
   13MOL   H140 4004  -1.227   3.377   6.922  0.2634 -0.9167 -1.9871
   13MOL   H141 4005  -1.448   3.399   7.033 -1.3713 -1.0242 -0.0653
   13MOL   H142 4006  -1.744   3.177   6.958  0.1779 -0.2219  2.1020
   13MOL   H143 4007  -1.667   3.226   7.099 -1.4659  1.4579 -0.3047
   13MOL   H144 4008  -1.599   3.071   6.802 -0.4015  0.7167 -0.1287
   13MOL   H145 4009  -1.377   3.043   6.690 -0.7512 -0.4796  1.0295
   13MOL   C146 4010  -1.737   3.387   6.970  0.1287  0.7846  0.3952
   13MOL   C147 4011  -1.876   3.404   7.040  0.2234 -0.2473  0.3772
   13MOL   C148 4012  -1.984   3.342   6.984 -0.3145 -1.0988 -0.1069
   13MOL   C149 4013  -2.115   3.364   7.026 -0.1820 -0.2131  0.2927
   13MOL   C150 4014  -2.138   3.448   7.137 -0.0543  0.2165  0.1173
   13MOL   C151 4015  -2.278   3.463   7.186  0.4876 -0.0331  0.5204
   13MOL   C152 4016  -2.026   3.492   7.210  0.1642 -0.2130 -0.4613
   13MOL   C153 4017  -1.894   3.484   7.156 -0.4346  0.0314  0.7688
   13MOL   H154 4018  -1.755   3.400   6.863  1.6937  1.6143  0.2031
   13MOL   H155 4019  -1.676   3.473   6.998 -0.9080  1.5073  0.4476
   13MOL   H156 4020  -1.985   3.277   6.897  0.1021 -0.2393 -0.7597
   13MOL   H157 4021  -2.190   3.309   6.971 -2.0395  1.2698  1.2976
   13MOL   H158 4022  -2.341   3.485   7.100 -0.5081 -1.9641  0.7312
   13MOL   H159 4023  -2.294   3.360   7.219  0.3849 -0.2289 -0.1408
   13MOL   H160 4024  -2.035   3.530   7.310  2.9851  0.4911 -0.4198
   13MOL   H161 4025  -1.807   3.524   7.207  0.1506 -1.1003  0.6825
   13MOL   C162 4026  -2.303   3.556   7.304  0.3874 -0.2266 -0.9792
   13MOL   C163 4027  -2.449   3.552   7.338  1.1255  0.5296  0.2942
   13MOL   C164 4028  -2.550   3.605   7.254 -0.5457 -0.6157 -0.7339
   13MOL   C165 4029  -2.685   3.622   7.289 -0.4723 -0.6873  0.3450
   13MOL   C166 4030  -2.723   3.562   7.412  0.0026  0.2447  0.4450
   13MOL   C167 4031  -2.876   3.561   7.449 -0.0482  0.2591  0.3228
   13MOL   C168 4032  -2.626   3.499   7.497  0.2507 -0.7079  0.2363
   13MOL   C169 4033  -2.490   3.495   7.460 -0.4436  1.0729  0.4352
   13MOL   H170 4034  -2.283   3.661   7.283  0.6884  0.0731  0.7998
   13MOL   H171 4035  -2.233   3.520   7.379 -0.2206 -0.6236 -0.5962
   13MOL   H172 4036  -2.512   3.655   7.166 -0.7446  0.3921 -0.2603
   13MOL   H173 4037  -2.759   3.667   7.223 -2.4609 -1.9523  1.6459
   13MOL   H174 4038  -2.929   3.521   7.363 -0.6275  0.2153  0.7009
   13MOL   H175 4039  -2.902   3.493   7.531  0.4453 -0.3132  0.0079
   13MOL   H176 4040  -2.662   3.454   7.589 -1.1985 -0.4713 -0.2212
   13MOL   H177 4041  -2.419   3.457   7.532 -0.5656 -1.0225 -0.5005
   13MOL   C178 4042  -2.907   3.701   7.502  0.5358  0.4084  0.0928
   13MOL   C179 4043  -3.056   3.723   7.526  0.9488 -0.2003 -0.0152
   13MOL   C180 4044  -3.122   3.687   7.645 -0.2030  0.2400  0.6493
   13MOL   C181 4045  -3.255   3.724   7.662  0.3791  0.0989  0.1164
   13MOL   C182 4046  -3.331   3.788   7.558 -0.5990  0.1704 -0.0197
   13MOL   C183 4047  -3.471   3.818   7.570  0.0561 -0.1583 -0.1572
   13MOL   C184 4048  -3.263   3.834   7.449 -0.0097  0.1273  0.2575
   13MOL   C185 4049  -3.126   3.798   7.427  0.2751  0.1300 -0.0601
   13MOL   H186 4050  -2.886   3.783   7.434 -1.4490  0.0911 -0.9282
   13MOL   H187 4051  -2.858   3.723   7.597  0.3765 -1.5081  0.6341
   13MOL   H188 4052  -3.079   3.616   7.714 -1.1103 -1.3548 -0.3867
   13MOL   H189 4053  -3.311   3.673   7.739 -1.4358 -1.8538 -2.4357
   13MOL   H190 4054  -3.517   3.856   7.479 -1.7366  0.1782  0.8750
   13MOL   H191 4055  -3.528   3.735   7.611  1.7197 -0.6642  1.1794
   13MOL   H192 4056  -3.300   3.886   7.362  0.5906 -0.7934 -0.5557
   13MOL   H193 4057  -3.082   3.831   7.335 -1.8301 -0.4088 -1.2860
   13MOL   C194 4058  -3.486   3.927   7.676  0.0641 -0.3808 -0.5222
   13MOL   C195 4059  -3.632   3.968   7.702 -0.2718  0.1305 -0.0173
   13MOL   C196 4060  -3.662   3.972   7.839 -0.4675 -0.9852 -0.2395
   13MOL   C197 4061  -3.788   4.020   7.880  0.3294  0.3896  0.5232
   13MOL   C198 4062  -3.882   4.062   7.779  0.1964 -0.3774 -0.6910
   13MOL   C199 4063  -4.013   4.124   7.821 -0.1262 -0.0690 -0.2563
   13MOL   C200 4064  -3.857   4.033   7.645  0.1537  0.4602  0.4718
   13MOL   C201 4065  -3.731   3.992   7.608 -0.4266  0.8844  0.3144
   13MOL   H202 4066  -3.434   4.019   7.651  1.4653  0.2364  4.2503
   13MOL   H203 4067  -3.445   3.883   7.767  1.6037  0.0293 -1.0026
   13MOL   H204 4068  -3.597   3.938   7.918 -0.7248  0.6203  0.6903
   13MOL   H205 4069  -3.805   4.031   7.986  1.4906 -0.2647  0.7851
   13MOL   H206 4070  -4.005   4.181   7.913 -0.5002 -2.5720  1.3842
   13MOL   H207 4071  -4.054   4.193   7.747 -0.9951 -0.9303 -0.5926
   13MOL   H208 4072  -3.930   4.060   7.570  1.2755  0.5184 -0.6004
   13MOL   H209 4073  -3.724   3.978   7.501 -1.0718 -0.4389  0.4311
   13MOL   C210 4074  -4.129   4.028   7.845  0.3640 -0.3340  0.7122
   13MOL   C211 4075  -4.254   4.093   7.909 -1.0698  0.6962 -0.5028
   13MOL   C212 4076  -4.365   4.120   7.830  0.0847  0.6060 -0.5503
   13MOL   C213 4077  -4.482   4.172   7.894  0.6688 -0.2133  0.2130
   13MOL   C214 4078  -4.497   4.185   8.033  0.1609  0.0452  0.4388
   13MOL   C215 4079  -4.622   4.260   8.079  0.0395 -0.0225  0.2132
   13MOL   C216 4080  -4.384   4.153   8.113  0.1658  0.1475  0.1410
   13MOL   C217 4081  -4.268   4.105   8.046  0.3114  0.3905 -0.0246
   13MOL   H218 4082  -4.088   3.958   7.918 -3.7612 -2.5862  1.0276
   13MOL   H219 4083  -4.161   3.972   7.757  0.3398  2.2720 -0.9840
   13MOL   H220 4084  -4.364   4.121   7.722  2.2930 -1.8870 -0.5948
   13MOL   H221 4085  -4.560   4.203   7.827 -0.1547  2.4204  2.2970
   13MOL   H222 4086  -4.589   4.307   8.172  0.6857 -2.9710  1.5427
   13MOL   H223 4087  -4.649   4.343   8.015 -0.9859 -0.7127 -0.2782
   13MOL   H224 4088  -4.388   4.149   8.220  0.9936  1.8144  0.2586
   13MOL   H225 4089  -4.187   4.061   8.102  0.2484  0.1856 -0.0941
   13MOL   C226 4090  -4.750   4.174   8.105 -0.3195 -0.0782 -0.3780
   13MOL   C227 4091  -4.863   4.266   8.158  0.8272  1.0883  0.0933
   13MOL   C228 4092  -4.895   4.260   8.295 -0.0718 -0.2967  0.1551
   13MOL   C229 4093  -5.006   4.331   8.354 -0.0746 -0.2640 -0.3033
   13MOL   C230 4094  -5.082   4.417   8.270 -0.1281  0.4945  0.1848
   13MOL   C231 4095  -5.202   4.494   8.330  0.3085  0.3296 -0.3190
   13MOL   C232 4096  -5.051   4.420   8.132 -0.9593 -0.5145 -0.2360
   13MOL   C233 4097  -4.938   4.351   8.078 -0.3155  0.7226  0.0113
   13MOL   H234 4098  -4.734   4.102   8.185  0.6507  1.3326  0.7103
   13MOL   H235 4099  -4.784   4.113   8.022  1.6854 -0.7237 -0.7544
   13MOL   H236 4100  -4.843   4.198   8.366  0.7885 -0.1010 -0.2974
   13MOL   H237 4101  -5.026   4.314   8.459  1.4014  0.9955  0.2006
   13MOL   H238 4102  -5.167   4.535   8.425  0.2687  0.0309 -0.1728
   13MOL   H239 4103  -5.220   4.576   8.261 -2.5673  1.6578  1.9375
   13MOL   H240 4104  -5.091   4.496   8.067  0.7215  1.5570  1.0736
   13MOL   H241 4105  -4.901   4.368   7.978  0.5119 -1.3687 -0.0743
   13MOL   C242 4106  -5.322   4.404   8.358  0.0947  0.3526 -0.2308
   13MOL   C243 4107  -5.447   4.480   8.404  0.1615 -0.3490 -0.0906
   13MOL   C244 4108  -5.480   4.606   8.355 -0.4313 -0.1668 -0.0540
   13MOL   C245 4109  -5.604   4.662   8.387  0.1477 -0.4416 -0.9538
   13MOL   C246 4110  -5.702   4.597   8.464  0.2299  0.4142 -0.5326
   13MOL   C247 4111  -5.833   4.667   8.502 -0.2237 -0.1786  0.2191
   13MOL   C248 4112  -5.664   4.473   8.513  0.2991 -0.2117  0.0113
   13MOL   C249 4113  -5.535   4.416   8.495 -0.0337 -0.3047 -1.1072
   13MOL   H250 4114  -5.340   4.357   8.261  3.3062 -1.4169 -0.0283
   13MOL   H251 4115  -5.293   4.321   8.422  2.8327  1.7364  0.3710
   13MOL   H252 4116  -5.421   4.644   8.273 -0.1947 -0.3227  0.0428
   13MOL   H253 4117  -5.629   4.755   8.337  0.5363  0.1721 -0.0166
   13MOL   H254 4118  -5.892   4.629   8.585 -2.8980  2.2753 -0.4648
   13MOL   H255 4119  -5.817   4.775   8.504  0.6269 -0.2875  3.7465
   13MOL   H256 4120  -5.744   4.426   8.568  1.3247 -1.5263  0.3972
   13MOL   H257 4121  -5.505   4.326   8.547 -1.6500  0.0396  0.4535
   13MOL   C258 4122  -5.929   4.643   8.390  0.4883  0.4822  0.6560
   13MOL   C259 4123  -6.068   4.695   8.435 -0.9604 -0.4489 -0.0444
   13MOL   C260 4124  -6.179   4.607   8.441  0.2035  0.2969  0.0102
   13MOL   C261 4125  -6.306   4.656   8.473  0.8656 -0.3032 -0.3670
   13MOL   C262 4126  -6.331   4.793   8.499  0.0285  0.1573 -0.5365
   13MOL   C263 4127  -6.471   4.838   8.532  0.2390  0.5403 -0.0894
   13MOL   C264 4128  -6.214   4.881   8.497 -0.7168  0.0921 -0.0868
   13MOL   C265 4129  -6.091   4.831   8.459 -0.2579 -0.2278  0.5597
   13MOL   H266 4130  -5.934   4.538   8.359  2.9607 -0.0117  1.8330
   13MOL   H267 4131  -5.894   4.693   8.299 -1.2452 -0.5904 -0.6378
   13MOL   H268 4132  -6.166   4.504   8.411 -3.4892 -0.0832 -0.4896
   13MOL   H269 4133  -6.391   4.590   8.470  0.3204  0.3097  1.2896
   13MOL   H270 4134  -6.532   4.756   8.568  2.0796  0.3594  2.8232
   13MOL   H271 4135  -6.481   4.916   8.608  0.0228  0.4740 -0.0504
   13MOL   H272 4136  -6.226   4.982   8.532  1.5025  0.9912 -1.7364
   13MOL   H273 4137  -6.010   4.899   8.436  0.5180 -1.6101 -0.8959
   13MOL   C274 4138  -6.539   4.884   8.398 -0.2264 -0.0949  0.4630
   13MOL   C275 4139  -6.679   4.944   8.419  0.0078  0.0558 -0.3113
   13MOL   C276 4140  -6.786   4.867   8.471  0.3744  0.3428  0.2800
   13MOL   C277 4141  -6.916   4.930   8.485 -0.4545 -0.1420  0.2754
   13MOL   C278 4142  -6.938   5.064   8.449 -0.0597 -0.1973  0.0122
   13MOL   C279 4143  -7.068   5.133   8.482  0.3361 -0.1806  0.8287
   13MOL   C280 4144  -6.831   5.138   8.404  0.7209 -0.1580 -0.0212
   13MOL   C281 4145  -6.705   5.083   8.394  0.2850 -0.2181  0.7463
   13MOL   H282 4146  -6.474   4.960   8.354 -0.1452  0.3671  1.3517
   13MOL   H283 4147  -6.555   4.802   8.328 -1.3631  1.0900 -0.6972
   13MOL   H284 4148  -6.774   4.760   8.487  0.7921  0.3858  0.2839
   13MOL   H285 4149  -7.005   4.878   8.519 -1.0020 -0.4721 -1.5901
   13MOL   H286 4150  -7.117   5.101   8.574  0.4053 -0.5576  0.7372
   13MOL   H287 4151  -7.045   5.234   8.513  0.1558 -0.0430  0.5125
   13MOL   H288 4152  -6.840   5.243   8.380  3.1670  0.2291  0.6118
   13MOL   H289 4153  -6.620   5.144   8.367 -1.0809  0.1851 -2.8961
   13MOL   C290 4154  -7.166   5.138   8.371 -0.4505  0.4067  0.1473
   13MOL   C291 4155  -7.278   5.235   8.386  0.1078 -0.2749  0.2324
   13MOL   C292 4156  -7.262   5.373   8.363 -0.2052  0.0285 -0.4652
   13MOL   C293 4157  -7.371   5.464   8.372  0.4728  0.7396 -0.0106
   13MOL   C294 4158  -7.496   5.416   8.414 -0.3986  0.0922  0.1834
   13MOL   C295 4159  -7.617   5.504   8.445 -0.1684  0.6228  0.0803
   13MOL   C296 4160  -7.510   5.277   8.439 -0.0044 -0.2224 -0.3312
   13MOL   C297 4161  -7.406   5.189   8.416 -0.2121 -0.0611 -0.3677
   13MOL   H298 4162  -7.194   5.037   8.340  2.0669 -0.8744  1.8788
   13MOL   H299 4163  -7.107   5.171   8.285  0.2161 -0.1991  0.3661
   13MOL   H300 4164  -7.166   5.416   8.339 -0.6348  1.3069  0.0697
   13MOL   H301 4165  -7.353   5.569   8.358  2.2247  0.4817  0.1441
   13MOL   H302 4166  -7.675   5.474   8.533 -0.9559 -1.3809 -1.0989
   13MOL   H303 4167  -7.585   5.606   8.469  4.2985 -0.5329 -0.5836
   13MOL   H304 4168  -7.600   5.232   8.477 -0.3120 -0.0263 -0.8350
   13MOL   H305 4169  -7.427   5.086   8.441 -3.2826  0.9323  1.3134
   13MOL   C306 4170  -7.721   5.511   8.325 -0.3323 -0.0333  0.1293
   13MOL   C307 4171  -7.854   5.573   8.361  0.2485 -0.0931 -0.5130
   13MOL   C308 4172  -7.944   5.497   8.442  0.0781  0.4629  0.0363
   13MOL   C309 4173  -8.068   5.553   8.473  0.1722 -0.8141 -0.2496
   13MOL   C310 4174  -8.108   5.675   8.421 -0.5654 -0.4654  0.0280
   13MOL   C311 4175  -8.245   5.729   8.436  0.0280 -0.0220 -0.1572
   13MOL   C312 4176  -8.015   5.749   8.343 -0.6810  0.5024 -0.3855
   13MOL   C313 4177  -7.889   5.699   8.305 -0.4186 -0.2974  0.3070
   13MOL   H314 4178  -7.747   5.409   8.295  0.9480 -0.2683 -0.2114
   13MOL   H315 4179  -7.683   5.552   8.231 -0.1392  1.0781  0.6877
   13MOL   H316 4180  -7.904   5.399   8.463 -2.1758 -0.6273 -0.6668
   13MOL   H317 4181  -8.130   5.502   8.546  3.3254 -0.7612  2.5881
   13MOL   H318 4182  -8.292   5.720   8.338 -0.0506 -3.0376  0.1154
   13MOL   H319 4183  -8.306   5.666   8.500  0.4531 -0.2071  0.0690
   13MOL   H320 4184  -8.042   5.843   8.298  0.1123  1.7681  1.7276
   13MOL   H321 4185  -7.813   5.749   8.248  0.3080 -0.1286  1.4070
   13MOL   H322 4186  -8.242   5.833   8.468 -2.3826 -0.8897  3.0902
   14MOL     C1 4187   4.288   0.813   1.544  0.3894 -0.2070  0.1880
   14MOL     C2 4188   4.426   0.783   1.494  0.1936  0.5893 -0.1689
   14MOL     C3 4189   4.445   0.760   1.357 -0.1774 -0.2811 -0.1339
   14MOL     C4 4190   4.563   0.711   1.306 -0.4840  0.2104  0.0622
   14MOL     C5 4191   4.679   0.708   1.391 -0.4671  0.6399  0.2205
   14MOL     C6 4192   4.808   0.674   1.328  0.8165 -0.4050  0.0834
   14MOL     C7 4193   4.664   0.727   1.526  0.0586  0.1058 -0.9294
   14MOL     C8 4194   4.539   0.770   1.581 -0.0764 -0.4098  0.0094
   14MOL     H9 4195   4.230   0.861   1.465 -0.3555 -2.0499 -0.4301
   14MOL    H10 4196   4.240   0.717   1.565 -2.8979  1.2489 -0.3674
   14MOL    H11 4197   4.363   0.779   1.289 -0.7688 -0.4610  0.5269
   14MOL    H12 4198   4.572   0.693   1.200  1.2224 -1.5516  0.4733
   14MOL    H13 4199   4.811   0.715   1.227  1.6272  1.8894  1.0148
   14MOL    H14 4200   4.884   0.726   1.386  1.1083  1.1681 -1.6634
   14MOL    H15 4201   4.743   0.715   1.599 -1.6094 -1.9811  0.6001
   14MOL    H16 4202   4.517   0.769   1.687  2.1428  1.4339  0.5385
   14MOL    H17 4203   4.302   0.872   1.634  1.5191 -0.8094  0.4223
   14MOL    C18 4204   4.832   0.521   1.323 -0.2611 -0.0173  0.1798
   14MOL    C19 4205   4.983   0.482   1.305 -0.2108  0.4038 -0.2298
   14MOL    C20 4206   5.033   0.447   1.178  0.5451 -0.5211  0.1829
   14MOL    C21 4207   5.174   0.420   1.157 -0.5326 -0.5153  0.2618
   14MOL    C22 4208   5.256   0.415   1.270 -0.1443 -0.2351 -0.1178
   14MOL    C23 4209   5.404   0.369   1.263 -0.6921  0.3916 -0.2074
   14MOL    C24 4210   5.201   0.449   1.400 -0.3188 -0.1751 -0.0599
   14MOL    C25 4211   5.072   0.486   1.415  0.3424  0.1765 -0.7692
   14MOL    H26 4212   4.812   0.473   1.419  0.7101  0.2903  0.5516
   14MOL    H27 4213   4.772   0.472   1.247  0.2211 -0.0035 -0.2152
   14MOL    H28 4214   4.962   0.422   1.100  1.8188  0.2042 -1.2416
   14MOL    H29 4215   5.217   0.381   1.067  2.6589 -0.3848  1.6762
   14MOL    H30 4216   5.397   0.270   1.218  1.3398  0.2235 -0.1869
   14MOL    H31 4217   5.444   0.349   1.363 -0.1357  1.5996 -0.1681
   14MOL    H32 4218   5.255   0.432   1.492  0.4182  2.3760 -0.0066
   14MOL    H33 4219   5.038   0.530   1.508  1.7727 -0.7117  0.1872
   14MOL    C34 4220   5.511   0.454   1.207  0.1401  0.5213 -0.0864
   14MOL    C35 4221   5.656   0.403   1.227  0.3377  0.4313 -0.2793
   14MOL    C36 4222   5.699   0.303   1.140 -0.1042  0.2564  0.3473
   14MOL    C37 4223   5.837   0.269   1.136  0.3478 -0.2415  0.3299
   14MOL    C38 4224   5.921   0.321   1.243 -0.2374 -0.4083 -0.0744
   14MOL    C39 4225   6.073   0.282   1.229  0.0138 -0.9815 -0.4965
   14MOL    C40 4226   5.868   0.411   1.332 -0.7287  0.5202  0.6260
   14MOL    C41 4227   5.739   0.456   1.325 -0.1786  0.1823 -0.1326
   14MOL    H42 4228   5.500   0.552   1.254  2.0153  0.8601 -0.3376
   14MOL    H43 4229   5.502   0.460   1.099 -0.3174  0.3012 -0.0629
   14MOL    H44 4230   5.631   0.258   1.069 -0.4709  0.0851  0.8012
   14MOL    H45 4231   5.873   0.196   1.065 -1.9667 -1.0844 -0.0081
   14MOL    H46 4232   6.126   0.334   1.308  0.0226  0.9543 -1.7354
   14MOL    H47 4233   6.100   0.177   1.220  1.3921 -0.6841  0.0890
   14MOL    H48 4234   5.934   0.458   1.404  1.3320 -0.5346 -0.5187
   14MOL    H49 4235   5.711   0.543   1.383  3.7129  1.5522 -0.0862
   14MOL    C50 4236   6.124   0.341   1.102  0.2413 -0.4132 -0.6698
   14MOL    C51 4237   6.276   0.316   1.103  0.3495 -0.3081  0.9620
   14MOL    C52 4238   6.365   0.422   1.135 -0.1700  0.1406 -0.8802
   14MOL    C53 4239   6.507   0.401   1.117 -0.9755  0.5333 -0.4903
   14MOL    C54 4240   6.558   0.274   1.069  0.3739 -0.6335  0.5794
   14MOL    C55 4241   6.702   0.252   1.046 -0.8167  0.5897  0.2723
   14MOL    C56 4242   6.463   0.176   1.039 -0.3015  0.5026 -0.4879
   14MOL    C57 4243   6.323   0.192   1.053  0.0231 -0.2846 -0.5950
   14MOL    H58 4244   6.112   0.449   1.101 -0.5339 -0.4768  0.7305
   14MOL    H59 4245   6.075   0.290   1.020  2.7729  0.1728 -2.6186
   14MOL    H60 4246   6.323   0.519   1.153  2.5301  0.8594  1.8756
   14MOL    H61 4247   6.575   0.481   1.141  0.2189 -1.0010  1.4016
   14MOL    H62 4248   6.752   0.272   1.141 -0.5834 -1.7167  0.6613
   14MOL    H63 4249   6.719   0.148   1.020  0.7619  0.9798 -0.3071
   14MOL    H64 4250   6.496   0.088   0.986  1.7533  0.4558  0.8306
   14MOL    H65 4251   6.258   0.109   1.030 -1.2770  0.6451 -0.3468
   14MOL    C66 4252   6.744   0.339   0.926 -0.3025  0.3107 -0.3440
   14MOL    C67 4253   6.885   0.300   0.883  0.8086  0.0599 -0.1118
   14MOL    C68 4254   6.992   0.333   0.970 -0.2019  0.4680  0.6316
   14MOL    C69 4255   7.118   0.275   0.945 -0.1261 -0.5393 -0.1426
   14MOL    C70 4256   7.139   0.194   0.829  0.8711  0.3467  0.7906
   14MOL    C71 4257   7.278   0.140   0.790  0.4060  0.3937 -0.4860
   14MOL    C72 4258   7.031   0.148   0.754 -0.2742 -0.5898  0.6901
   14MOL    C73 4259   6.899   0.199   0.786  1.3395 -0.9325  0.2796
   14MOL    H74 4260   6.735   0.437   0.973  0.2585 -0.5653  1.6457
   14MOL    H75 4261   6.677   0.321   0.842 -0.5877 -0.0695 -0.0347
   14MOL    H76 4262   6.970   0.389   1.060 -0.7061  1.0851  0.1330
   14MOL    H77 4263   7.204   0.296   1.008  0.6961  0.3587 -1.5484
   14MOL    H78 4264   7.275   0.041   0.746 -0.1315 -0.3190  1.0987
   14MOL    H79 4265   7.336   0.137   0.883 -0.5179  0.4974  0.0930
   14MOL    H80 4266   7.031   0.068   0.681 -0.4193 -0.2808  0.3491
   14MOL    H81 4267   6.816   0.165   0.726  0.4739 -0.1201  0.9944
   14MOL    C82 4268   7.357   0.235   0.697 -0.2045  0.9195 -0.0584
   14MOL    C83 4269   7.487   0.174   0.650 -0.2187  0.7916 -0.1762
   14MOL    C84 4270   7.589   0.150   0.753 -0.1514 -0.2741  0.2100
   14MOL    C85 4271   7.712   0.094   0.717 -0.2693 -0.2530 -0.1588
   14MOL    C86 4272   7.730   0.040   0.585 -0.1682 -0.3252  0.5092
   14MOL    C87 4273   7.853  -0.034   0.547 -0.6397  0.2353 -0.4560
   14MOL    C88 4274   7.635   0.065   0.487  0.9219  0.6470  0.6241
   14MOL    C89 4275   7.510   0.125   0.518 -0.4948  0.6056 -0.3023
   14MOL    H90 4276   7.374   0.335   0.735  1.7325  1.0404 -1.2004
   14MOL    H91 4277   7.301   0.249   0.605 -0.5432 -1.7143 -0.2899
   14MOL    H92 4278   7.577   0.187   0.854  0.0004  1.2230 -0.3018
   14MOL    H93 4279   7.783   0.079   0.796  0.3214 -1.1745 -0.8563
   14MOL    H94 4280   7.815  -0.114   0.484 -1.4178  1.4799 -1.6059
   14MOL    H95 4281   7.911  -0.081   0.627  0.6942  0.6726 -1.1461
   14MOL    H96 4282   7.650   0.043   0.382 -2.1930 -2.1238  0.6738
   14MOL    H97 4283   7.440   0.153   0.441  0.8567  1.6086 -1.2127
   14MOL    C98 4284   7.951   0.056   0.471  0.0732  0.0117  0.1887
   14MOL    C99 4285   8.082  -0.018   0.437  0.0165  0.2249  0.1273
   14MOL   C100 4286   8.108  -0.065   0.306  0.8223  0.1473  0.0110
   14MOL   C101 4287   8.234  -0.118   0.275  0.0617 -0.2853 -0.5445
   14MOL   C102 4288   8.324  -0.140   0.385 -0.5706 -0.9766 -0.2081
   14MOL   C103 4289   8.461  -0.197   0.357 -0.0833 -0.0502 -0.3152
   14MOL   C104 4290   8.299  -0.088   0.511 -0.3037  0.6913  0.1805
   14MOL   C105 4291   8.180  -0.028   0.535  0.6428  0.1137  0.0026
   14MOL   H106 4292   7.976   0.143   0.532 -0.7015 -0.3719  1.0547
   14MOL   H107 4293   7.914   0.101   0.378  0.9334 -0.9451 -0.6297
   14MOL   H108 4294   8.038  -0.065   0.224  0.6604  2.3094  0.1302
   14MOL   H109 4295   8.265  -0.149   0.176 -0.9231  0.0137 -0.9489
   14MOL   H110 4296   8.511  -0.222   0.451  3.3435  2.4245 -1.3641
   14MOL   H111 4297   8.427  -0.280   0.295  1.6941  0.4659 -2.0361
   14MOL   H112 4298   8.376  -0.103   0.586 -2.1852  2.5051  2.5426
   14MOL   H113 4299   8.155   0.005   0.634 -5.2051  0.7996 -1.4826
   14MOL   C114 4300   8.555  -0.102   0.282  0.7310 -0.3593  0.0048
   14MOL   C115 4301   8.685  -0.173   0.251  0.0034  0.5603  0.1603
   14MOL   C116 4302   8.692  -0.268   0.148 -0.1248 -0.7353 -0.2110
   14MOL   C117 4303   8.814  -0.336   0.133  0.0382 -0.3556  0.4333
   14MOL   C118 4304   8.924  -0.319   0.218 -0.7310  0.6452 -0.3101
   14MOL   C119 4305   9.061  -0.390   0.202 -0.2093  0.5918  1.1041
   14MOL   C120 4306   8.914  -0.223   0.325 -0.0305  0.6170  0.1781
   14MOL   C121 4307   8.792  -0.156   0.339 -0.3121  0.1313  0.2880
   14MOL   H122 4308   8.562  -0.005   0.330 -1.1076 -0.2583  0.1159
   14MOL   H123 4309   8.509  -0.072   0.187  1.7281  3.3456  0.6342
   14MOL   H124 4310   8.609  -0.286   0.082 -0.5976 -1.0940  0.4784
   14MOL   H125 4311   8.823  -0.409   0.054 -0.1141  0.1584 -0.0682
   14MOL   H126 4312   9.121  -0.406   0.291 -1.6063  2.2221  2.3814
   14MOL   H127 4313   9.027  -0.484   0.160 -0.9933  1.2438  0.2426
   14MOL   H128 4314   8.997  -0.203   0.392  0.5687  0.0805 -0.4034
   14MOL   H129 4315   8.774  -0.089   0.422 -2.9191 -1.5930  1.1679
   14MOL   C130 4316   9.142  -0.312   0.088 -0.4981  0.0731 -0.1225
   14MOL   C131 4317   9.285  -0.363   0.073  0.4870 -0.2123 -0.1805
   14MOL   C132 4318   9.310  -0.494   0.030 -0.1373 -0.2525  0.6095
   14MOL   C133 4319   9.438  -0.546   0.027  0.2587  0.0638  0.3716
   14MOL   C134 4320   9.545  -0.462   0.061  0.1527 -0.3558 -0.7229
   14MOL   C135 4321   9.692  -0.506   0.060 -0.0407  0.3950  0.2306
   14MOL   C136 4322   9.522  -0.332   0.102  0.3589  0.2502 -0.0102
   14MOL   C137 4323   9.395  -0.276   0.108  0.1283  0.2061 -0.0915
   14MOL   H138 4324   9.139  -0.204   0.105 -1.4869 -0.1900  1.4400
   14MOL   H139 4325   9.088  -0.327  -0.006  0.4825 -2.4011 -0.3179
   14MOL   H140 4326   9.224  -0.551  -0.002 -0.2788 -0.4648  1.3574
   14MOL   H141 4327   9.461  -0.648  -0.001 -0.4693  0.0268 -0.1025
   14MOL   H142 4328   9.751  -0.452   0.134 -0.5750  0.7236  0.4226
   14MOL   H143 4329   9.707  -0.610   0.088  0.9980 -0.0499 -1.9344
   14MOL   H144 4330   9.602  -0.264   0.124 -0.1538  1.4320 -1.6680
   14MOL   H145 4331   9.384  -0.174   0.139  0.4181 -0.3317  1.8824
   14MOL   C146 4332   9.760  -0.480  -0.076  0.0313 -0.1404  0.4342
   14MOL   C147 4333   9.897  -0.533  -0.090 -0.5382  0.3667  0.2258
   14MOL   C148 4334   9.929  -0.648  -0.168 -0.4888  0.0365 -0.5852
   14MOL   C149 4335  10.058  -0.706  -0.170  0.4519 -0.3590  1.0109
   14MOL   C150 4336  10.165  -0.641  -0.104  0.5320 -0.0015  0.1324
   14MOL   C151 4337  10.305  -0.698  -0.103 -0.5532 -0.5071  0.5703
   14MOL   C152 4338  10.134  -0.528  -0.027  0.7383  0.2109  0.2257
   14MOL   C153 4339  10.003  -0.481  -0.011 -0.4865  0.0452  0.0504
   14MOL   H154 4340   9.764  -0.373  -0.100  0.9277 -0.4184 -0.7256
   14MOL   H155 4341   9.698  -0.522  -0.155  1.8109 -0.1850 -0.9673
   14MOL   H156 4342   9.847  -0.705  -0.209 -0.3122 -0.6363 -0.0195
   14MOL   H157 4343  10.078  -0.795  -0.228  0.1666 -0.6316  1.3374
   14MOL   H158 4344  10.351  -0.667  -0.009 -0.6390 -2.0662  1.1492
   14MOL   H159 4345  10.286  -0.805  -0.097  0.9266 -0.7284  1.6532
   14MOL   H160 4346  10.214  -0.480   0.027  1.9928 -0.3449 -1.0835
   14MOL   H161 4347   9.984  -0.398   0.055  0.5215  0.6832 -0.4475
   14MOL   C162 4348  10.383  -0.670  -0.235 -0.3304 -0.3078 -0.0867
   14MOL   C163 4349  10.523  -0.730  -0.237 -0.0112 -0.1087  0.7794
   14MOL   C164 4350  10.569  -0.811  -0.348 -0.2141  0.4735 -0.7011
   14MOL   C165 4351  10.699  -0.864  -0.342 -0.2990  0.2478  0.0468
   14MOL   C166 4352  10.791  -0.807  -0.255  0.3280 -0.5961 -0.0737
   14MOL   C167 4353  10.926  -0.861  -0.258 -0.0218  0.5679 -0.3744
   14MOL   C168 4354  10.752  -0.720  -0.153  0.0661  0.5917 -0.5880
   14MOL   C169 4355  10.617  -0.678  -0.149  0.4309  0.2740 -0.0175
   14MOL   H170 4356  10.382  -0.567  -0.271 -2.6504 -0.8927 -1.8172
   14MOL   H171 4357  10.333  -0.725  -0.315 -0.5257 -0.2251 -0.0236
   14MOL   H172 4358  10.493  -0.841  -0.419  0.7746 -0.0791 -1.5374
   14MOL   H173 4359  10.735  -0.939  -0.411 -1.0834 -0.9390  0.9097
   14MOL   H174 4360  10.982  -0.823  -0.173 -0.5923  1.5686 -0.4422
   14MOL   H175 4361  10.929  -0.969  -0.242 -2.4716  0.3932 -0.9804
   14MOL   H176 4362  10.830  -0.689  -0.085  0.3730  1.3953 -1.3036
   14MOL   H177 4363  10.579  -0.614  -0.070 -0.0132 -1.6244  1.3405
   14MOL   C178 4364  11.010  -0.825  -0.381 -0.0478  0.3510 -0.2266
   14MOL   C179 4365  11.143  -0.902  -0.376 -0.5605  0.4633  0.4356
   14MOL   C180 4366  11.251  -0.863  -0.293 -0.5726 -0.5229  0.7730
   14MOL   C181 4367  11.373  -0.930  -0.306  0.2069 -0.2168 -0.4713
   14MOL   C182 4368  11.392  -1.036  -0.399 -0.0492  0.4199  0.2431
   14MOL   C183 4369  11.524  -1.108  -0.410 -0.5183 -0.1324  0.1582
   14MOL   C184 4370  11.281  -1.072  -0.474 -0.4201 -0.2692  0.4667
   14MOL   C185 4371  11.159  -1.006  -0.465  0.4244  0.3262 -0.2048
   14MOL   H186 4372  11.022  -0.717  -0.378  1.7708  0.1424  1.2133
   14MOL   H187 4373  10.941  -0.847  -0.462 -1.7810 -0.7414  1.5047
   14MOL   H188 4374  11.240  -0.784  -0.220 -1.6485 -2.3554  2.6309
   14MOL   H189 4375  11.449  -0.904  -0.233 -0.9132  0.8537  0.3232
   14MOL   H190 4376  11.572  -1.098  -0.312  1.0711  0.6510 -0.6871
   14MOL   H191 4377  11.509  -1.216  -0.412  2.1893 -0.5312 -0.3874
   14MOL   H192 4378  11.298  -1.146  -0.551 -0.0811 -0.9572  1.1919
   14MOL   H193 4379  11.082  -1.037  -0.534  0.3230 -1.0394  0.4986
   14MOL   C194 4380  11.607  -1.041  -0.522 -0.0745 -0.0395 -0.6830
   14MOL   C195 4381  11.736  -1.109  -0.539 -0.9259  0.1430  0.1716
   14MOL   C196 4382  11.845  -1.066  -0.461  0.1205  0.9204  0.6900
   14MOL   C197 4383  11.969  -1.135  -0.477 -0.8365 -0.2708  0.3906
   14MOL   C198 4384  11.979  -1.243  -0.572  0.6361  0.4658 -0.4527
   14MOL   C199 4385  12.107  -1.309  -0.590  0.0373  0.4013 -0.3106
   14MOL   C200 4386  11.869  -1.275  -0.652  0.1239 -0.2050  0.5341
   14MOL   C201 4387  11.746  -1.213  -0.633 -0.1241  0.4886  0.3813
   14MOL   H202 4388  11.632  -0.937  -0.501 -0.5653  0.0132 -0.3555
   14MOL   H203 4389  11.544  -1.030  -0.610 -0.0595  2.7424 -0.4016
   14MOL   H204 4390  11.845  -0.973  -0.405  2.5595  1.9395 -0.8763
   14MOL   H205 4391  12.048  -1.092  -0.418 -1.5489  2.8573 -0.8472
   14MOL   H206 4392  12.146  -1.348  -0.496  0.6910  1.5296 -0.1041
   14MOL   H207 4393  12.088  -1.393  -0.657 -1.7206  0.5616 -0.0215
   14MOL   H208 4394  11.877  -1.346  -0.733  1.1347  1.4770 -0.8780
   14MOL   H209 4395  11.665  -1.245  -0.698  2.1335 -2.5102 -1.0395
   14MOL   C210 4396  12.217  -1.221  -0.660 -0.0668  0.2258  0.0780
   14MOL   C211 4397  12.329  -1.313  -0.707  0.0372 -0.1014  0.5750
   14MOL   C212 4398  12.456  -1.299  -0.645 -0.9229  0.2524 -0.0155
   14MOL   C213 4399  12.569  -1.371  -0.694  0.1231 -0.2202  0.2086
   14MOL   C214 4400  12.550  -1.464  -0.792  0.4502  0.2000 -0.1072
   14MOL   C215 4401  12.666  -1.545  -0.841 -0.1404  0.1479 -0.4741
   14MOL   C216 4402  12.423  -1.483  -0.849  0.7135 -0.6260 -0.5538
   14MOL   C217 4403  12.315  -1.403  -0.814  0.1196 -0.2920 -0.4806
   14MOL   H218 4404  12.249  -1.131  -0.609  1.7277 -0.2573 -0.1742
   14MOL   H219 4405  12.163  -1.180  -0.745 -3.1107 -0.8152  1.4200
   14MOL   H220 4406  12.462  -1.247  -0.551 -2.2886 -3.6134  2.3024
   14MOL   H221 4407  12.666  -1.361  -0.648  0.5611  1.5581 -1.0415
   14MOL   H222 4408  12.706  -1.610  -0.763 -2.3109 -1.2707 -0.5191
   14MOL   H223 4409  12.624  -1.624  -0.903  0.7011 -1.4894  1.0064
   14MOL   H224 4410  12.411  -1.545  -0.937  2.9310 -1.0097 -0.6078
   14MOL   H225 4411  12.227  -1.414  -0.876 -1.3085 -0.4240  1.5467
   14MOL   C226 4412  12.768  -1.454  -0.909  0.2906 -0.4720 -0.1305
   14MOL   C227 4413  12.895  -1.524  -0.953 -0.4253 -0.6613 -0.4009
   14MOL   C228 4414  12.912  -1.555  -1.087  0.4340  0.8786 -0.1661
   14MOL   C229 4415  13.043  -1.601  -1.124 -0.1476 -0.9857  0.4375
   14MOL   C230 4416  13.142  -1.629  -1.029  0.1747 -0.7049  1.0276
   14MOL   C231 4417  13.275  -1.692  -1.077 -0.2359  0.1790  0.2844
   14MOL   C232 4418  13.109  -1.608  -0.897 -0.2673 -0.4002  0.3526
   14MOL   C233 4419  12.994  -1.550  -0.857 -0.1564 -0.2599 -0.4306
   14MOL   H234 4420  12.788  -1.371  -0.841 -0.7301  0.7390 -1.2721
   14MOL   H235 4421  12.725  -1.400  -0.993  0.3752 -0.5370 -0.2161
   14MOL   H236 4422  12.837  -1.534  -1.162  0.1189 -1.3669 -0.5338
   14MOL   H237 4423  13.060  -1.634  -1.225  1.2227  0.9758  0.0012
   14MOL   H238 4424  13.314  -1.738  -0.987 -1.8275 -1.3659  0.2086
   14MOL   H239 4425  13.250  -1.769  -1.150  0.8215  0.1719 -0.0789
   14MOL   H240 4426  13.189  -1.641  -0.832 -0.9403 -2.6389  0.1036
   14MOL   H241 4427  12.976  -1.528  -0.752  1.0683  2.4673 -0.7388
   14MOL   C242 4428  13.380  -1.599  -1.127  0.2825 -0.0772  0.3477
   14MOL   C243 4429  13.516  -1.653  -1.162  0.5526 -0.5552  0.9649
   14MOL   C244 4430  13.598  -1.715  -1.066  0.0700  0.5055  0.1734
   14MOL   C245 4431  13.733  -1.748  -1.098 -0.3150 -0.3065  0.7598
   14MOL   C246 4432  13.787  -1.723  -1.225 -0.0285  0.6101 -0.0797
   14MOL   C247 4433  13.934  -1.739  -1.245  0.4979 -0.8237  0.4824
   14MOL   C248 4434  13.702  -1.666  -1.323 -0.3139 -0.0370  0.3673
   14MOL   C249 4435  13.569  -1.630  -1.287  0.5772  0.5360  0.3557
   14MOL   H250 4436  13.347  -1.534  -1.207 -0.6337  1.5099  1.9752
   14MOL   H251 4437  13.390  -1.518  -1.054 -3.4437  0.4704  0.3386
   14MOL   H252 4438  13.562  -1.722  -0.965  0.9043  0.0371  0.4465
   14MOL   H253 4439  13.790  -1.802  -1.023 -0.0416 -1.0008  0.0500
   14MOL   H254 4440  13.953  -1.694  -1.342  1.4631 -1.3688  0.4160
   14MOL   H255 4441  13.975  -1.673  -1.169 -1.2379 -1.2369  1.8175
   14MOL   H256 4442  13.735  -1.630  -1.419 -1.1653 -0.1110  0.0414
   14MOL   H257 4443  13.511  -1.573  -1.358 -1.6008 -1.4524  0.5017
   14MOL   C258 4444  13.981  -1.884  -1.245  0.6287 -0.5996 -0.0466
   14MOL   C259 4445  14.126  -1.884  -1.269  0.5687  0.1992 -0.4835
   14MOL   C260 4446  14.218  -1.839  -1.171  0.3879 -0.8735 -0.1316
   14MOL   C261 4447  14.353  -1.846  -1.198  0.2261 -0.2445  0.4590
   14MOL   C262 4448  14.401  -1.894  -1.324 -0.5490  0.4145  0.1491
   14MOL   C263 4449  14.552  -1.917  -1.356  0.9071 -0.4224 -0.1705
   14MOL   C264 4450  14.312  -1.934  -1.421  0.2184  0.7028 -0.4046
   14MOL   C265 4451  14.174  -1.929  -1.395  0.5628 -0.3475  0.0601
   14MOL   H266 4452  13.931  -1.952  -1.314 -0.7222 -0.1573  0.4841
   14MOL   H267 4453  13.968  -1.932  -1.148  1.5620 -1.2835 -0.2423
   14MOL   H268 4454  14.181  -1.801  -1.077  0.1720 -1.2386 -0.0677
   14MOL   H269 4455  14.427  -1.817  -1.125 -0.0152 -0.7028  0.8853
   14MOL   H270 4456  14.584  -1.865  -1.446 -0.4854 -0.0514 -0.4606
   14MOL   H271 4457  14.614  -1.873  -1.278 -1.0868  1.8287  0.2073
   14MOL   H272 4458  14.342  -1.972  -1.518  0.8709  1.0987 -0.3603
   14MOL   H273 4459  14.096  -1.952  -1.466  0.5738  0.9222 -0.3750
   14MOL   C274 4460  14.593  -2.059  -1.362 -0.4766  0.1796  0.1846
   14MOL   C275 4461  14.740  -2.079  -1.361  0.0403  0.4095  0.0021
   14MOL   C276 4462  14.819  -2.067  -1.243  0.7105  0.6671  0.0800
   14MOL   C277 4463  14.953  -2.073  -1.257 -0.1306  0.0515 -0.0741
   14MOL   C278 4464  15.017  -2.099  -1.375  0.1434  0.1628  0.1688
   14MOL   C279 4465  15.166  -2.118  -1.379 -0.1037  0.2252  0.2235
   14MOL   C280 4466  14.940  -2.115  -1.493  0.0975  0.6295 -0.4540
   14MOL   C281 4467  14.800  -2.108  -1.483 -0.3723 -0.0250 -0.0630
   14MOL   H282 4468  14.555  -2.118  -1.279 -0.3326 -1.5012 -0.9081
   14MOL   H283 4469  14.553  -2.092  -1.458  1.6220  0.4258 -0.8081
   14MOL   H284 4470  14.761  -2.051  -1.153 -1.5884  0.9578 -1.4065
   14MOL   H285 4471  14.999  -2.061  -1.160 -2.5274 -3.1602  1.5835
   14MOL   H286 4472  15.205  -2.110  -1.481 -2.3981 -1.0999 -0.7978
   14MOL   H287 4473  15.218  -2.039  -1.325  0.6131 -0.0602 -0.0355
   14MOL   H288 4474  14.981  -2.135  -1.591 -1.4647 -0.8153 -0.8378
   14MOL   H289 4475  14.737  -2.132  -1.568 -0.8312  1.0298 -0.0375
   14MOL   C290 4476  15.215  -2.249  -1.312 -0.3401  0.6403  0.0927
   14MOL   C291 4477  15.367  -2.256  -1.331 -1.2183  0.4302  0.7575
   14MOL   C292 4478  15.414  -2.328  -1.439 -0.0994 -0.2717  0.7861
   14MOL   C293 4479  15.552  -2.327  -1.467 -0.7382 -0.1521 -0.7247
   14MOL   C294 4480  15.642  -2.270  -1.378 -0.0757  0.2632  0.3848
   14MOL   C295 4481  15.795  -2.285  -1.405  0.8151  0.1599  0.1256
   14MOL   C296 4482  15.593  -2.201  -1.265  0.3617 -0.1938  0.1488
   14MOL   C297 4483  15.450  -2.188  -1.243 -0.6078  0.2067 -0.8766
   14MOL   H298 4484  15.163  -2.332  -1.361  0.4151 -0.4428  1.0992
   14MOL   H299 4485  15.191  -2.252  -1.206 -1.4040 -0.3634 -0.1666
   14MOL   H300 4486  15.340  -2.370  -1.505  2.8076 -1.7077 -1.6659
   14MOL   H301 4487  15.585  -2.382  -1.555  0.3509 -2.8641  1.3202
   14MOL   H302 4488  15.814  -2.319  -1.506 -2.2079 -2.0695  0.2342
   14MOL   H303 4489  15.835  -2.184  -1.400  2.0421 -0.1960 -2.2233
   14MOL   H304 4490  15.657  -2.154  -1.192 -0.3004 -0.5231  0.9485
   14MOL   H305 4491  15.416  -2.119  -1.168  2.2346  0.8008 -0.0502
   14MOL   C306 4492  15.868  -2.371  -1.307  0.3451  0.0076  0.6887
   14MOL   C307 4493  16.016  -2.386  -1.341 -0.1098 -0.5825  0.2443
   14MOL   C308 4494  16.048  -2.440  -1.463  0.1885 -0.5800  1.2398
   14MOL   C309 4495  16.182  -2.461  -1.504 -0.1436  0.4427  0.3696
   14MOL   C310 4496  16.281  -2.427  -1.411  0.3072  0.3562  0.2029
   14MOL   C311 4497  16.423  -2.466  -1.451  0.1334  0.3209 -0.1932
   14MOL   C312 4498  16.249  -2.368  -1.288 -0.3608 -0.4304 -0.5611
   14MOL   C313 4499  16.115  -2.349  -1.251  0.3544 -0.3409 -0.5514
   14MOL   H314 4500  15.833  -2.474  -1.315  0.0437  0.4211 -4.5707
   14MOL   H315 4501  15.851  -2.344  -1.202  2.5302 -0.3095  1.1493
   14MOL   H316 4502  15.969  -2.463  -1.533 -0.2190  0.7610  1.2420
   14MOL   H317 4503  16.197  -2.518  -1.594 -3.3516  0.6661 -0.3673
   14MOL   H318 4504  16.434  -2.571  -1.476  2.9721  0.3901  0.5261
   14MOL   H319 4505  16.461  -2.401  -1.530 -0.6382  0.6893 -0.2638
   14MOL   H320 4506  16.322  -2.343  -1.212  1.7935  0.2664 -2.8246
   14MOL   H321 4507  16.078  -2.314  -1.155 -0.9677  1.2218 -1.6089
   14MOL   H322 4508  16.485  -2.441  -1.364  0.0308  1.7128 -0.5073
   15MOL     C1 4509   0.067   7.420   4.260 -0.0735 -0.3450  0.6234
   15MOL     C2 4510  -0.068   7.478   4.238 -0.7900  0.1523 -0.3076
   15MOL     C3 4511  -0.121   7.501   4.110  0.4780 -0.5894 -0.0185
   15MOL     C4 4512  -0.240   7.573   4.091 -0.6933  0.0350 -0.0111
   15MOL     C5 4513  -0.316   7.619   4.204 -0.3717  0.3428 -0.0301
   15MOL     C6 4514  -0.452   7.690   4.183 -0.2678 -0.4550  0.8231
   15MOL     C7 4515  -0.264   7.599   4.335  0.5449 -0.1695 -0.4358
   15MOL     C8 4516  -0.145   7.527   4.346  0.5265 -0.4764  0.2818
   15MOL     H9 4517   0.112   7.443   4.356  1.9764 -1.1299 -0.1148
   15MOL    H10 4518   0.057   7.312   4.264 -0.0362 -0.4607 -1.4948
   15MOL    H11 4519  -0.074   7.473   4.017 -0.6369 -0.4407 -0.6391
   15MOL    H12 4520  -0.281   7.588   3.992  0.6977  2.4477 -0.2473
   15MOL    H13 4521  -0.426   7.794   4.203  2.4021 -0.7432 -0.9483
   15MOL    H14 4522  -0.478   7.689   4.077  2.2120  0.5422  0.1720
   15MOL    H15 4523  -0.319   7.632   4.422  1.9537  2.0444 -0.3704
   15MOL    H16 4524  -0.118   7.525   4.450  0.8332  0.3666  0.2224
   15MOL    H17 4525   0.134   7.449   4.179 -1.4951  0.4110 -0.3085
   15MOL    C18 4526  -0.571   7.640   4.268 -0.0086 -0.1497 -0.2217
   15MOL    C19 4527  -0.693   7.717   4.233  0.3768  0.0278  0.0905
   15MOL    C20 4528  -0.747   7.724   4.101 -0.1793 -0.0478  0.7763
   15MOL    C21 4529  -0.868   7.799   4.075  0.1342  0.2935  0.0022
   15MOL    C22 4530  -0.937   7.860   4.179 -0.1820  0.6336  0.6876
   15MOL    C23 4531  -1.058   7.950   4.150 -0.3068  0.3328  0.2175
   15MOL    C24 4532  -0.877   7.857   4.307  0.5311  0.4374  0.8037
   15MOL    C25 4533  -0.762   7.779   4.331 -0.5255  0.0148 -0.2097
   15MOL    H26 4534  -0.593   7.535   4.251 -1.0082  0.0250 -0.0912
   15MOL    H27 4535  -0.553   7.655   4.374 -0.0188 -0.0673 -0.2309
   15MOL    H28 4536  -0.706   7.675   4.015 -1.8639 -1.7042  0.8865
   15MOL    H29 4537  -0.894   7.817   3.972  1.3791  1.6745 -0.0862
   15MOL    H30 4538  -1.066   7.975   4.044  1.0772  1.8620  0.4711
   15MOL    H31 4539  -1.032   8.041   4.203 -1.7672  0.6309  0.4675
   15MOL    H32 4540  -0.925   7.906   4.391 -0.7176  2.4220 -1.0034
   15MOL    H33 4541  -0.731   7.765   4.433  3.2579 -1.4750 -1.4731
   15MOL    C34 4542  -1.182   7.889   4.204  0.2079  0.5699 -0.9082
   15MOL    C35 4543  -1.299   7.985   4.209  0.3494 -0.6924 -0.3240
   15MOL    C36 4544  -1.396   7.974   4.106  0.1416  0.1874 -0.7352
   15MOL    C37 4545  -1.495   8.072   4.095  1.2852  0.6712 -0.0002
   15MOL    C38 4546  -1.512   8.164   4.201 -0.6631  0.1241  0.6853
   15MOL    C39 4547  -1.627   8.256   4.195 -0.5908 -0.2832 -0.0443
   15MOL    C40 4548  -1.425   8.164   4.316  0.2144  0.2027  0.1621
   15MOL    C41 4549  -1.319   8.069   4.317  0.1299 -0.7069  0.3949
   15MOL    H42 4550  -1.161   7.861   4.308 -0.5208 -1.5879 -1.3073
   15MOL    H43 4551  -1.200   7.796   4.149 -3.4331 -0.2378  1.4406
   15MOL    H44 4552  -1.378   7.900   4.030 -2.2631 -2.1550  0.8693
   15MOL    H45 4553  -1.567   8.064   4.015  0.8468  0.8645  0.3767
   15MOL    H46 4554  -1.591   8.351   4.234 -1.0603  0.1693 -0.6801
   15MOL    H47 4555  -1.655   8.277   4.092  0.4040 -0.0055 -0.2626
   15MOL    H48 4556  -1.436   8.230   4.401 -3.8139 -1.3620  1.0032
   15MOL    H49 4557  -1.249   8.059   4.398  1.6151 -0.5353 -0.8546
   15MOL    C50 4558  -1.752   8.202   4.270 -0.4292  0.7512 -0.2445
   15MOL    C51 4559  -1.869   8.297   4.255  0.7947  0.3151 -0.5655
   15MOL    C52 4560  -1.908   8.370   4.365  0.2959 -0.1987 -0.1951
   15MOL    C53 4561  -2.021   8.455   4.359  0.4630  0.4671  0.2981
   15MOL    C54 4562  -2.103   8.457   4.247  0.1581 -0.4678 -0.3383
   15MOL    C55 4563  -2.230   8.541   4.239 -0.6799  0.2504 -0.4102
   15MOL    C56 4564  -2.063   8.386   4.134  0.0898 -0.2308 -0.3883
   15MOL    C57 4565  -1.940   8.311   4.129 -0.2150  0.0737  0.4098
   15MOL    H58 4566  -1.718   8.181   4.371  1.9979 -0.6810 -1.3356
   15MOL    H59 4567  -1.784   8.106   4.230 -3.7190  1.6807  0.0075
   15MOL    H60 4568  -1.866   8.357   4.463  2.6469  0.7747 -1.0519
   15MOL    H61 4569  -2.063   8.515   4.439  0.8777  1.1960 -0.0242
   15MOL    H62 4570  -2.216   8.629   4.302  0.4762  0.0892 -0.4291
   15MOL    H63 4571  -2.233   8.585   4.140  0.9345  1.0947 -0.0915
   15MOL    H64 4572  -2.124   8.398   4.046  0.5326  1.8641 -0.4280
   15MOL    H65 4573  -1.903   8.247   4.051  0.8197  0.2914  0.7106
   15MOL    C66 4574  -2.357   8.466   4.275  0.0686 -0.4896  0.3084
   15MOL    C67 4575  -2.482   8.548   4.271  0.2370  0.2081 -0.4580
   15MOL    C68 4576  -2.548   8.600   4.385  0.0611 -0.0525 -0.2595
   15MOL    C69 4577  -2.668   8.684   4.371 -0.3285 -0.7355  0.1340
   15MOL    C70 4578  -2.739   8.675   4.250 -0.2160 -0.1803 -0.9169
   15MOL    C71 4579  -2.874   8.750   4.248  0.3670 -0.0073  0.4624
   15MOL    C72 4580  -2.671   8.622   4.140  0.1384 -0.4861  0.2639
   15MOL    C73 4581  -2.540   8.569   4.145  0.5316 -0.4597 -0.1776
   15MOL    H74 4582  -2.350   8.427   4.376 -2.5103  1.0964  1.1496
   15MOL    H75 4583  -2.358   8.384   4.203  0.7112  0.0138 -0.2821
   15MOL    H76 4584  -2.484   8.604   4.472 -0.5030  0.3361  0.1413
   15MOL    H77 4585  -2.711   8.742   4.452  1.1115 -0.6871  0.8845
   15MOL    H78 4586  -2.894   8.771   4.143  1.9331  1.2418  0.3836
   15MOL    H79 4587  -2.868   8.843   4.305 -0.8183  0.7089 -0.5644
   15MOL    H80 4588  -2.724   8.617   4.047 -1.2118 -0.0044  0.9866
   15MOL    H81 4589  -2.491   8.536   4.055 -1.4070  1.0280 -1.8552
   15MOL    C82 4590  -2.978   8.659   4.297  0.9114 -0.5199 -0.4530
   15MOL    C83 4591  -3.113   8.732   4.291  0.4161 -0.2714 -0.0043
   15MOL    C84 4592  -3.180   8.763   4.171  0.8724 -0.5584 -0.3335
   15MOL    C85 4593  -3.288   8.850   4.176  0.3704  0.5251 -0.3817
   15MOL    C86 4594  -3.347   8.880   4.302 -0.5167 -0.0540  0.2549
   15MOL    C87 4595  -3.475   8.962   4.309  0.3954  0.7775 -0.5548
   15MOL    C88 4596  -3.289   8.844   4.420 -0.7550  0.6176 -0.7135
   15MOL    C89 4597  -3.166   8.773   4.417 -0.3322 -0.1409 -1.0943
   15MOL    H90 4598  -2.949   8.628   4.398 -0.4228 -0.7580 -0.1232
   15MOL    H91 4599  -2.989   8.577   4.227  1.5395  1.1841 -2.5849
   15MOL    H92 4600  -3.146   8.735   4.073 -1.3037 -0.3190 -1.1759
   15MOL    H93 4601  -3.352   8.874   4.092 -0.1312  2.6236  0.5563
   15MOL    H94 4602  -3.508   8.980   4.207  0.8916 -0.8627 -1.0107
   15MOL    H95 4603  -3.450   9.048   4.372  0.7706  0.7734 -0.6949
   15MOL    H96 4604  -3.336   8.870   4.514 -0.8212  0.6875 -0.7658
   15MOL    H97 4605  -3.113   8.753   4.508  0.0445  0.3145 -1.2119
   15MOL    C98 4606  -3.596   8.901   4.388 -0.8015  0.0430  0.0864
   15MOL    C99 4607  -3.732   8.975   4.384  0.0223  0.0090  0.7970
   15MOL   C100 4608  -3.796   8.994   4.259 -0.3208  0.3194 -0.5220
   15MOL   C101 4609  -3.922   9.051   4.252 -0.0122 -0.0747 -0.5257
   15MOL   C102 4610  -3.988   9.092   4.373  0.0736 -0.3374 -0.4187
   15MOL   C103 4611  -4.119   9.163   4.371  1.5257 -0.0262  0.2860
   15MOL   C104 4612  -3.927   9.066   4.498 -0.1805 -0.3365 -0.1744
   15MOL   C105 4613  -3.802   9.011   4.501  0.1824  0.1478 -0.2917
   15MOL   H106 4614  -3.584   8.864   4.490 -0.7221  0.0869  0.0926
   15MOL   H107 4615  -3.624   8.813   4.330 -0.1492  1.0111 -1.7360
   15MOL   H108 4616  -3.743   8.961   4.170  0.6447 -0.3022  0.2706
   15MOL   H109 4617  -3.967   9.063   4.154 -0.4841 -1.0163 -0.4245
   15MOL   H110 4618  -4.103   9.260   4.417  0.0357  1.3194 -1.9062
   15MOL   H111 4619  -4.148   9.190   4.269  1.9086 -0.6660  0.0045
   15MOL   H112 4620  -3.964   9.099   4.594  1.9487  2.4869 -0.2474
   15MOL   H113 4621  -3.760   8.990   4.599  1.2409 -0.8048 -0.9273
   15MOL   C114 4622  -4.236   9.087   4.429 -0.8115  0.3026  0.0166
   15MOL   C115 4623  -4.368   9.168   4.417  0.1678 -0.3361 -0.4039
   15MOL   C116 4624  -4.424   9.205   4.292 -0.1950  0.5744  0.1782
   15MOL   C117 4625  -4.548   9.267   4.291 -0.0383  0.1340  0.8694
   15MOL   C118 4626  -4.615   9.293   4.415 -0.8219 -0.6278  0.4549
   15MOL   C119 4627  -4.742   9.374   4.412  0.5734 -0.4664 -0.4631
   15MOL   C120 4628  -4.558   9.254   4.539  0.0801  0.0439  0.9723
   15MOL   C121 4629  -4.435   9.190   4.532  0.2557 -0.9510 -0.1690
   15MOL   H122 4630  -4.216   9.062   4.533  0.8977 -0.5776 -0.5157
   15MOL   H123 4631  -4.259   8.993   4.378 -1.1700  0.9641 -1.0735
   15MOL   H124 4632  -4.373   9.178   4.201 -3.0513 -1.1363 -0.9746
   15MOL   H125 4633  -4.600   9.298   4.201 -2.6221 -0.5958  2.0466
   15MOL   H126 4634  -4.745   9.443   4.496 -1.3335 -0.4447 -0.5371
   15MOL   H127 4635  -4.745   9.438   4.323 -4.2971  1.6499  1.0360
   15MOL   H128 4636  -4.603   9.267   4.636  1.2488 -2.3168  1.8720
   15MOL   H129 4637  -4.394   9.142   4.620 -0.2214  4.3685  3.1655
   15MOL   C130 4638  -4.864   9.296   4.432 -0.0242  0.0199  0.1284
   15MOL   C131 4639  -4.988   9.379   4.435 -0.3543 -0.1626 -0.8457
   15MOL   C132 4640  -5.043   9.428   4.314  0.3681  0.1902 -0.2407
   15MOL   C133 4641  -5.161   9.504   4.320  0.3118  0.1318 -0.0291
   15MOL   C134 4642  -5.225   9.527   4.445 -0.5306 -0.7571  0.8715
   15MOL   C135 4643  -5.357   9.597   4.467  0.2714  0.4150  0.1063
   15MOL   C136 4644  -5.162   9.484   4.562  0.1932 -0.6340 -0.3366
   15MOL   C137 4645  -5.047   9.403   4.559 -1.0892 -0.5352  0.4824
   15MOL   H138 4646  -4.851   9.234   4.521 -0.0418 -1.7996 -1.0994
   15MOL   H139 4647  -4.870   9.230   4.345 -2.3137  1.3409 -0.7799
   15MOL   H140 4648  -5.003   9.397   4.219  0.9872  0.4051 -0.0507
   15MOL   H141 4649  -5.214   9.515   4.226 -2.0611  0.1903  1.2714
   15MOL   H142 4650  -5.420   9.524   4.519  1.3628  0.6031  1.7232
   15MOL   H143 4651  -5.338   9.671   4.544  1.4260  0.1925  0.0352
   15MOL   H144 4652  -5.205   9.508   4.659  0.5586 -0.8326 -0.1245
   15MOL   H145 4653  -5.000   9.358   4.645 -1.0644 -0.2671  0.6115
   15MOL   C146 4654  -5.435   9.638   4.335 -0.3750  0.7135 -0.1274
   15MOL   C147 4655  -5.571   9.699   4.377  0.1581  0.8668 -0.0088
   15MOL   C148 4656  -5.605   9.838   4.348  0.4671  0.2992 -0.5088
   15MOL   C149 4657  -5.718   9.897   4.407 -0.1743 -0.3630 -0.2524
   15MOL   C150 4658  -5.808   9.808   4.474  0.1583 -0.2484 -0.6461
   15MOL   C151 4659  -5.941   9.863   4.517  0.8138 -0.2830 -0.0477
   15MOL   C152 4660  -5.777   9.672   4.498 -0.3235 -0.2449 -0.1132
   15MOL   C153 4661  -5.654   9.623   4.460 -0.8187 -0.2087 -0.4191
   15MOL   H154 4662  -5.447   9.548   4.275  0.1283 -0.3190  1.2915
   15MOL   H155 4663  -5.371   9.702   4.275  1.1593 -0.4672  0.2239
   15MOL   H156 4664  -5.542   9.898   4.285  0.0279  0.6695 -0.5940
   15MOL   H157 4665  -5.751   9.999   4.391 -0.7023 -0.0690  2.5642
   15MOL   H158 4666  -5.952   9.836   4.622  0.5503 -1.0674 -0.2768
   15MOL   H159 4667  -5.935   9.972   4.511 -1.0700 -0.1185  0.6914
   15MOL   H160 4668  -5.841   9.606   4.554  0.2816 -1.0089 -0.3144
   15MOL   H161 4669  -5.634   9.522   4.491 -0.5484  0.5094  1.8333
   15MOL   C162 4670  -6.063   9.798   4.444 -0.2314 -0.3208 -0.8235
   15MOL   C163 4671  -6.053   9.832   4.297 -0.3611 -0.1832  0.8042
   15MOL   C164 4672  -6.102   9.955   4.246  0.2583  0.4520 -0.7183
   15MOL   C165 4673  -6.096   9.985   4.108 -0.5939  0.1530 -0.3229
   15MOL   C166 4674  -6.032   9.897   4.022 -0.9943  0.0291 -0.2872
   15MOL   C167 4675  -5.999   9.938   3.882  0.1797 -0.2838  0.2295
   15MOL   C168 4676  -5.980   9.780   4.073  0.0136 -0.3545  0.0660
   15MOL   C169 4677  -5.987   9.741   4.207  0.3423 -0.3458  0.0872
   15MOL   H170 4678  -6.150   9.848   4.487  1.1452 -0.5465  2.3080
   15MOL   H171 4679  -6.065   9.693   4.471  1.7808  0.3345  2.0440
   15MOL   H172 4680  -6.134  10.026   4.320 -0.9816  0.7781 -1.5566
   15MOL   H173 4681  -6.132  10.079   4.071  1.5895  1.8891  1.7832
   15MOL   H174 4682  -6.012   9.850   3.819 -1.3253  0.8103 -1.0204
   15MOL   H175 4683  -6.087   9.988   3.840 -0.3853  0.7292  2.5274
   15MOL   H176 4684  -5.930   9.715   4.003 -0.3423 -0.0945 -0.4347
   15MOL   H177 4685  -5.938   9.650   4.239 -1.8935 -1.4772  0.3643
   15MOL   C178 4686  -5.865  10.014   3.851  0.0334  0.7007 -0.9295
   15MOL   C179 4687  -5.735   9.934   3.868  0.3675 -0.4062  0.0025
   15MOL   C180 4688  -5.685   9.902   3.995  0.2009 -0.0234 -0.0432
   15MOL   C181 4689  -5.565   9.823   4.012  0.0844  0.2273  0.2318
   15MOL   C182 4690  -5.507   9.767   3.894  0.1293  0.1443  0.4133
   15MOL   C183 4691  -5.375   9.689   3.905  0.5112  0.9901  0.5793
   15MOL   C184 4692  -5.554   9.800   3.769  0.2755  0.3202 -0.1097
   15MOL   C185 4693  -5.668   9.891   3.750 -0.5749 -0.8652 -0.3683
   15MOL   H186 4694  -5.861  10.105   3.911 -0.9172 -1.0001  1.7804
   15MOL   H187 4695  -5.882  10.049   3.749  3.0655  1.0611 -1.3546
   15MOL   H188 4696  -5.733   9.939   4.085 -1.8913  0.7229 -1.4457
   15MOL   H189 4697  -5.525   9.789   4.106  0.3942 -1.0592 -0.3563
   15MOL   H190 4698  -5.369   9.642   4.003 -1.4159  1.0490  0.7466
   15MOL   H191 4699  -5.399   9.608   3.837  1.5926  3.7415 -3.2446
   15MOL   H192 4700  -5.516   9.755   3.679 -1.7306 -1.5028 -0.0762
   15MOL   H193 4701  -5.713   9.900   3.653 -1.9117  1.1993  0.4248
   15MOL   C194 4702  -5.257   9.780   3.877 -0.1008  0.3350  0.1473
   15MOL   C195 4703  -5.128   9.701   3.879  0.0479  0.6821  0.5032
   15MOL   C196 4704  -5.078   9.638   3.763  1.0725  0.1719 -0.8269
   15MOL   C197 4705  -4.963   9.555   3.772  0.7094  0.9005  0.2728
   15MOL   C198 4706  -4.889   9.535   3.890  0.2722 -0.5045 -0.4629
   15MOL   C199 4707  -4.767   9.447   3.895 -0.4157 -0.0025 -0.3375
   15MOL   C200 4708  -4.932   9.609   4.004  0.0995 -0.6851  0.1395
   15MOL   C201 4709  -5.051   9.684   3.999 -0.4607 -0.2142  0.2829
   15MOL   H202 4710  -5.252   9.867   3.943 -0.2357  0.2493  0.2692
   15MOL   H203 4711  -5.272   9.821   3.777 -1.9022 -1.9020 -0.5223
   15MOL   H204 4712  -5.135   9.644   3.671  0.0233  0.4824 -0.1644
   15MOL   H205 4713  -4.934   9.491   3.690  1.1018  0.9464  0.3732
   15MOL   H206 4714  -4.731   9.432   3.996  2.4441  0.2148 -1.2711
   15MOL   H207 4715  -4.790   9.349   3.853 -0.2334  0.2640 -1.0796
   15MOL   H208 4716  -4.875   9.596   4.095  2.0570  0.6613 -0.8606
   15MOL   H209 4717  -5.078   9.746   4.083 -1.3258 -1.4355  0.9245
   15MOL   C210 4718  -4.654   9.518   3.820 -0.1633 -0.5536 -0.1838
   15MOL   C211 4719  -4.527   9.436   3.826 -0.0471  0.9168 -1.0332
   15MOL   C212 4720  -4.440   9.466   3.932 -0.8613 -0.2572 -0.5656
   15MOL   C213 4721  -4.314   9.405   3.932 -0.7266  0.1176  0.2092
   15MOL   C214 4722  -4.287   9.300   3.842  0.5325  0.7634 -0.1534
   15MOL   C215 4723  -4.156   9.219   3.854  0.1404  0.2090 -0.8793
   15MOL   C216 4724  -4.380   9.270   3.739 -0.1707  0.7736 -0.3634
   15MOL   C217 4725  -4.500   9.340   3.730 -0.3343 -0.0815  0.1598
   15MOL   H218 4726  -4.640   9.615   3.868  1.1066  1.2373 -4.0075
   15MOL   H219 4727  -4.681   9.547   3.719 -1.8734  0.1431  0.4590
   15MOL   H220 4728  -4.462   9.544   4.003 -2.2234  0.1942 -1.4623
   15MOL   H221 4729  -4.244   9.407   4.014 -1.2094 -1.0533  0.6551
   15MOL   H222 4730  -4.142   9.182   3.955  0.0572  1.3583 -0.4439
   15MOL   H223 4731  -4.169   9.136   3.784 -1.5060  1.4001 -2.0475
   15MOL   H224 4732  -4.357   9.192   3.668  1.0853  1.3583 -0.6125
   15MOL   H225 4733  -4.577   9.320   3.657 -0.1374 -0.6418  0.1058
   15MOL   C226 4734  -4.030   9.292   3.797 -0.3920  0.1888  0.1219
   15MOL   C227 4735  -3.914   9.207   3.807 -0.0784  0.0535  0.2054
   15MOL   C228 4736  -3.827   9.207   3.916 -0.4435  0.0762  0.0747
   15MOL   C229 4737  -3.712   9.123   3.914 -0.2571  0.1419  0.3580
   15MOL   C230 4738  -3.680   9.034   3.805  0.0136 -0.2474  0.4021
   15MOL   C231 4739  -3.546   8.960   3.795 -0.1126  0.7510  0.1213
   15MOL   C232 4740  -3.787   9.019   3.708 -0.1774 -0.3865  0.1602
   15MOL   C233 4741  -3.892   9.110   3.704 -0.6882 -0.5653  0.4857
   15MOL   H234 4742  -4.025   9.386   3.852  0.7429 -0.6562  1.4870
   15MOL   H235 4743  -4.034   9.322   3.693 -0.4708 -0.1819  0.0199
   15MOL   H236 4744  -3.846   9.278   3.994 -2.1254 -1.2974  0.9538
   15MOL   H237 4745  -3.637   9.128   3.992 -0.5625  1.0441  0.5953
   15MOL   H238 4746  -3.513   8.941   3.897 -1.9767  0.7513  0.7315
   15MOL   H239 4747  -3.556   8.858   3.758 -1.7536  1.5222 -1.6358
   15MOL   H240 4748  -3.781   8.938   3.637  0.7037 -0.7934  0.6890
   15MOL   H241 4749  -3.965   9.092   3.627 -0.6862  0.1883  0.3120
   15MOL   C242 4750  -3.430   9.040   3.731  0.0814 -0.5284  0.8032
   15MOL   C243 4751  -3.300   8.962   3.736 -0.3549 -0.0910  0.0614
   15MOL   C244 4752  -3.211   8.973   3.844 -0.9088 -0.2731 -0.1526
   15MOL   C245 4753  -3.088   8.900   3.842 -0.0019  0.4294  0.1562
   15MOL   C246 4754  -3.052   8.818   3.731  0.1046  0.1108 -0.1495
   15MOL   C247 4755  -2.923   8.740   3.735 -0.1188 -0.0135 -0.6311
   15MOL   C248 4756  -3.143   8.811   3.623 -0.3733  0.5821  0.2467
   15MOL   C249 4757  -3.263   8.880   3.627 -0.2592  0.0125 -0.1247
   15MOL   H250 4758  -3.446   9.066   3.627 -2.1313  1.2782  1.5423
   15MOL   H251 4759  -3.414   9.134   3.784 -1.0444 -0.2655  0.6689
   15MOL   H252 4760  -3.240   9.027   3.934 -4.3194 -0.4384 -1.0911
   15MOL   H253 4761  -3.020   8.907   3.927 -0.5392  0.6694  0.5680
   15MOL   H254 4762  -2.907   8.692   3.832 -2.2256  0.2945 -0.1135
   15MOL   H255 4763  -2.926   8.658   3.663 -2.3364 -0.6206  0.1201
   15MOL   H256 4764  -3.131   8.741   3.543 -0.6962  1.3239 -0.4536
   15MOL   H257 4765  -3.318   8.885   3.534 -1.3075 -2.0449  0.3473
   15MOL   C258 4766  -2.804   8.831   3.698 -0.8428 -0.3154 -0.2430
   15MOL   C259 4767  -2.669   8.762   3.698  0.3516  0.1165 -0.2830
   15MOL   C260 4768  -2.638   8.684   3.587 -0.0934 -0.6320 -0.0147
   15MOL   C261 4769  -2.530   8.594   3.594  0.2209  0.3055 -0.3070
   15MOL   C262 4770  -2.441   8.587   3.707 -0.2034 -0.0601  0.0953
   15MOL   C263 4771  -2.317   8.510   3.699  0.2449 -0.0172  0.1036
   15MOL   C264 4772  -2.466   8.670   3.819  0.4483 -0.6870 -0.7903
   15MOL   C265 4773  -2.579   8.761   3.809 -0.2033 -0.6702  0.2072
   15MOL   H266 4774  -2.803   8.913   3.769  1.2292 -1.4791  1.1375
   15MOL   H267 4775  -2.835   8.870   3.601  1.9898  1.3046 -0.5550
   15MOL   H268 4776  -2.698   8.687   3.498 -1.3567 -1.6756  0.7895
   15MOL   H269 4777  -2.511   8.545   3.500  3.7482 -1.5716  1.2937
   15MOL   H270 4778  -2.308   8.449   3.790 -0.9554  0.8530  0.8303
   15MOL   H271 4779  -2.316   8.433   3.622 -0.1035 -0.3693  0.4477
   15MOL   H272 4780  -2.401   8.670   3.905 -0.7596  1.1567  0.1425
   15MOL   H273 4781  -2.592   8.822   3.897  1.9595 -1.6580  1.2526
   15MOL   C274 4782  -2.197   8.594   3.669  0.2881  0.0597 -0.3563
   15MOL   C275 4783  -2.068   8.518   3.676 -0.2178 -0.8223 -0.0784
   15MOL   C276 4784  -2.036   8.447   3.561  0.3864 -0.0090  0.1706
   15MOL   C277 4785  -1.921   8.365   3.561 -0.4791 -0.3792  1.0876
   15MOL   C278 4786  -1.841   8.356   3.679  0.0520 -0.0741 -0.4243
   15MOL   C279 4787  -1.715   8.267   3.682  0.2144  0.4816 -0.7688
   15MOL   C280 4788  -1.878   8.425   3.792  0.5665  0.4437 -0.0509
   15MOL   C281 4789  -1.991   8.508   3.793 -0.9520  0.8096  0.4447
   15MOL   H282 4790  -2.206   8.647   3.575  0.2825  0.6495 -0.0246
   15MOL   H283 4791  -2.181   8.669   3.747 -1.6754  0.9318 -0.7846
   15MOL   H284 4792  -2.096   8.463   3.472 -1.3624 -0.7969  1.1672
   15MOL   H285 4793  -1.895   8.306   3.474 -0.1846 -2.4825  2.5761
   15MOL   H286 4794  -1.706   8.226   3.782  0.5193  0.2147 -0.9042
   15MOL   H287 4795  -1.724   8.189   3.606 -0.8151 -0.6814  0.5308
   15MOL   H288 4796  -1.815   8.431   3.879  0.8849  1.9669 -0.3829
   15MOL   H289 4797  -2.005   8.557   3.888  1.1396 -0.1148  1.2646
   15MOL   C290 4798  -1.591   8.348   3.662 -0.7747  0.3910 -0.2162
   15MOL   C291 4799  -1.465   8.257   3.675 -0.2318  0.5354 -0.4166
   15MOL   C292 4800  -1.373   8.274   3.775  0.1636 -0.5697 -0.0858
   15MOL   C293 4801  -1.262   8.188   3.793 -0.0482  0.0527  0.1813
   15MOL   C294 4802  -1.236   8.082   3.700 -1.0172  0.0843  0.7426
   15MOL   C295 4803  -1.114   7.997   3.715  0.1425  0.5227  0.7891
   15MOL   C296 4804  -1.335   8.057   3.604 -0.6288  0.4152  0.0325
   15MOL   C297 4805  -1.449   8.147   3.589  0.2373  0.3036 -0.1367
   15MOL   H298 4806  -1.584   8.422   3.742 -1.7140  2.0376 -1.6385
   15MOL   H299 4807  -1.578   8.397   3.566  0.2769  2.3538  0.8955
   15MOL   H300 4808  -1.387   8.355   3.845 -1.0600  1.3682 -2.5034
   15MOL   H301 4809  -1.188   8.209   3.868  0.0553 -0.7661  0.3131
   15MOL   H302 4810  -1.108   7.968   3.820 -0.2074  0.5746  0.8239
   15MOL   H303 4811  -1.118   7.907   3.654  0.0181  2.3883 -2.0347
   15MOL   H304 4812  -1.321   7.967   3.547  0.0820  0.0674  0.7618
   15MOL   H305 4813  -1.532   8.122   3.525 -2.7953 -0.6530  3.9578
   15MOL   C306 4814  -0.986   8.075   3.675  0.7023  0.0319  0.4868
   15MOL   C307 4815  -0.859   7.991   3.705 -0.1107  0.0072  0.8477
   15MOL   C308 4816  -0.763   8.033   3.802  0.4497  0.0315 -0.5232
   15MOL   C309 4817  -0.646   7.955   3.818  0.6696  0.6631  0.2303
   15MOL   C310 4818  -0.636   7.830   3.752  0.2452  0.7119  0.0864
   15MOL   C311 4819  -0.517   7.743   3.782  0.4528  0.5794 -0.3231
   15MOL   C312 4820  -0.736   7.784   3.665  0.5393 -0.4500 -0.0763
   15MOL   C313 4821  -0.844   7.870   3.637 -0.3224  0.9085 -0.2418
   15MOL   H314 4822  -0.983   8.172   3.725  0.1882  0.5423 -0.4670
   15MOL   H315 4823  -0.993   8.099   3.569  2.5688  1.5554  0.6666
   15MOL   H316 4824  -0.775   8.125   3.858  2.0375 -0.1366  0.1124
   15MOL   H317 4825  -0.567   7.987   3.884 -0.8871  1.7454  1.6087
   15MOL   H318 4826  -0.480   7.718   3.683  2.4214 -2.0333  0.9987
   15MOL   H319 4827  -0.429   7.784   3.831  0.7568 -0.9194  0.4273
   15MOL   H320 4828  -0.720   7.700   3.599  1.9945 -0.4141  0.2275
   15MOL   H321 4829  -0.915   7.848   3.560  0.0106  0.1194 -0.3262
   15MOL   H322 4830  -0.547   7.651   3.833  0.2087  1.0520  0.4030
   16MOL     C1 4831   3.335   4.559   5.142 -0.3448 -0.4115  0.4348
   16MOL     C2 4832   3.182   4.548   5.135 -0.1412 -0.6316  0.1738
   16MOL     C3 4833   3.105   4.647   5.071 -0.0387 -0.1904  0.3007
   16MOL     C4 4834   2.968   4.624   5.056 -0.1418 -0.3164 -0.5674
   16MOL     C5 4835   2.902   4.510   5.102 -0.9064  0.7664 -0.1419
   16MOL     C6 4836   2.758   4.486   5.069  0.5312  0.3668 -0.5148
   16MOL     C7 4837   2.978   4.414   5.167  0.3504  0.6305  0.5434
   16MOL     C8 4838   3.117   4.432   5.183  0.1542  0.4135 -0.1458
   16MOL     H9 4839   3.370   4.564   5.245 -0.5222  1.1650  0.4337
   16MOL    H10 4840   3.387   4.481   5.087  1.3992  1.5295 -0.7674
   16MOL    H11 4841   3.150   4.736   5.028  2.1315 -2.0730 -1.4389
   16MOL    H12 4842   2.905   4.703   5.018  0.1078 -0.0212 -0.3717
   16MOL    H13 4843   2.711   4.431   5.150 -0.3881  0.1397 -1.1958
   16MOL    H14 4844   2.704   4.580   5.059 -1.4060 -0.7193 -0.4886
   16MOL    H15 4845   2.935   4.318   5.188  3.2709 -1.5698 -2.9815
   16MOL    H16 4846   3.167   4.346   5.225 -1.1052 -0.7361 -0.9493
   16MOL    H17 4847   3.366   4.649   5.088 -0.9577  0.6427  1.7894
   16MOL    C18 4848   2.735   4.392   4.950  0.3878  0.3520 -0.0425
   16MOL    C19 4849   2.589   4.382   4.916  0.2156 -0.2045 -0.0920
   16MOL    C20 4850   2.521   4.263   4.937  0.4687 -0.6840 -0.8894
   16MOL    C21 4851   2.380   4.257   4.901 -0.0937  0.0302 -0.6393
   16MOL    C22 4852   2.316   4.369   4.842 -0.2177 -0.5303 -0.5908
   16MOL    C23 4853   2.171   4.378   4.799 -0.8559  0.3902 -1.1386
   16MOL    C24 4854   2.389   4.488   4.816 -0.1274  0.0478 -0.1711
   16MOL    C25 4855   2.522   4.493   4.852  0.2646  0.2668  0.2118
   16MOL    H26 4856   2.801   4.428   4.871  0.7542  2.9166  1.3546
   16MOL    H27 4857   2.766   4.292   4.980  0.0499  0.4173  0.5389
   16MOL    H28 4858   2.582   4.179   4.965  1.7898  1.1469  2.0000
   16MOL    H29 4859   2.325   4.165   4.920 -1.2213  0.6102 -1.0574
   16MOL    H30 4860   2.143   4.483   4.796 -0.0217  0.6014 -2.0737
   16MOL    H31 4861   2.111   4.324   4.872  0.5629  0.8497  0.3728
   16MOL    H32 4862   2.343   4.574   4.770 -1.5656 -0.3894  0.4090
   16MOL    H33 4863   2.588   4.575   4.827  0.6314 -0.2811 -0.6574
   16MOL    C34 4864   2.158   4.309   4.668  0.2397 -0.0746  0.0973
   16MOL    C35 4865   2.019   4.304   4.609 -0.1358 -0.2094  0.4775
   16MOL    C36 4866   1.908   4.237   4.667 -0.3214  0.0500  0.4549
   16MOL    C37 4867   1.783   4.236   4.609  0.3033  0.1052  0.1175
   16MOL    C38 4868   1.758   4.317   4.500  0.8740 -0.2382 -0.3665
   16MOL    C39 4869   1.622   4.320   4.439  0.1822  0.3377  0.0757
   16MOL    C40 4870   1.863   4.392   4.443  0.6590  0.5330  0.3850
   16MOL    C41 4871   1.991   4.388   4.499  0.0982 -0.2045 -0.3094
   16MOL    H42 4872   2.187   4.204   4.677  0.5872  0.0401  0.3288
   16MOL    H43 4873   2.224   4.353   4.593  1.7850 -1.9369  0.3250
   16MOL    H44 4874   1.928   4.184   4.759  1.7533  1.4126  0.8193
   16MOL    H45 4875   1.699   4.198   4.666 -0.8251  3.1630  0.5753
   16MOL    H46 4876   1.543   4.288   4.507 -0.0972  2.4197  0.7508
   16MOL    H47 4877   1.589   4.421   4.415 -0.9119 -0.2962 -1.1490
   16MOL    H48 4878   1.836   4.453   4.358 -0.8860  1.2798  1.3928
   16MOL    H49 4879   2.067   4.453   4.458 -0.4350  1.3784  1.1135
   16MOL    C50 4880   1.606   4.221   4.318  0.4745  0.4160  0.5943
   16MOL    C51 4881   1.469   4.233   4.242 -0.3649  0.1240  0.2524
   16MOL    C52 4882   1.384   4.121   4.246 -0.8222  0.2479 -0.8981
   16MOL    C53 4883   1.253   4.124   4.197 -0.2652  0.2495 -0.0416
   16MOL    C54 4884   1.212   4.244   4.131  0.2976  0.5120  0.0725
   16MOL    C55 4885   1.081   4.247   4.059 -0.3386 -0.2269 -0.3626
   16MOL    C56 4886   1.302   4.349   4.121  0.7910  0.0928  0.3745
   16MOL    C57 4887   1.429   4.349   4.179 -0.2647 -0.1235 -0.0072
   16MOL    H58 4888   1.627   4.121   4.356  0.6390  0.1725 -0.1182
   16MOL    H59 4889   1.689   4.231   4.248 -1.6374 -1.5342 -2.2948
   16MOL    H60 4890   1.403   4.040   4.315 -1.1282  0.6476 -0.3424
   16MOL    H61 4891   1.194   4.036   4.217 -1.1003  0.4534 -1.5607
   16MOL    H62 4892   1.087   4.284   3.957 -0.3222  2.4495  0.5805
   16MOL    H63 4893   1.046   4.144   4.049  0.0873 -0.4512  0.4365
   16MOL    H64 4894   1.271   4.441   4.073  0.2525 -2.0394 -3.5548
   16MOL    H65 4895   1.480   4.444   4.181 -0.7620  0.1222  1.8111
   16MOL    C66 4896   0.981   4.332   4.144  0.4993 -0.1850 -0.2373
   16MOL    C67 4897   0.842   4.333   4.090  0.4234  0.1119 -0.7551
   16MOL    C68 4898   0.781   4.215   4.048 -0.6128 -0.0032 -0.3466
   16MOL    C69 4899   0.646   4.211   4.001  0.6462 -0.7483 -0.6868
   16MOL    C70 4900   0.576   4.339   3.992 -1.1880  0.2529  0.6799
   16MOL    C71 4901   0.431   4.346   3.944  0.9455  0.0082  0.6719
   16MOL    C72 4902   0.641   4.458   4.021 -0.5955 -0.3006 -0.4619
   16MOL    C73 4903   0.772   4.453   4.076 -0.3015 -0.4362  0.4140
   16MOL    H74 4904   1.021   4.434   4.145 -1.5582  0.6419  1.3845
   16MOL    H75 4905   0.975   4.290   4.244 -0.5422  1.4980  0.4215
   16MOL    H76 4906   0.827   4.123   4.080 -0.9096 -0.0317  0.0091
   16MOL    H77 4907   0.592   4.117   4.000 -0.4899 -0.1522  1.6497
   16MOL    H78 4908   0.411   4.246   3.905 -1.6679  1.6706 -2.5090
   16MOL    H79 4909   0.429   4.421   3.865  0.2771  0.1101  0.7794
   16MOL    H80 4910   0.588   4.552   4.016  2.5225  1.5614 -0.2532
   16MOL    H81 4911   0.822   4.534   4.127  0.4279  0.4666 -1.7230
   16MOL    C82 4912   0.316   4.371   4.047 -0.5648 -0.6685 -0.1111
   16MOL    C83 4913   0.180   4.413   4.002  0.2514 -0.1344  0.2263
   16MOL    C84 4914   0.122   4.530   4.040  0.1598 -0.2606  0.1708
   16MOL    C85 4915  -0.007   4.566   4.004  0.1286 -0.6811  0.0467
   16MOL    C86 4916  -0.084   4.481   3.935  0.0274  1.1895  0.6128
   16MOL    C87 4917  -0.228   4.516   3.912 -0.4273 -0.4381  0.0226
   16MOL    C88 4918  -0.024   4.359   3.897  0.5103  0.1234  0.1690
   16MOL    C89 4919   0.107   4.329   3.922  0.7508  0.3361  0.0446
   16MOL    H90 4920   0.361   4.451   4.106 -2.4744 -0.8912  1.7034
   16MOL    H91 4921   0.301   4.287   4.116 -0.2617  1.6224  2.8532
   16MOL    H92 4922   0.184   4.594   4.101  1.2030 -1.6541  0.6097
   16MOL    H93 4923  -0.055   4.653   4.047  0.1919  0.0806 -1.3885
   16MOL    H94 4924  -0.256   4.503   3.807  1.0348  0.7519 -0.5304
   16MOL    H95 4925  -0.270   4.615   3.926 -1.7903 -1.0744  0.5405
   16MOL    H96 4926  -0.070   4.283   3.837 -0.3967 -0.3079  1.3862
   16MOL    H97 4927   0.156   4.241   3.883 -1.1944 -0.4419 -0.7425
   16MOL    C98 4928  -0.319   4.421   3.986 -0.9446 -0.2293  0.1174
   16MOL    C99 4929  -0.469   4.442   3.961 -0.3351 -0.3587 -0.1604
   16MOL   C100 4930  -0.550   4.490   4.065 -0.7939 -0.2180 -0.6481
   16MOL   C101 4931  -0.683   4.524   4.044 -0.3125  0.4244 -0.5322
   16MOL   C102 4932  -0.748   4.484   3.927  0.0670  0.4781 -0.7034
   16MOL   C103 4933  -0.904   4.495   3.922  0.2315  0.5307  0.3318
   16MOL   C104 4934  -0.672   4.435   3.824 -0.2604  0.3751 -0.1456
   16MOL   C105 4935  -0.535   4.411   3.840 -0.0907 -0.0128 -0.2676
   16MOL   H106 4936  -0.296   4.423   4.093 -0.3678 -2.9875  0.1020
   16MOL   H107 4937  -0.291   4.318   3.961 -2.3899 -0.3548 -1.0433
   16MOL   H108 4938  -0.504   4.510   4.161 -1.7651 -0.3717 -0.1508
   16MOL   H109 4939  -0.731   4.571   4.128 -0.1516 -2.1479  1.0507
   16MOL   H110 4940  -0.924   4.404   3.866 -0.2966  1.7407 -1.5041
   16MOL   H111 4941  -0.950   4.495   4.021  0.5328 -0.6703  0.4825
   16MOL   H112 4942  -0.708   4.410   3.725 -0.7912  0.7116 -0.0391
   16MOL   H113 4943  -0.478   4.371   3.757 -0.6952 -0.5600 -0.4308
   16MOL   C114 4944  -0.946   4.618   3.852 -0.5267  0.8014 -0.6583
   16MOL   C115 4945  -1.095   4.611   3.829  0.0833  0.2039 -0.2409
   16MOL   C116 4946  -1.186   4.688   3.908 -0.0197  0.0597 -1.2089
   16MOL   C117 4947  -1.323   4.694   3.879  0.1207 -0.1794 -0.3544
   16MOL   C118 4948  -1.374   4.627   3.768  0.3638 -0.1419  0.2527
   16MOL   C119 4949  -1.516   4.616   3.739  0.9873 -0.4949  0.7476
   16MOL   C120 4950  -1.283   4.559   3.681 -0.7418  0.2079  0.6002
   16MOL   C121 4951  -1.144   4.552   3.711 -0.4438 -0.6399  0.3506
   16MOL   H122 4952  -0.908   4.632   3.752  0.2906  0.4524 -0.3938
   16MOL   H123 4953  -0.913   4.701   3.915  0.0741 -0.9648  1.4103
   16MOL   H124 4954  -1.154   4.742   3.996  0.6409 -3.1346  0.6096
   16MOL   H125 4955  -1.391   4.746   3.945  1.6839 -1.3670  2.2664
   16MOL   H126 4956  -1.554   4.514   3.724 -2.1223  0.6218  0.6696
   16MOL   H127 4957  -1.573   4.655   3.823 -1.1224  0.5425 -1.1252
   16MOL   H128 4958  -1.323   4.509   3.594  1.6551  0.6586 -0.7926
   16MOL   H129 4959  -1.073   4.507   3.644  0.5386  1.4586 -0.0741
   16MOL   C130 4960  -1.548   4.706   3.608 -0.7761 -0.6529  0.2656
   16MOL   C131 4961  -1.699   4.715   3.583 -0.5752  0.3386  0.5144
   16MOL   C132 4962  -1.777   4.824   3.625 -0.7047  0.1852 -0.0698
   16MOL   C133 4963  -1.914   4.810   3.621 -0.2495  0.0328 -0.1893
   16MOL   C134 4964  -1.974   4.696   3.568 -0.2622 -0.6120 -0.3604
   16MOL   C135 4965  -2.127   4.698   3.571 -0.4522  0.5561  0.4478
   16MOL   C136 4966  -1.897   4.589   3.519 -0.4789 -0.5419  0.3577
   16MOL   C137 4967  -1.758   4.600   3.536 -0.5216  0.2440  0.0302
   16MOL   H138 4968  -1.497   4.668   3.520 -1.0926  2.1079 -1.1636
   16MOL   H139 4969  -1.507   4.805   3.628 -1.0469 -0.0374 -2.1490
   16MOL   H140 4970  -1.733   4.915   3.663 -0.4464 -0.7435  1.9530
   16MOL   H141 4971  -1.974   4.889   3.663 -1.9910 -1.2495 -0.2092
   16MOL   H142 4972  -2.165   4.597   3.581  0.4098  0.0739 -0.9832
   16MOL   H143 4973  -2.160   4.760   3.654 -1.1536  0.9889 -0.1573
   16MOL   H144 4974  -1.945   4.503   3.475  1.5081 -1.7989  0.6045
   16MOL   H145 4975  -1.697   4.516   3.509  0.7498  0.8441  0.9948
   16MOL   C146 4976  -2.187   4.750   3.437 -0.4243 -0.1956 -0.0447
   16MOL   C147 4977  -2.336   4.759   3.439  0.4265  0.3286 -0.5751
   16MOL   C148 4978  -2.416   4.658   3.389 -0.8666  0.4789  0.1135
   16MOL   C149 4979  -2.551   4.680   3.366 -1.3995 -0.5919 -0.1361
   16MOL   C150 4980  -2.607   4.806   3.379  0.5592 -0.3193  0.3492
   16MOL   C151 4981  -2.753   4.826   3.341  0.0246  0.0862 -0.1792
   16MOL   C152 4982  -2.533   4.902   3.457 -0.2886 -0.4273  0.8308
   16MOL   C153 4983  -2.397   4.876   3.492 -0.0868 -0.3936 -0.0693
   16MOL   H154 4984  -2.149   4.697   3.350 -1.7446  1.4332 -1.6621
   16MOL   H155 4985  -2.151   4.852   3.426 -0.7927  0.0851  1.2613
   16MOL   H156 4986  -2.361   4.566   3.372 -0.8904  0.9058 -2.5347
   16MOL   H157 4987  -2.617   4.601   3.334  0.9436 -2.7634  0.2506
   16MOL   H158 4988  -2.760   4.889   3.253 -0.2434 -0.7341 -0.7512
   16MOL   H159 4989  -2.784   4.725   3.312 -2.8179  0.3337  1.7272
   16MOL   H160 4990  -2.566   5.002   3.481  3.1000  0.8807  0.2749
   16MOL   H161 4991  -2.351   4.958   3.545 -2.2892  1.0407 -0.2873
   16MOL   C162 4992  -2.851   4.865   3.457 -0.3842 -0.4460 -0.1358
   16MOL   C163 4993  -2.986   4.920   3.413  0.5050  0.0847 -0.0534
   16MOL   C164 4994  -3.111   4.856   3.449  0.0171 -0.6331 -0.0218
   16MOL   C165 4995  -3.230   4.917   3.402 -0.5134  0.2188  0.2489
   16MOL   C166 4996  -3.225   5.028   3.318 -0.7285  0.0249  0.7720
   16MOL   C167 4997  -3.353   5.086   3.258  0.3443 -0.0843  0.0973
   16MOL   C168 4998  -3.105   5.093   3.289  0.2115 -1.1309  0.6159
   16MOL   C169 4999  -2.988   5.037   3.342 -0.2487  0.9484  0.0093
   16MOL   H170 5000  -2.810   4.944   3.520 -1.9244 -0.2291  0.6351
   16MOL   H171 5001  -2.852   4.775   3.519 -0.7815  0.6116  1.4365
   16MOL   H172 5002  -3.108   4.774   3.519 -1.2863  0.0173  0.8193
   16MOL   H173 5003  -3.325   4.879   3.434 -2.2312  1.0968 -3.5467
   16MOL   H174 5004  -3.331   5.130   3.161 -0.9188  2.2839  0.8459
   16MOL   H175 5005  -3.406   4.994   3.231 -0.0660  0.4944 -1.0907
   16MOL   H176 5006  -3.107   5.181   3.226 -1.1134 -2.1196 -0.7536
   16MOL   H177 5007  -2.893   5.087   3.327 -0.4616  1.1053 -0.8809
   16MOL   C178 5008  -3.435   5.174   3.350  1.0478 -0.0145 -0.3269
   16MOL   C179 5009  -3.560   5.235   3.286 -0.3585 -0.0567 -0.1490
   16MOL   C180 5010  -3.646   5.151   3.206  0.3139  0.0404 -0.7641
   16MOL   C181 5011  -3.775   5.196   3.168 -0.8760  1.1147 -0.1551
   16MOL   C182 5012  -3.815   5.328   3.204 -0.1991 -0.3971 -0.9652
   16MOL   C183 5013  -3.946   5.382   3.149 -0.3391 -0.0507 -0.1601
   16MOL   C184 5014  -3.731   5.405   3.290 -0.0736  0.1057 -0.1819
   16MOL   C185 5015  -3.604   5.363   3.333  0.8198 -0.2390  0.5446
   16MOL   H186 5016  -3.369   5.255   3.381  0.0616 -0.3441  2.9056
   16MOL   H187 5017  -3.457   5.135   3.450  0.5357  3.0501  0.8218
   16MOL   H188 5018  -3.622   5.047   3.193  0.8876 -0.1276  1.3714
   16MOL   H189 5019  -3.839   5.133   3.110 -0.3462  0.3822  0.0532
   16MOL   H190 5020  -3.926   5.483   3.115 -1.7764  0.9302  1.7836
   16MOL   H191 5021  -3.983   5.308   3.078  0.7303 -0.7150 -0.0324
   16MOL   H192 5022  -3.765   5.501   3.328 -2.4610 -0.5895 -0.4869
   16MOL   H193 5023  -3.543   5.425   3.398  0.8818  1.0463 -0.7158
   16MOL   C194 5024  -4.054   5.392   3.265  0.6405  0.3597  0.1784
   16MOL   C195 5025  -4.196   5.414   3.216  0.0228  0.1816  0.0429
   16MOL   C196 5026  -4.300   5.307   3.224  0.0791  0.2776  0.1779
   16MOL   C197 5027  -4.433   5.344   3.192  0.6033  0.2316  0.1728
   16MOL   C198 5028  -4.464   5.476   3.149  0.1463  0.2364  0.9661
   16MOL   C199 5029  -4.602   5.510   3.102  0.3557  0.3623  0.2631
   16MOL   C200 5030  -4.362   5.565   3.134  0.0667 -0.8618 -0.0852
   16MOL   C201 5031  -4.233   5.542   3.172  0.6682 -0.2695  0.2553
   16MOL   H202 5032  -4.023   5.469   3.335 -0.4922  1.1746 -0.2098
   16MOL   H203 5033  -4.060   5.303   3.328  0.3982 -1.5724 -2.4810
   16MOL   H204 5034  -4.269   5.205   3.242 -2.7315 -1.3042 -3.3603
   16MOL   H205 5035  -4.508   5.267   3.206  1.0657 -0.0320  1.2243
   16MOL   H206 5036  -4.599   5.572   3.013  3.0188 -0.1282 -0.0225
   16MOL   H207 5037  -4.653   5.416   3.080 -1.6992  1.4536  0.2443
   16MOL   H208 5038  -4.380   5.665   3.096  1.2338 -0.1490  1.2118
   16MOL   H209 5039  -4.154   5.616   3.169 -0.5489  1.0427  0.4183
   16MOL   C210 5040  -4.688   5.569   3.212 -1.0390 -0.2185  0.4140
   16MOL   C211 5041  -4.842   5.588   3.179  0.1167  0.5546  0.1531
   16MOL   C212 5042  -4.938   5.504   3.247 -0.1811 -0.3901  1.1481
   16MOL   C213 5043  -5.074   5.519   3.215 -0.6428 -0.5195 -0.0007
   16MOL   C214 5044  -5.112   5.610   3.116 -0.3504 -0.3385 -0.7995
   16MOL   C215 5045  -5.253   5.629   3.067 -0.3423 -0.0952 -0.6443
   16MOL   C216 5046  -5.019   5.696   3.059 -0.2193 -0.7401 -0.3870
   16MOL   C217 5047  -4.882   5.685   3.092  0.2848  0.2780  0.0954
   16MOL   H218 5048  -4.638   5.657   3.253  2.9787 -2.6694  1.0210
   16MOL   H219 5049  -4.679   5.499   3.295 -0.9881 -1.8430 -0.9225
   16MOL   H220 5050  -4.918   5.428   3.321  0.0461  1.2827  2.8405
   16MOL   H221 5051  -5.141   5.449   3.264 -0.3070 -0.2043  0.9308
   16MOL   H222 5052  -5.245   5.681   2.971 -2.7533  2.7547  0.6514
   16MOL   H223 5053  -5.284   5.528   3.041  3.2858 -1.9344  1.8506
   16MOL   H224 5054  -5.056   5.778   2.999  1.4074 -0.1069 -0.5600
   16MOL   H225 5055  -4.805   5.750   3.054  0.0009  0.7021  0.2423
   16MOL   C226 5056  -5.356   5.688   3.169 -0.1692 -0.5105 -0.7740
   16MOL   C227 5057  -5.504   5.686   3.134  0.3520 -0.4565 -0.0127
   16MOL   C228 5058  -5.566   5.785   3.061  0.0606 -0.6586 -0.7169
   16MOL   C229 5059  -5.699   5.779   3.022  1.0693  0.6694  0.3818
   16MOL   C230 5060  -5.779   5.669   3.057 -0.3953 -0.3498 -0.4588
   16MOL   C231 5061  -5.928   5.663   3.030 -0.6991 -0.4212  0.7422
   16MOL   C232 5062  -5.718   5.558   3.128 -0.1841  0.1593  0.7445
   16MOL   C233 5063  -5.584   5.573   3.173  0.6053  0.5965  0.0736
   16MOL   H234 5064  -5.327   5.791   3.190 -0.7703  0.1492 -3.0890
   16MOL   H235 5065  -5.347   5.635   3.264 -0.9692  1.7726  0.5956
   16MOL   H236 5066  -5.514   5.879   3.055  0.5512 -0.9100 -0.4858
   16MOL   H237 5067  -5.746   5.859   2.968  1.4100  1.3424  1.0694
   16MOL   H238 5068  -5.955   5.715   2.938  0.6006 -0.7211  0.1760
   16MOL   H239 5069  -5.956   5.560   3.006  0.4881 -0.8169  1.0285
   16MOL   H240 5070  -5.772   5.468   3.155 -0.9298  0.4408  0.1824
   16MOL   H241 5071  -5.548   5.487   3.227 -0.2905  1.6389  2.3951
   16MOL   C242 5072  -6.003   5.723   3.153  0.4720  0.1446  0.0209
   16MOL   C243 5073  -6.150   5.754   3.125 -0.4306 -1.0211  0.9872
   16MOL   C244 5074  -6.253   5.672   3.165 -0.0466 -0.4486 -0.3465
   16MOL   C245 5075  -6.389   5.714   3.147 -0.0602 -0.4457 -0.3557
   16MOL   C246 5076  -6.422   5.848   3.102  0.5658 -0.2826 -0.0722
   16MOL   C247 5077  -6.569   5.884   3.085 -0.3761  0.3248 -1.0570
   16MOL   C248 5078  -6.309   5.929   3.063  0.8091  0.6023 -0.3355
   16MOL   C249 5079  -6.175   5.881   3.066 -0.3702  0.4378  0.0273
   16MOL   H250 5080  -5.998   5.648   3.232  0.1267 -1.9545 -1.9189
   16MOL   H251 5081  -5.943   5.808   3.186  0.6799 -0.1301  0.3515
   16MOL   H252 5082  -6.231   5.571   3.195 -1.4421 -0.6461  0.0451
   16MOL   H253 5083  -6.463   5.641   3.178  0.9945 -1.9412 -1.2809
   16MOL   H254 5084  -6.570   5.967   3.014 -0.0988  0.9137 -0.3774
   16MOL   H255 5085  -6.614   5.791   3.049  1.0061 -1.2545  1.1888
   16MOL   H256 5086  -6.340   6.023   3.022 -3.9615 -0.4576  0.5086
   16MOL   H257 5087  -6.094   5.947   3.040  0.7786 -1.4166 -1.1964
   16MOL   C258 5088  -6.646   5.920   3.220  1.1958  0.3298 -0.3991
   16MOL   C259 5089  -6.778   5.978   3.196  0.0676  0.6530 -0.7554
   16MOL   C260 5090  -6.891   5.890   3.201  0.7554 -0.3103  0.6353
   16MOL   C261 5091  -7.014   5.953   3.198 -0.0548  0.3590  0.0450
   16MOL   C262 5092  -7.031   6.094   3.174 -1.3356 -0.1725  0.1613
   16MOL   C263 5093  -7.168   6.157   3.175 -0.1077  0.8447 -0.4105
   16MOL   C264 5094  -6.914   6.173   3.160  0.1923 -0.2833  1.1846
   16MOL   C265 5095  -6.787   6.119   3.172 -0.1999  0.1574  0.1172
   16MOL   H266 5096  -6.588   5.987   3.284  2.8605 -1.0350 -0.4387
   16MOL   H267 5097  -6.668   5.828   3.273  0.5389  0.4815 -0.4100
   16MOL   H268 5098  -6.877   5.783   3.212 -2.3611 -0.6905  1.2487
   16MOL   H269 5099  -7.102   5.893   3.215  1.7612 -1.9711  1.4799
   16MOL   H270 5100  -7.170   6.253   3.124  0.2601  1.1564  0.1555
   16MOL   H271 5101  -7.235   6.095   3.116  0.2818 -0.4704  0.4906
   16MOL   H272 5102  -6.920   6.280   3.149 -1.5861 -0.3949  0.9306
   16MOL   H273 5103  -6.703   6.186   3.158 -0.1021 -0.2319 -1.1513
   16MOL   C274 5104  -7.223   6.163   3.317  0.3598 -0.3605  0.4547
   16MOL   C275 5105  -7.346   6.248   3.331  0.3095  0.4596  0.0946
   16MOL   C276 5106  -7.471   6.207   3.283 -0.2947 -0.0293  0.6141
   16MOL   C277 5107  -7.588   6.288   3.297  0.7921 -0.0237 -0.1754
   16MOL   C278 5108  -7.572   6.416   3.352 -0.7412 -0.6518 -0.0310
   16MOL   C279 5109  -7.692   6.496   3.374 -0.3714 -0.3195  0.0279
   16MOL   C280 5110  -7.446   6.464   3.390  0.0999 -1.0721 -0.3977
   16MOL   C281 5111  -7.329   6.381   3.381  0.1690 -0.2447  0.7932
   16MOL   H282 5112  -7.251   6.067   3.360  0.3567 -0.5013  0.1397
   16MOL   H283 5113  -7.148   6.207   3.382  0.7711  2.5815 -1.9301
   16MOL   H284 5114  -7.484   6.119   3.221 -0.0142  0.7456 -0.5538
   16MOL   H285 5115  -7.677   6.251   3.249  0.8033 -1.5495  0.9104
   16MOL   H286 5116  -7.696   6.589   3.317 -0.0306 -0.5056 -0.2996
   16MOL   H287 5117  -7.775   6.436   3.336 -0.8629  1.1481 -1.2909
   16MOL   H288 5118  -7.441   6.564   3.430 -0.7149 -1.5649  0.9835
   16MOL   H289 5119  -7.230   6.421   3.395 -0.1809  0.4573  1.3185
   16MOL   C290 5120  -7.729   6.517   3.526  0.5767  0.6935  0.0427
   16MOL   C291 5121  -7.855   6.593   3.547 -0.5927 -0.6061  0.1742
   16MOL   C292 5122  -7.849   6.734   3.567 -0.5947  0.6885  0.3191
   16MOL   C293 5123  -7.972   6.805   3.591 -0.6823  0.1524  1.2351
   16MOL   C294 5124  -8.094   6.740   3.566  0.0218  0.1230  0.2287
   16MOL   C295 5125  -8.224   6.823   3.567 -0.4438  0.3032  0.0112
   16MOL   C296 5126  -8.091   6.600   3.547  0.2442 -0.7943  0.6078
   16MOL   C297 5127  -7.975   6.527   3.524 -0.1717 -0.6643 -0.4993
   16MOL   H298 5128  -7.643   6.554   3.582 -0.3471  1.5421  0.9175
   16MOL   H299 5129  -7.740   6.422   3.579 -0.0747  1.5749  1.5237
   16MOL   H300 5130  -7.756   6.789   3.566 -0.5575  0.6479  1.0196
   16MOL   H301 5131  -7.966   6.912   3.602 -0.6502  0.1340  1.3960
   16MOL   H302 5132  -8.202   6.916   3.620 -0.5311  0.9897 -1.1436
   16MOL   H303 5133  -8.253   6.844   3.464 -1.4324 -0.3119  0.1497
   16MOL   H304 5134  -8.184   6.554   3.518 -1.2480  1.6965  1.2542
   16MOL   H305 5135  -7.981   6.424   3.492 -1.2060  0.1017 -2.8322
   16MOL   C306 5136  -8.350   6.735   3.620 -0.0688 -0.1265  0.7893
   16MOL   C307 5137  -8.476   6.816   3.649 -0.3932  0.0863 -0.4430
   16MOL   C308 5138  -8.596   6.810   3.574  0.3118 -0.7884 -0.1415
   16MOL   C309 5139  -8.705   6.891   3.609  0.1208 -0.5773 -0.2640
   16MOL   C310 5140  -8.700   6.977   3.721  0.6245 -0.2579  0.0814
   16MOL   C311 5141  -8.813   7.074   3.742  0.3940  0.3763  0.4888
   16MOL   C312 5142  -8.581   6.986   3.794 -0.3840 -0.3767  0.8345
   16MOL   C313 5143  -8.467   6.908   3.756  0.7246 -0.0729 -0.8786
   16MOL   H314 5144  -8.327   6.682   3.713  1.6831  0.2783  0.6048
   16MOL   H315 5145  -8.366   6.664   3.538  2.3375 -0.2206  0.3473
   16MOL   H316 5146  -8.602   6.739   3.493  0.7868  0.2261 -1.0696
   16MOL   H317 5147  -8.798   6.884   3.555 -0.8201  0.2580  1.1985
   16MOL   H318 5148  -8.814   7.095   3.849  0.1989 -1.4442  0.8649
   16MOL   H319 5149  -8.803   7.167   3.685  0.5886 -1.0542 -1.8651
   16MOL   H320 5150  -8.580   7.054   3.879  2.7032  1.8957 -0.8952
   16MOL   H321 5151  -8.376   6.918   3.812 -0.0773  1.5803  0.1651
   16MOL   H322 5152  -8.905   7.022   3.716  1.0202 -0.2571 -0.4915
   17MOL     C1 5153   0.669   6.659   3.890 -0.3112 -0.7038  0.5044
   17MOL     C2 5154   0.520   6.676   3.931 -0.5343  0.0815 -0.4823
   17MOL     C3 5155   0.425   6.616   3.842  0.1126 -0.4320 -0.2440
   17MOL     C4 5156   0.288   6.614   3.880  0.1771 -0.1409  0.3296
   17MOL     C5 5157   0.247   6.651   4.009  0.6566 -0.6641  0.2838
   17MOL     C6 5158   0.101   6.650   4.043 -0.2734 -0.3907 -0.4328
   17MOL     C7 5159   0.345   6.714   4.094  0.0328 -0.0263 -0.2765
   17MOL     C8 5160   0.481   6.722   4.059  0.5217  0.3333  0.0425
   17MOL     H9 5161   0.676   6.558   3.848  0.1771 -1.5500  2.5528
   17MOL    H10 5162   0.698   6.740   3.824 -1.0146 -2.6571 -2.3201
   17MOL    H11 5163   0.468   6.574   3.752  1.3227  1.0023 -0.3460
   17MOL    H12 5164   0.209   6.582   3.812  1.6842  1.0089 -2.0369
   17MOL    H13 5165   0.077   6.544   4.033  2.7369 -1.0214 -1.4884
   17MOL    H14 5166   0.100   6.667   4.151  1.2786  0.8940 -0.5971
   17MOL    H15 5167   0.313   6.751   4.191  0.8329  0.2066 -0.1053
   17MOL    H16 5168   0.545   6.773   4.129  0.2137 -0.7215  1.1014
   17MOL    H17 5169   0.741   6.664   3.971  4.2162 -0.3375 -3.3421
   17MOL    C18 5170   0.014   6.743   3.959  0.5355 -0.0177 -0.0506
   17MOL    C19 5171  -0.138   6.698   3.987 -0.1595 -0.6183  0.7390
   17MOL    C20 5172  -0.229   6.791   4.054  0.1858 -0.1354 -0.4964
   17MOL    C21 5173  -0.363   6.756   4.071 -0.2029  0.3897 -0.7297
   17MOL    C22 5174  -0.413   6.627   4.022 -0.4042  0.1693 -0.3810
   17MOL    C23 5175  -0.556   6.589   4.059  0.0075  1.0795 -0.1450
   17MOL    C24 5176  -0.320   6.535   3.965  0.4577  0.2333 -0.2609
   17MOL    C25 5177  -0.188   6.573   3.941 -0.7501 -0.5620 -0.3323
   17MOL    H26 5178   0.033   6.850   3.972 -0.8786  0.2837 -0.3650
   17MOL    H27 5179   0.027   6.738   3.851  2.3905 -2.8154  0.2407
   17MOL    H28 5180  -0.185   6.881   4.092  0.4870 -1.3480  2.1194
   17MOL    H29 5181  -0.427   6.831   4.115 -1.3162 -0.8068 -0.2825
   17MOL    H30 5182  -0.598   6.680   4.101 -1.0173  0.2484  0.6669
   17MOL    H31 5183  -0.550   6.520   4.143  0.6859  0.0505 -1.0259
   17MOL    H32 5184  -0.361   6.436   3.949  1.0265  0.1699 -1.3182
   17MOL    H33 5185  -0.124   6.503   3.888  2.4404  1.3353  0.8887
   17MOL    C34 5186  -0.631   6.541   3.934 -0.2237 -0.0624  0.7007
   17MOL    C35 5187  -0.782   6.562   3.950  0.2252 -0.3484 -0.2301
   17MOL    C36 5188  -0.862   6.482   4.028  0.1124 -0.0508  0.3373
   17MOL    C37 5189  -1.002   6.499   4.036  0.1113  0.2454  0.5992
   17MOL    C38 5190  -1.060   6.601   3.968 -0.1699 -0.4740  0.1414
   17MOL    C39 5191  -1.217   6.620   3.980 -0.1067 -0.5967 -0.2395
   17MOL    C40 5192  -0.985   6.672   3.873 -0.8380  0.4496 -0.0330
   17MOL    C41 5193  -0.841   6.662   3.876 -0.2847  0.3258  0.3987
   17MOL    H42 5194  -0.600   6.445   3.894  3.8491  0.9789  1.0946
   17MOL    H43 5195  -0.594   6.596   3.848 -1.6654  1.1726  0.8554
   17MOL    H44 5196  -0.813   6.404   4.086 -0.7106  0.0230  1.1437
   17MOL    H45 5197  -1.063   6.440   4.103 -1.5704  0.7925 -0.4307
   17MOL    H46 5198  -1.246   6.622   4.085  0.2220  1.2495 -0.1797
   17MOL    H47 5199  -1.246   6.713   3.931  1.6112 -0.3628 -0.8502
   17MOL    H48 5200  -1.019   6.749   3.807 -1.0312  1.1677  0.8916
   17MOL    H49 5201  -0.782   6.733   3.820  1.2442 -0.5828  0.8096
   17MOL    C50 5202  -1.297   6.496   3.922 -0.3810  0.1741 -0.1660
   17MOL    C51 5203  -1.438   6.503   3.929 -0.4240 -0.2798  0.5165
   17MOL    C52 5204  -1.503   6.601   3.851 -0.0895 -0.4825  0.1427
   17MOL    C53 5205  -1.643   6.622   3.859  0.3243 -0.0234 -0.0724
   17MOL    C54 5206  -1.718   6.531   3.942  0.0087 -0.0506 -0.7061
   17MOL    C55 5207  -1.869   6.537   3.946 -0.0464  0.3338 -0.0224
   17MOL    C56 5208  -1.655   6.430   4.014  0.1434 -0.2021  0.8781
   17MOL    C57 5209  -1.518   6.417   4.008 -0.7270  0.6773  0.3116
   17MOL    H58 5210  -1.262   6.404   3.968 -0.3938  0.2796  0.0527
   17MOL    H59 5211  -1.255   6.476   3.823 -0.2168  0.4462 -0.1513
   17MOL    H60 5212  -1.444   6.672   3.794  0.1279 -0.1867  0.7377
   17MOL    H61 5213  -1.691   6.697   3.798  1.3468  1.0176  0.3762
   17MOL    H62 5214  -1.913   6.485   4.031 -0.8865  0.7622 -0.1843
   17MOL    H63 5215  -1.892   6.642   3.964  0.4826  0.5174 -0.4126
   17MOL    H64 5216  -1.709   6.367   4.083  1.7196 -0.8648  1.5309
   17MOL    H65 5217  -1.457   6.364   4.079  1.5000  1.9588 -0.5862
   17MOL    C66 5218  -1.937   6.488   3.819  0.2154  0.3793  0.5224
   17MOL    C67 5219  -2.085   6.514   3.815 -0.4277  0.1178  0.6229
   17MOL    C68 5220  -2.139   6.626   3.747 -0.7133 -0.8829  0.0933
   17MOL    C69 5221  -2.278   6.641   3.736 -0.2599 -0.4259 -0.3949
   17MOL    C70 5222  -2.362   6.548   3.791 -0.0650 -0.1958 -0.1120
   17MOL    C71 5223  -2.520   6.557   3.771  0.2656 -0.4855 -0.1453
   17MOL    C72 5224  -2.305   6.435   3.858  0.1722 -1.0117  0.1732
   17MOL    C73 5225  -2.169   6.420   3.872  0.5307  0.0047 -0.3569
   17MOL    H74 5226  -1.918   6.384   3.794  0.1062  0.6009 -0.4967
   17MOL    H75 5227  -1.898   6.546   3.735 -0.9056 -0.8356 -0.8499
   17MOL    H76 5228  -2.070   6.699   3.708 -1.1775 -1.3843 -1.7020
   17MOL    H77 5229  -2.321   6.729   3.690  1.1281 -0.0055 -0.9054
   17MOL    H78 5230  -2.564   6.469   3.817  0.7255 -0.9405 -0.5640
   17MOL    H79 5231  -2.532   6.546   3.663 -0.1122  0.2384 -0.1787
   17MOL    H80 5232  -2.375   6.362   3.895  0.2390 -1.6636 -0.9682
   17MOL    H81 5233  -2.128   6.331   3.918  0.1602 -0.8370 -1.6337
   17MOL    C82 5234  -2.575   6.693   3.817  0.0735  0.3836  0.1712
   17MOL    C83 5235  -2.719   6.716   3.789 -0.5936  0.5185  0.4427
   17MOL    C84 5236  -2.750   6.822   3.702 -0.0549  0.2141 -0.3627
   17MOL    C85 5237  -2.882   6.857   3.676  0.1815  0.1371  0.4294
   17MOL    C86 5238  -2.987   6.780   3.732  0.3828  0.1802 -0.1990
   17MOL    C87 5239  -3.129   6.816   3.705  0.1470 -0.0779 -0.3391
   17MOL    C88 5240  -2.962   6.670   3.809 -0.7847  0.3951 -1.3347
   17MOL    C89 5241  -2.831   6.638   3.840 -0.0714 -0.2567 -0.5134
   17MOL    H90 5242  -2.514   6.772   3.772  0.1056  0.9538  1.1982
   17MOL    H91 5243  -2.555   6.703   3.923  0.4622  0.8675  0.0562
   17MOL    H92 5244  -2.673   6.886   3.662  0.4909  0.1049  0.4963
   17MOL    H93 5245  -2.893   6.947   3.616  0.6863 -0.1533 -0.1058
   17MOL    H94 5246  -3.204   6.737   3.711  0.1179  0.0086  0.5350
   17MOL    H95 5247  -3.135   6.847   3.601 -0.8043  0.2107 -0.2011
   17MOL    H96 5248  -3.048   6.620   3.852 -1.9735  3.3718 -0.0751
   17MOL    H97 5249  -2.808   6.560   3.911  0.8864 -2.1592 -2.8621
   17MOL    C98 5250  -3.184   6.935   3.788 -0.2653  0.1435 -0.4027
   17MOL    C99 5251  -3.331   6.960   3.777  0.8629  0.5377 -0.0248
   17MOL   C100 5252  -3.420   6.905   3.876  0.1126 -0.0362 -0.8550
   17MOL   C101 5253  -3.547   6.957   3.891  0.4944  0.0868 -0.1044
   17MOL   C102 5254  -3.596   7.042   3.794  0.1665 -0.1967  0.5815
   17MOL   C103 5255  -3.728   7.099   3.808  0.5449 -0.7144 -0.3131
   17MOL   C104 5256  -3.508   7.095   3.698  0.5623  0.2932  0.2394
   17MOL   C105 5257  -3.374   7.056   3.685  0.9490 -0.2917 -0.8294
   17MOL   H106 5258  -3.127   7.025   3.763  0.2884  0.2335  1.1213
   17MOL   H107 5259  -3.156   6.915   3.892  0.4495  3.5273  0.1274
   17MOL   H108 5260  -3.383   6.825   3.940 -1.4221 -1.0687 -1.2342
   17MOL   H109 5261  -3.616   6.927   3.970 -2.2129  2.5612 -1.4602
   17MOL   H110 5262  -3.782   7.059   3.893 -2.3582  0.0890 -1.7168
   17MOL   H111 5263  -3.714   7.205   3.833 -0.9203 -0.3476 -1.0266
   17MOL   H112 5264  -3.547   7.153   3.616  1.2338 -0.9625 -1.0002
   17MOL   H113 5265  -3.310   7.115   3.620 -1.0846  2.3552 -0.5541
   17MOL   C114 5266  -3.825   7.079   3.683  0.5103  0.2326 -0.4009
   17MOL   C115 5267  -3.953   7.155   3.698 -0.2956  0.1372  0.9703
   17MOL   C116 5268  -3.961   7.287   3.650 -1.2893  0.0014 -0.7827
   17MOL   C117 5269  -4.081   7.355   3.652  0.9235 -0.0184 -0.1392
   17MOL   C118 5270  -4.191   7.295   3.704  0.6913 -0.3746  0.2369
   17MOL   C119 5271  -4.321   7.372   3.721 -0.3095 -0.3033 -0.0686
   17MOL   C120 5272  -4.184   7.167   3.759  0.0561 -0.9328 -0.0239
   17MOL   C121 5273  -4.063   7.097   3.754 -0.2777  0.3465  1.4885
   17MOL   H122 5274  -3.851   6.974   3.667  0.7052 -0.0324  0.9422
   17MOL   H123 5275  -3.780   7.113   3.590 -0.9300  0.0067 -1.2029
   17MOL   H124 5276  -3.875   7.338   3.608 -1.1399 -0.2515 -0.7808
   17MOL   H125 5277  -4.098   7.453   3.609 -1.8803 -0.5402 -0.2502
   17MOL   H126 5278  -4.374   7.340   3.811 -1.5237 -0.3670 -0.8043
   17MOL   H127 5279  -4.283   7.472   3.741 -0.7316 -0.3243  0.8822
   17MOL   H128 5280  -4.270   7.111   3.793  0.2047 -0.5770  0.9441
   17MOL   H129 5281  -4.057   7.002   3.805 -0.9050 -1.2534 -1.2990
   17MOL   C130 5282  -4.409   7.372   3.597 -0.2926  0.4612 -0.1294
   17MOL   C131 5283  -4.530   7.465   3.600  0.5182  0.0396 -0.4942
   17MOL   C132 5284  -4.661   7.412   3.608  0.0206  0.6426  0.5454
   17MOL   C133 5285  -4.767   7.500   3.609  0.0703  0.2573 -0.1487
   17MOL   C134 5286  -4.753   7.641   3.623  0.0999 -0.4511 -0.3980
   17MOL   C135 5287  -4.884   7.716   3.661  0.2779 -0.2343 -0.3804
   17MOL   C136 5288  -4.627   7.693   3.611  0.0312 -0.4374  0.3597
   17MOL   C137 5289  -4.514   7.603   3.600 -0.1113 -0.1681 -0.6340
   17MOL   H138 5290  -4.444   7.270   3.578 -0.6679  0.6528 -0.4777
   17MOL   H139 5291  -4.336   7.384   3.517  1.3790 -3.0059  0.7722
   17MOL   H140 5292  -4.673   7.305   3.617  1.8414  0.4123  0.4678
   17MOL   H141 5293  -4.869   7.462   3.612  0.2867 -0.4556 -1.5631
   17MOL   H142 5294  -4.969   7.656   3.630  0.5557 -0.9722  0.2885
   17MOL   H143 5295  -4.877   7.737   3.768 -2.4012 -0.4099 -0.1438
   17MOL   H144 5296  -4.616   7.800   3.605 -0.8467 -0.2995  1.0586
   17MOL   H145 5297  -4.415   7.646   3.605 -0.9703  1.6085  1.9926
   17MOL   C146 5298  -4.899   7.845   3.586 -0.4274  0.0410  0.0673
   17MOL   C147 5299  -5.030   7.916   3.606  0.7032 -0.2361 -0.7781
   17MOL   C148 5300  -5.040   8.056   3.649  0.2343  0.3374  0.0540
   17MOL   C149 5301  -5.167   8.119   3.662  0.3349  0.3880  0.3042
   17MOL   C150 5302  -5.281   8.047   3.627  1.1490 -0.1871  0.3782
   17MOL   C151 5303  -5.416   8.110   3.651  0.6789  0.1262 -0.4853
   17MOL   C152 5304  -5.278   7.918   3.577  0.2080  0.1278 -0.2347
   17MOL   C153 5305  -5.152   7.853   3.566  0.5653 -0.1846 -0.0909
   17MOL   H154 5306  -4.890   7.824   3.479 -0.6398  1.0427 -0.1489
   17MOL   H155 5307  -4.819   7.912   3.616 -1.4228  0.4753  1.8442
   17MOL   H156 5308  -4.949   8.107   3.677 -1.1094  4.3188 -2.4056
   17MOL   H157 5309  -5.177   8.219   3.701 -0.1775 -0.2378  1.8167
   17MOL   H158 5310  -5.498   8.038   3.652 -0.2176  1.1242  0.6736
   17MOL   H159 5311  -5.411   8.155   3.750 -0.5559  1.4411 -0.9884
   17MOL   H160 5312  -5.373   7.873   3.551  0.7937 -1.8375  0.9550
   17MOL   H161 5313  -5.155   7.747   3.548  2.1491 -0.3779  0.6372
   17MOL   C162 5314  -5.449   8.218   3.543 -0.6278 -0.5369 -0.6272
   17MOL   C163 5315  -5.564   8.307   3.593 -0.2076  0.0649 -0.4996
   17MOL   C164 5316  -5.692   8.298   3.534  0.4176  0.1455  0.0359
   17MOL   C165 5317  -5.792   8.377   3.591  0.0540 -0.5594 -0.0268
   17MOL   C166 5318  -5.776   8.462   3.701 -0.0749 -0.0768 -0.3639
   17MOL   C167 5319  -5.889   8.553   3.735 -0.3115  0.4476 -0.6988
   17MOL   C168 5320  -5.650   8.471   3.761  0.6878 -0.6238  0.0659
   17MOL   C169 5321  -5.546   8.399   3.703  0.1149 -0.2228 -0.3448
   17MOL   H170 5322  -5.469   8.176   3.444  0.1858  0.8829 -1.4120
   17MOL   H171 5323  -5.363   8.280   3.519 -0.9079 -0.2070 -0.7877
   17MOL   H172 5324  -5.728   8.223   3.465 -1.7435  1.0342  0.1593
   17MOL   H173 5325  -5.888   8.376   3.542 -0.2827  0.2528  0.6066
   17MOL   H174 5326  -5.852   8.641   3.789  1.2691 -0.5209 -0.1635
   17MOL   H175 5327  -5.932   8.593   3.643  0.0832 -2.4337 -2.1739
   17MOL   H176 5328  -5.630   8.543   3.839  0.8814 -0.4158 -0.1766
   17MOL   H177 5329  -5.444   8.407   3.737  0.8492  1.8401 -2.8670
   17MOL   C178 5330  -5.988   8.494   3.830 -0.5097 -0.5104  0.4245
   17MOL   C179 5331  -6.111   8.589   3.835 -0.0832  0.1742 -0.4288
   17MOL   C180 5332  -6.183   8.610   3.720  0.6228  0.4703  0.0510
   17MOL   C181 5333  -6.298   8.693   3.729  0.5075 -0.2368 -0.0350
   17MOL   C182 5334  -6.337   8.747   3.852 -0.6448 -0.0971  0.7790
   17MOL   C183 5335  -6.457   8.833   3.859  0.0956  0.3456 -0.2161
   17MOL   C184 5336  -6.263   8.720   3.965  0.1321 -0.6360  0.2866
   17MOL   C185 5337  -6.148   8.647   3.957 -0.3498  0.6496  0.1271
   17MOL   H186 5338  -5.942   8.484   3.928  0.4154 -0.0687  0.0420
   17MOL   H187 5339  -6.026   8.402   3.787 -2.5409  0.4190  0.1356
   17MOL   H188 5340  -6.149   8.564   3.628 -1.2871 -0.1703 -0.3626
   17MOL   H189 5341  -6.351   8.716   3.638  2.8857 -0.0944 -1.4248
   17MOL   H190 5342  -6.445   8.889   3.951  0.9183 -1.9225  1.0835
   17MOL   H191 5343  -6.464   8.895   3.770  0.8196  0.3778 -0.2481
   17MOL   H192 5344  -6.288   8.767   4.059  2.0069 -0.7421  0.8656
   17MOL   H193 5345  -6.084   8.655   4.044  1.3915 -1.9963 -0.8284
   17MOL   C194 5346  -6.582   8.760   3.878 -0.2529  1.0346  0.2612
   17MOL   C195 5347  -6.698   8.847   3.883 -0.0610 -0.2558 -0.2597
   17MOL   C196 5348  -6.765   8.871   3.766 -0.2443 -0.7767  0.2103
   17MOL   C197 5349  -6.859   8.975   3.765  0.4461 -0.0213 -1.3522
   17MOL   C198 5350  -6.915   9.028   3.879  1.1502 -0.0952 -0.1375
   17MOL   C199 5351  -7.028   9.131   3.883  0.5231  0.0252 -0.3916
   17MOL   C200 5352  -6.864   8.986   4.005  0.3903 -0.0971 -0.0658
   17MOL   C201 5353  -6.745   8.905   4.008 -0.7793 -0.1709  0.8562
   17MOL   H202 5354  -6.574   8.695   3.965  1.7180 -1.1299 -1.4854
   17MOL   H203 5355  -6.589   8.691   3.795  1.8369  0.1837  0.7517
   17MOL   H204 5356  -6.721   8.826   3.678 -0.9225  0.6636 -0.8641
   17MOL   H205 5357  -6.901   8.990   3.666 -1.6204  1.3788 -0.3042
   17MOL   H206 5358  -7.111   9.069   3.916  1.1671  0.4048  2.0063
   17MOL   H207 5359  -6.996   9.206   3.955 -1.5549  0.3732  0.1937
   17MOL   H208 5360  -6.905   9.024   4.097 -0.1825  0.4971 -0.5674
   17MOL   H209 5361  -6.708   8.871   4.104 -1.6887 -1.9587  0.5943
   17MOL   C210 5362  -7.073   9.189   3.753  0.8154 -0.6338  0.4215
   17MOL   C211 5363  -7.198   9.282   3.774 -1.2097  0.3341  0.1418
   17MOL   C212 5364  -7.314   9.227   3.834  0.1842 -0.3600  0.5097
   17MOL   C213 5365  -7.430   9.310   3.841 -0.3683 -0.4747 -0.2888
   17MOL   C214 5366  -7.427   9.440   3.801  0.0235 -0.0561  0.6133
   17MOL   C215 5367  -7.551   9.521   3.825  0.6984  0.9272 -0.2274
   17MOL   C216 5368  -7.315   9.496   3.740 -0.2487 -0.5868 -0.1328
   17MOL   C217 5369  -7.199   9.419   3.724  0.2183 -0.4239 -0.0024
   17MOL   H218 5370  -7.103   9.114   3.679  1.3625 -2.9490  2.4827
   17MOL   H219 5371  -6.996   9.256   3.716  0.7484 -0.7378  0.0898
   17MOL   H220 5372  -7.311   9.129   3.879  0.5002 -1.5129 -1.9595
   17MOL   H221 5373  -7.517   9.271   3.893  0.8853 -0.9524  1.5272
   17MOL   H222 5374  -7.626   9.453   3.865  1.5218 -1.2882 -2.2999
   17MOL   H223 5375  -7.524   9.585   3.910  1.5810 -0.0642  0.2490
   17MOL   H224 5376  -7.303   9.601   3.719 -0.0923 -0.2280  1.6913
   17MOL   H225 5377  -7.109   9.459   3.680 -1.7928  2.1562 -1.8959
   17MOL   C226 5378  -7.611   9.596   3.702 -0.0903  0.3902  0.4781
   17MOL   C227 5379  -7.729   9.679   3.735  0.3701 -0.4902 -0.4283
   17MOL   C228 5380  -7.716   9.793   3.805 -0.0584 -0.2732 -0.5930
   17MOL   C229 5381  -7.828   9.860   3.857  0.7226 -0.7694  0.0530
   17MOL   C230 5382  -7.957   9.821   3.804  0.2155  0.1632  0.2180
   17MOL   C231 5383  -8.077   9.899   3.845 -0.6941  0.0194 -0.4574
   17MOL   C232 5384  -7.972   9.707   3.733  0.4189 -0.4004  0.4117
   17MOL   C233 5385  -7.857   9.633   3.694 -0.3327  0.6350 -0.0576
   17MOL   H234 5386  -7.626   9.528   3.617 -0.7703  1.7356 -0.4936
   17MOL   H235 5387  -7.521   9.652   3.676  1.7232 -2.1782  1.0184
   17MOL   H236 5388  -7.613   9.817   3.826 -0.3218  1.6947 -1.4419
   17MOL   H237 5389  -7.822   9.941   3.927 -0.6513 -1.2958  0.7994
   17MOL   H238 5390  -8.162   9.856   3.792 -0.6632  0.9490 -1.2762
   17MOL   H239 5391  -8.098   9.892   3.951 -1.1231 -0.0613 -0.5468
   17MOL   H240 5392  -8.066   9.665   3.701  0.5497 -0.4170  0.0529
   17MOL   H241 5393  -7.857   9.540   3.639  0.5216  1.0591 -0.7941
   17MOL   C242 5394  -8.062  10.052   3.793  0.5612  0.0087  0.1576
   17MOL   C243 5395  -8.193  10.131   3.825  0.7232 -0.5224  0.1564
   17MOL   C244 5396  -8.270  10.193   3.718 -0.5861  0.8423  0.0921
   17MOL   C245 5397  -8.396  10.258   3.748 -0.3446  0.3550 -0.4401
   17MOL   C246 5398  -8.436  10.263   3.882 -0.2779 -0.3099 -0.1891
   17MOL   C247 5399  -8.569  10.324   3.912  0.4915  0.0420  0.6439
   17MOL   C248 5400  -8.364  10.202   3.986  0.2171 -0.2292  0.0265
   17MOL   C249 5401  -8.240  10.142   3.955  0.4725  0.0136 -0.1354
   17MOL   H250 5402  -7.974  10.097   3.838  0.0283  0.4993  0.7266
   17MOL   H251 5403  -8.048  10.069   3.687  0.2457 -0.7650 -0.0099
   17MOL   H252 5404  -8.231  10.194   3.617 -0.8539  0.2057 -0.0161
   17MOL   H253 5405  -8.460  10.302   3.673  0.3692 -0.2980 -1.4396
   17MOL   H254 5406  -8.565  10.367   4.012  0.7390 -0.5420  0.8885
   17MOL   H255 5407  -8.589  10.406   3.844 -1.9827 -0.6384  0.5043
   17MOL   H256 5408  -8.396  10.204   4.090  0.1810  0.1732  0.0099
   17MOL   H257 5409  -8.185  10.090   4.032  0.8282 -1.0691 -1.0969
   17MOL   C258 5410  -8.695  10.234   3.905  0.0549  0.4191  0.7102
   17MOL   C259 5411  -8.818  10.305   3.959  0.4130  0.5627  0.6199
   17MOL   C260 5412  -8.914  10.355   3.869  0.0238 -0.0317 -0.7215
   17MOL   C261 5413  -9.034  10.418   3.918  0.7648 -0.6530 -0.5594
   17MOL   C262 5414  -9.055  10.436   4.059  0.3207  0.0053 -0.3014
   17MOL   C263 5415  -9.179  10.503   4.117 -0.2962  0.4047  0.1236
   17MOL   C264 5416  -8.957  10.376   4.146 -0.1201  0.0968 -0.5491
   17MOL   C265 5417  -8.833  10.324   4.100  0.5984 -0.3294  0.6603
   17MOL   H266 5418  -8.678  10.148   3.971  1.3189 -0.2421 -0.4340
   17MOL   H267 5419  -8.708  10.193   3.805  2.8525  3.1614 -0.8619
   17MOL   H268 5420  -8.900  10.331   3.764  2.4967 -0.6030 -0.3067
   17MOL   H269 5421  -9.098  10.452   3.837  1.1817 -1.9641 -1.4621
   17MOL   H270 5422  -9.155  10.541   4.216 -1.2533 -1.4649  1.1033
   17MOL   H271 5423  -9.193  10.598   4.066  0.4741  0.8438  0.7269
   17MOL   H272 5424  -8.970  10.400   4.250  1.8048  2.0103 -0.7140
   17MOL   H273 5425  -8.750  10.287   4.158 -0.5955 -2.7304  0.9017
   17MOL   C274 5426  -9.306  10.425   4.111 -0.8848 -0.1053 -0.4935
   17MOL   C275 5427  -9.437  10.497   4.128 -0.0260 -0.0171  0.0328
   17MOL   C276 5428  -9.488  10.575   4.023  1.1396  0.8041 -0.1070
   17MOL   C277 5429  -9.617  10.639   4.037  0.1294  0.2212 -0.1806
   17MOL   C278 5430  -9.679  10.647   4.162 -0.9859  0.0227  0.2873
   17MOL   C279 5431  -9.809  10.719   4.175  0.4428 -0.0563 -0.6417
   17MOL   C280 5432  -9.619  10.582   4.269  0.5311 -0.0085  0.0397
   17MOL   C281 5433  -9.495  10.515   4.256 -1.0685 -0.1846 -1.1712
   17MOL   H282 5434  -9.321  10.383   4.012  1.2932  0.4668 -1.0823
   17MOL   H283 5435  -9.291  10.356   4.194 -1.4578  1.2359  0.7577
   17MOL   H284 5436  -9.432  10.571   3.930 -1.3772 -0.3599 -1.6200
   17MOL   H285 5437  -9.651  10.698   3.953  2.1748  3.2313  1.0047
   17MOL   H286 5438  -9.815  10.758   4.277 -1.0134 -2.6183  0.2864
   17MOL   H287 5439  -9.837  10.794   4.101 -2.2438 -0.5792 -0.2037
   17MOL   H288 5440  -9.664  10.577   4.367  2.8508 -1.2220  1.0889
   17MOL   H289 5441  -9.467  10.459   4.344  2.1462 -0.9887 -2.6058
   17MOL   C290 5442  -9.915  10.608   4.178 -0.5696  0.1885  0.6917
   17MOL   C291 5443 -10.045  10.678   4.197  0.5969 -0.6378  0.3909
   17MOL   C292 5444 -10.100  10.704   4.320  0.5431  0.9268 -0.1094
   17MOL   C293 5445 -10.234  10.751   4.338  0.1646 -0.4419  0.2782
   17MOL   C294 5446 -10.307  10.786   4.220 -0.0451 -0.0468  0.4886
   17MOL   C295 5447 -10.452  10.824   4.228  0.9153  0.8151 -0.5504
   17MOL   C296 5448 -10.251  10.764   4.096  0.5003  0.8314  0.1998
   17MOL   C297 5449 -10.123  10.706   4.084 -0.2896 -0.6901  0.6132
   17MOL   H298 5450  -9.904  10.533   4.256 -1.6560  1.5621  2.1902
   17MOL   H299 5451  -9.920  10.555   4.082  2.2717  3.3201 -1.2927
   17MOL   H300 5452 -10.038  10.679   4.406  0.2796  0.2805 -0.1054
   17MOL   H301 5453 -10.275  10.769   4.437 -3.2639  2.7950 -1.6183
   17MOL   H302 5454 -10.500  10.726   4.235  1.6381  0.4959 -0.0178
   17MOL   H303 5455 -10.474  10.873   4.323  2.8255 -1.0217  0.8933
   17MOL   H304 5456 -10.311  10.782   4.007  2.0281 -1.2515 -1.3086
   17MOL   H305 5457 -10.085  10.683   3.985 -0.1638 -0.4991  0.6165
   17MOL   C306 5458 -10.508  10.928   4.125 -0.2717  0.2767 -0.7554
   17MOL   C307 5459 -10.648  10.961   4.158  0.2446  0.1456 -0.0449
   17MOL   C308 5460 -10.755  10.901   4.085 -0.7896  0.1855 -0.3357
   17MOL   C309 5461 -10.889  10.924   4.112  0.8367 -0.8830 -0.1919
   17MOL   C310 5462 -10.924  11.022   4.213 -0.0115  0.0878  0.1676
   17MOL   C311 5463 -11.067  11.045   4.240  0.1660 -0.0558  0.3268
   17MOL   C312 5464 -10.818  11.082   4.288 -0.2768 -1.0880 -0.7238
   17MOL   C313 5465 -10.682  11.053   4.259  1.0502 -0.0898  0.4076
   17MOL   H314 5466 -10.498  10.892   4.022  3.1305 -1.0773 -0.0270
   17MOL   H315 5467 -10.447  11.016   4.146  0.6800 -0.4389 -0.4843
   17MOL   H316 5468 -10.723  10.840   4.002  0.2301  0.0081  0.1837
   17MOL   H317 5469 -10.966  10.873   4.055 -0.8046  1.4657 -0.1392
   17MOL   H318 5470 -11.091  11.151   4.229  0.1455 -0.0855  0.0854
   17MOL   H319 5471 -11.127  10.991   4.167 -1.2522  1.5037  0.3090
   17MOL   H320 5472 -10.841  11.153   4.366 -0.4606 -0.1215 -1.6490
   17MOL   H321 5473 -10.600  11.099   4.312  0.3358  0.6795  0.8492
   17MOL   H322 5474 -11.085  11.027   4.347  2.8940 -1.4870  0.5929
   18MOL     C1 5475   7.829   0.553   2.003  0.1503  0.3313  0.2244
   18MOL     C2 5476   7.711   0.539   1.913  0.0441 -0.1311 -0.1965
   18MOL     C3 5477   7.688   0.419   1.846  0.0393 -0.6898  0.1663
   18MOL     C4 5478   7.574   0.411   1.765  0.2297  0.5298  0.2803
   18MOL     C5 5479   7.483   0.526   1.758 -0.2723  0.0171 -0.2140
   18MOL     C6 5480   7.354   0.519   1.682 -0.6173 -0.1777 -0.1558
   18MOL     C7 5481   7.510   0.641   1.837  0.8161  0.2589  0.2310
   18MOL     C8 5482   7.629   0.656   1.905  0.6298 -0.0071  0.3193
   18MOL     H9 5483   7.839   0.471   2.073 -1.7737  1.2819  1.6506
   18MOL    H10 5484   7.928   0.565   1.958  0.8127 -0.0125  1.5700
   18MOL    H11 5485   7.757   0.337   1.855 -1.7298 -2.1236  1.2878
   18MOL    H12 5486   7.574   0.316   1.713 -1.0306  1.2926 -1.1224
   18MOL    H13 5487   7.285   0.577   1.744  1.5146  0.9944  1.1747
   18MOL    H14 5488   7.382   0.569   1.589  1.9972  3.6615  2.5312
   18MOL    H15 5489   7.438   0.721   1.830  0.2330 -0.3146 -0.3057
   18MOL    H16 5490   7.642   0.752   1.952  2.1975 -0.6761  1.2834
   18MOL    H17 5491   7.800   0.635   2.069 -0.9496  0.0243  0.1286
   18MOL    C18 5492   7.290   0.381   1.651  0.3366 -0.9383 -0.6313
   18MOL    C19 5493   7.147   0.396   1.596  0.4499  0.3597  0.1120
   18MOL    C20 5494   7.038   0.384   1.688  0.1305 -0.1188 -0.5914
   18MOL    C21 5495   6.907   0.400   1.647 -0.1417 -0.6623 -0.5630
   18MOL    C22 5496   6.881   0.424   1.514  0.3432  0.2351  0.2371
   18MOL    C23 5497   6.733   0.420   1.489  0.3421  0.1014  0.5857
   18MOL    C24 5498   6.981   0.442   1.417 -0.6791 -0.4268 -0.6447
   18MOL    C25 5499   7.119   0.429   1.460  0.0687  0.2181  0.2559
   18MOL    H26 5500   7.355   0.313   1.595  0.3843 -2.1465  0.8422
   18MOL    H27 5501   7.290   0.332   1.748  1.3201 -0.1826 -0.2477
   18MOL    H28 5502   7.067   0.367   1.790 -0.4449 -0.8252 -0.5380
   18MOL    H29 5503   6.835   0.399   1.728  0.2902  1.8412 -0.1066
   18MOL    H30 5504   6.713   0.465   1.392  3.1454  2.0475  0.8746
   18MOL    H31 5505   6.677   0.484   1.556  0.4129  1.0471 -0.2452
   18MOL    H32 5506   6.961   0.458   1.312  0.9919 -1.2072 -1.1012
   18MOL    H33 5507   7.201   0.424   1.390  1.1479  3.2094  1.2228
   18MOL    C34 5508   6.679   0.272   1.500  0.3110  0.8276 -0.7501
   18MOL    C35 5509   6.540   0.266   1.560 -0.4992 -0.6706 -0.7825
   18MOL    C36 5510   6.423   0.233   1.489  0.3638  0.1753  0.4403
   18MOL    C37 5511   6.300   0.210   1.559 -0.3621 -0.1707 -0.0961
   18MOL    C38 5512   6.298   0.228   1.692  0.0163 -0.7846 -0.4087
   18MOL    C39 5513   6.163   0.218   1.774 -1.0128  0.0552  0.6048
   18MOL    C40 5514   6.406   0.271   1.765  0.0018  0.4578 -0.4721
   18MOL    C41 5515   6.527   0.290   1.699  0.3156  0.0185  0.8618
   18MOL    H42 5516   6.732   0.208   1.570 -0.2663  1.2053  0.0416
   18MOL    H43 5517   6.684   0.228   1.400 -0.3398 -1.1406  0.0545
   18MOL    H44 5518   6.425   0.231   1.381 -1.9615  2.5841  0.2996
   18MOL    H45 5519   6.219   0.180   1.494 -0.3626 -2.0319  0.7543
   18MOL    H46 5520   6.094   0.180   1.698 -0.2977  1.5952 -0.8524
   18MOL    H47 5521   6.175   0.143   1.852 -1.8217  0.1426  0.8200
   18MOL    H48 5522   6.397   0.277   1.872 -3.6881 -1.9616 -0.5666
   18MOL    H49 5523   6.615   0.320   1.753  1.1341  2.5765 -1.7708
   18MOL    C50 5524   6.125   0.353   1.857 -0.3827  0.5063  0.0731
   18MOL    C51 5525   6.062   0.460   1.769 -0.2013  0.1155 -0.1127
   18MOL    C52 5526   6.126   0.511   1.651 -0.1962 -0.0937 -0.1436
   18MOL    C53 5527   6.062   0.611   1.576 -0.5418  0.4482  0.3666
   18MOL    C54 5528   5.936   0.663   1.600 -1.0041  0.0624  0.6125
   18MOL    C55 5529   5.871   0.771   1.513  0.0244  0.9864  0.2916
   18MOL    C56 5530   5.874   0.617   1.715 -0.3835 -1.0965 -0.5763
   18MOL    C57 5531   5.933   0.518   1.794 -0.0819  0.6097  0.0625
   18MOL    H58 5532   6.196   0.393   1.929 -0.7972  0.4240  0.5335
   18MOL    H59 5533   6.048   0.314   1.923  0.2525 -0.8507  0.0259
   18MOL    H60 5534   6.227   0.483   1.625  0.1282 -0.9641  1.9449
   18MOL    H61 5535   6.122   0.649   1.495  0.2679 -2.4749 -0.4518
   18MOL    H62 5536   5.880   0.746   1.407 -1.2128  0.4970  0.2927
   18MOL    H63 5537   5.766   0.756   1.539  0.4493  0.0130  1.4803
   18MOL    H64 5538   5.779   0.660   1.743 -0.2439  0.1286 -1.9151
   18MOL    H65 5539   5.877   0.480   1.878  0.2749 -2.5463 -1.0523
   18MOL    C66 5540   5.923   0.912   1.533  0.5706  0.3287 -0.9139
   18MOL    C67 5541   6.076   0.923   1.540  0.4816 -0.2063 -0.0870
   18MOL    C68 5542   6.148   0.928   1.664 -0.0087 -0.6260  0.1768
   18MOL    C69 5543   6.289   0.955   1.660 -0.1129  0.0845  0.3017
   18MOL    C70 5544   6.362   0.947   1.541  0.1573 -0.3650  0.5634
   18MOL    C71 5545   6.510   0.947   1.564 -0.9230  0.4988 -0.3626
   18MOL    C72 5546   6.288   0.941   1.415  0.1754  0.3477 -0.0940
   18MOL    C73 5547   6.154   0.926   1.423  0.9660  0.3908  0.0128
   18MOL    H74 5548   5.889   0.958   1.626  2.1119  1.3243 -0.8260
   18MOL    H75 5549   5.878   0.982   1.462 -1.1966  0.2308  0.1036
   18MOL    H76 5550   6.083   0.915   1.749 -2.5518 -0.3816 -1.6684
   18MOL    H77 5551   6.347   0.951   1.751 -0.7369 -0.3495  0.6807
   18MOL    H78 5552   6.531   1.040   1.617 -0.4209 -0.4308  1.0817
   18MOL    H79 5553   6.554   0.947   1.464  1.9915  0.7062  0.8761
   18MOL    H80 5554   6.349   0.942   1.326  0.9221 -1.0927  0.3762
   18MOL    H81 5555   6.098   0.923   1.331  1.1474 -0.1180 -0.0770
   18MOL    C82 5556   6.552   0.814   1.640 -0.4889 -0.3242  0.2380
   18MOL    C83 5557   6.700   0.799   1.658  0.2389  0.1796  0.3585
   18MOL    C84 5558   6.772   0.851   1.763 -0.4036  0.0228 -0.5826
   18MOL    C85 5559   6.911   0.848   1.775 -0.5009  0.1461 -1.2234
   18MOL    C86 5560   6.983   0.808   1.664 -0.3835  0.1665  0.4142
   18MOL    C87 5561   7.139   0.807   1.669  0.8840 -0.1979  0.2840
   18MOL    C88 5562   6.915   0.745   1.562  0.1559  0.3110 -0.0461
   18MOL    C89 5563   6.778   0.740   1.552  0.3133 -0.6720 -0.1218
   18MOL    H90 5564   6.530   0.726   1.579 -2.3426 -0.0625  0.4899
   18MOL    H91 5565   6.495   0.809   1.733  0.0020 -0.9004  0.5075
   18MOL    H92 5566   6.705   0.888   1.840 -1.4267  0.6897 -1.7885
   18MOL    H93 5567   6.951   0.882   1.870 -2.1255  2.9046 -1.4793
   18MOL    H94 5568   7.182   0.770   1.576 -0.3201 -1.9330  0.3869
   18MOL    H95 5569   7.159   0.743   1.755  0.2986 -1.7636 -0.7241
   18MOL    H96 5570   6.968   0.704   1.478  1.0047 -0.9661  1.0940
   18MOL    H97 5571   6.737   0.709   1.457  0.8994 -1.2913 -0.1721
   18MOL    C98 5572   7.198   0.949   1.697 -0.6786 -0.0457  0.0552
   18MOL    C99 5573   7.356   0.948   1.697  0.0527  0.4822 -0.5029
   18MOL   C100 5574   7.428   1.016   1.803 -0.0091  0.5635  0.1219
   18MOL   C101 5575   7.569   1.018   1.799  0.1476  0.0687  0.0927
   18MOL   C102 5576   7.643   0.957   1.693  0.1619 -0.4298 -0.0272
   18MOL   C103 5577   7.790   0.942   1.703  1.0917 -0.4927 -1.1240
   18MOL   C104 5578   7.571   0.897   1.586 -0.4093  0.5859 -0.2784
   18MOL   C105 5579   7.432   0.900   1.589 -0.3959  0.3349 -0.0910
   18MOL   H106 5580   7.163   0.969   1.798 -3.7031 -3.1579 -0.2554
   18MOL   H107 5581   7.162   1.027   1.630 -0.8309  0.6633  0.9545
   18MOL   H108 5582   7.376   1.074   1.878 -1.0088  0.1001 -0.1976
   18MOL   H109 5583   7.624   1.068   1.877 -0.7725  1.4323 -0.1300
   18MOL   H110 5584   7.816   0.945   1.808 -1.7146 -0.6651 -0.3938
   18MOL   H111 5585   7.808   0.846   1.655 -2.1207 -0.9537 -1.5063
   18MOL   H112 5586   7.627   0.853   1.506  1.0907  1.0777  0.4807
   18MOL   H113 5587   7.387   0.857   1.500 -1.1312 -0.0316  0.4590
   18MOL   C114 5588   7.883   1.049   1.644 -0.3794  0.1928 -0.4582
   18MOL   C115 5589   8.029   1.015   1.669 -0.0864 -0.8682 -0.1439
   18MOL   C116 5590   8.094   0.925   1.582 -0.4527  0.1411 -0.0754
   18MOL   C117 5591   8.222   0.882   1.610 -0.0998  0.7238 -0.2191
   18MOL   C118 5592   8.298   0.936   1.716  0.8266  0.4792 -0.3134
   18MOL   C119 5593   8.446   0.893   1.745 -0.0840  0.3430  0.0616
   18MOL   C120 5594   8.238   1.025   1.802 -0.2402 -0.6325  0.1302
   18MOL   C121 5595   8.103   1.061   1.778 -0.1493  0.2326 -0.2496
   18MOL   H122 5596   7.877   1.155   1.669  2.5823 -0.2544  2.5361
   18MOL   H123 5597   7.890   1.039   1.536  0.8846  2.1774 -0.5871
   18MOL   H124 5598   8.045   0.883   1.495 -0.1926  0.9531 -0.6185
   18MOL   H125 5599   8.260   0.806   1.543  0.9915  2.5588 -1.7399
   18MOL   H126 5600   8.508   0.904   1.656 -1.5533  0.8292 -0.9106
   18MOL   H127 5601   8.480   0.956   1.828  1.9735 -2.6234  1.5959
   18MOL   H128 5602   8.297   1.061   1.884 -0.2043  1.1819 -0.6811
   18MOL   H129 5603   8.052   1.124   1.850  0.1807  0.4586 -0.2115
   18MOL   C130 5604   8.448   0.739   1.780 -0.0271  0.1901  0.2785
   18MOL   C131 5605   8.584   0.696   1.831 -1.0745  0.1937  0.6711
   18MOL   C132 5606   8.598   0.602   1.936 -0.0953  0.0626  0.1909
   18MOL   C133 5607   8.724   0.550   1.974  0.0652  0.3212 -0.2656
   18MOL   C134 5608   8.839   0.602   1.916  0.2016  0.2978 -0.9180
   18MOL   C135 5609   8.974   0.546   1.960 -0.2210  0.1874 -0.5513
   18MOL   C136 5610   8.827   0.697   1.818  0.5196  0.4395 -0.0972
   18MOL   C137 5611   8.705   0.750   1.772 -0.5823 -0.6206  0.6469
   18MOL   H138 5612   8.408   0.688   1.692  2.0716  0.7952 -1.0618
   18MOL   H139 5613   8.387   0.725   1.869  0.4698  0.8573  0.7305
   18MOL   H140 5614   8.516   0.543   1.975 -1.1097  1.0294 -0.4281
   18MOL   H141 5615   8.731   0.466   2.042  3.2867 -0.0503 -1.0093
   18MOL   H142 5616   9.048   0.626   1.960  2.3034 -2.0428  1.8382
   18MOL   H143 5617   8.970   0.505   2.061  1.0529 -1.6044 -1.1876
   18MOL   H144 5618   8.919   0.728   1.771  1.1075 -0.2740  0.5623
   18MOL   H145 5619   8.710   0.821   1.692 -0.2619 -0.6017  0.6841
   18MOL   C146 5620   9.022   0.443   1.857 -0.3563 -0.5660 -0.1804
   18MOL   C147 5621   9.157   0.381   1.886  0.1683  0.2000 -0.0288
   18MOL   C148 5622   9.271   0.412   1.809  0.1570  0.1000  0.5507
   18MOL   C149 5623   9.398   0.351   1.834  0.2452  0.2508 -0.2832
   18MOL   C150 5624   9.406   0.265   1.949  0.8492  0.0273 -0.0457
   18MOL   C151 5625   9.539   0.209   1.982 -0.4604  0.2033  0.4330
   18MOL   C152 5626   9.294   0.240   2.026  0.8950 -0.2252  0.0127
   18MOL   C153 5627   9.169   0.289   1.998  0.4909 -0.2587 -0.1629
   18MOL   H154 5628   9.025   0.490   1.758  0.2352 -1.0774 -0.4075
   18MOL   H155 5629   8.950   0.363   1.837 -0.7968 -0.2565  0.1582
   18MOL   H156 5630   9.263   0.471   1.719 -1.5588 -0.1401  0.5337
   18MOL   H157 5631   9.485   0.371   1.772  0.4568  0.8442  0.2074
   18MOL   H158 5632   9.523   0.111   2.027  1.6144 -0.8069 -0.9424
   18MOL   H159 5633   9.605   0.201   1.896 -1.0678  2.0454 -0.2292
   18MOL   H160 5634   9.303   0.175   2.112 -0.1775  0.2214  0.4701
   18MOL   H161 5635   9.079   0.271   2.056  0.0467  1.2986 -0.3377
   18MOL   C162 5636   9.619   0.294   2.082  0.8090  0.8552 -0.4099
   18MOL   C163 5637   9.741   0.216   2.126 -0.8344  0.2999 -0.9027
   18MOL   C164 5638   9.843   0.189   2.030  0.2241  0.2791  0.1307
   18MOL   C165 5639   9.960   0.121   2.058 -0.2091 -0.1096  0.6743
   18MOL   C166 5640   9.980   0.087   2.194 -0.1372 -1.3492 -0.0861
   18MOL   C167 5641  10.120   0.037   2.231  0.0685 -0.0252 -0.0176
   18MOL   C168 5642   9.887   0.107   2.289  0.1320 -0.2101 -1.1036
   18MOL   C169 5643   9.765   0.168   2.261 -0.2016  0.2725 -0.8044
   18MOL   H170 5644   9.554   0.316   2.167 -0.3385 -3.7593  0.0165
   18MOL   H171 5645   9.652   0.389   2.039 -0.1245  0.5180 -1.9031
   18MOL   H172 5646   9.828   0.219   1.928 -2.0600 -2.3067 -0.3565
   18MOL   H173 5647  10.038   0.107   1.984 -0.6902 -1.9455  0.5155
   18MOL   H174 5648  10.104  -0.020   2.323  2.0126 -0.7170 -0.0886
   18MOL   H175 5649  10.147  -0.043   2.162  0.5605  0.4792 -0.4129
   18MOL   H176 5650   9.912   0.069   2.387 -2.5488  0.5669 -0.0823
   18MOL   H177 5651   9.697   0.186   2.343  0.1853  0.9008 -0.6192
   18MOL   C178 5652  10.217   0.152   2.243  0.1564 -0.0201  0.3056
   18MOL   C179 5653  10.363   0.109   2.266 -0.4642  0.2451  0.1761
   18MOL   C180 5654  10.444   0.154   2.370 -0.2525 -0.2423 -0.9021
   18MOL   C181 5655  10.580   0.124   2.383 -0.0882  0.5390  0.1699
   18MOL   C182 5656  10.638   0.033   2.294  0.1302  0.4597 -0.4561
   18MOL   C183 5657  10.775  -0.037   2.308 -0.0931  0.2385 -0.7756
   18MOL   C184 5658  10.558  -0.009   2.189 -0.1445  0.3580  0.6751
   18MOL   C185 5659  10.423   0.022   2.173  0.0715  0.5027  0.8315
   18MOL   H186 5660  10.187   0.219   2.323 -2.0213 -0.5189 -0.0563
   18MOL   H187 5661  10.214   0.214   2.154  0.5957  0.5956  0.7210
   18MOL   H188 5662  10.390   0.223   2.432  0.8369 -0.0130 -0.1812
   18MOL   H189 5663  10.633   0.168   2.467 -0.2482  1.2997 -0.1278
   18MOL   H190 5664  10.804  -0.048   2.413  1.9140  2.6767 -1.0203
   18MOL   H191 5665  10.778  -0.142   2.277  1.8161  0.0856 -0.1494
   18MOL   H192 5666  10.612  -0.080   2.127  0.5378 -1.2517  3.0153
   18MOL   H193 5667  10.373  -0.027   2.090  0.1323 -0.1820  1.1940
   18MOL   C194 5668  10.881   0.050   2.232  0.4044 -0.5795  0.1286
   18MOL   C195 5669  11.020   0.002   2.251  0.4019  0.1584 -0.1768
   18MOL   C196 5670  11.109   0.059   2.346  0.0805  0.3663 -0.0777
   18MOL   C197 5671  11.240   0.010   2.361  1.2065  0.1097 -0.1227
   18MOL   C198 5672  11.281  -0.105   2.297  0.0502  0.7717 -0.9549
   18MOL   C199 5673  11.416  -0.158   2.328 -0.4921 -0.1555  0.2423
   18MOL   C200 5674  11.201  -0.172   2.202  0.9379  0.4817  0.3141
   18MOL   C201 5675  11.069  -0.110   2.178  0.1993  0.3254 -0.4020
   18MOL   H202 5676  10.872   0.156   2.252 -0.7172 -0.2531 -1.9375
   18MOL   H203 5677  10.855   0.051   2.126  1.3707  1.3412 -0.1084
   18MOL   H204 5678  11.060   0.138   2.400 -0.3952  0.7898 -1.1030
   18MOL   H205 5679  11.305   0.057   2.434 -0.4122  0.1796  1.2857
   18MOL   H206 5680  11.453  -0.091   2.406 -2.2044  0.0082  0.9459
   18MOL   H207 5681  11.399  -0.259   2.365 -3.0018  0.7192  1.5820
   18MOL   H208 5682  11.238  -0.256   2.146  0.7141 -0.6109  1.7621
   18MOL   H209 5683  10.999  -0.154   2.109  1.2625 -2.1907  0.0632
   18MOL   C210 5684  11.502  -0.152   2.202 -0.3322  0.5074  1.1549
   18MOL   C211 5685  11.633  -0.215   2.240  0.1129  0.8105 -0.3246
   18MOL   C212 5686  11.671  -0.341   2.183  0.5297  0.0641  0.6548
   18MOL   C213 5687  11.794  -0.401   2.216  0.5782  0.0231 -0.2640
   18MOL   C214 5688  11.883  -0.336   2.304 -0.2483 -0.8953 -0.2283
   18MOL   C215 5689  12.025  -0.390   2.330  0.2082 -0.4118  0.8830
   18MOL   C216 5690  11.848  -0.216   2.363  0.2048 -0.4942 -0.2238
   18MOL   C217 5691  11.729  -0.150   2.324 -0.4152 -0.1501 -0.4535
   18MOL   H218 5692  11.506  -0.045   2.180 -0.4310  0.5764  1.4661
   18MOL   H219 5693  11.451  -0.209   2.125  0.6367  2.5201 -1.0437
   18MOL   H220 5694  11.602  -0.398   2.123  1.1964 -1.2612  1.1044
   18MOL   H221 5695  11.815  -0.502   2.183  0.0184  0.0864 -0.8435
   18MOL   H222 5696  12.072  -0.311   2.389  0.1555  0.5135 -0.2868
   18MOL   H223 5697  12.018  -0.484   2.385  0.1936 -1.0717 -0.2228
   18MOL   H224 5698  11.922  -0.170   2.427  0.4197 -0.2687 -0.6349
   18MOL   H225 5699  11.713  -0.052   2.365  0.7031  0.4565 -1.4714
   18MOL   C226 5700  12.113  -0.400   2.208 -0.0336 -0.0875  0.5975
   18MOL   C227 5701  12.254  -0.453   2.229 -1.0140  0.2317  0.3077
   18MOL   C228 5702  12.282  -0.583   2.179 -0.8055 -0.2770  0.5670
   18MOL   C229 5703  12.411  -0.635   2.182 -0.4062  0.2883 -0.4668
   18MOL   C230 5704  12.504  -0.574   2.268 -0.1113 -0.0144  0.1510
   18MOL   C231 5705  12.634  -0.651   2.295  0.6641  0.5326  0.6449
   18MOL   C232 5706  12.479  -0.447   2.324  0.1040  0.3105  0.6518
   18MOL   C233 5707  12.352  -0.387   2.310  0.0587  0.0903  0.2654
   18MOL   H234 5708  12.129  -0.304   2.159 -0.0710  1.0037  2.6853
   18MOL   H235 5709  12.063  -0.465   2.135  1.0838 -0.2559 -0.0392
   18MOL   H236 5710  12.197  -0.635   2.135 -0.7992 -0.0479  0.2905
   18MOL   H237 5711  12.431  -0.732   2.138 -2.2621  0.0927 -0.8907
   18MOL   H238 5712  12.666  -0.631   2.397 -2.5135 -1.1992  2.0716
   18MOL   H239 5713  12.609  -0.757   2.306 -0.8845  0.5900 -2.0679
   18MOL   H240 5714  12.556  -0.397   2.380  1.4691 -1.4047  0.3516
   18MOL   H241 5715  12.344  -0.291   2.359 -0.0794  1.1597 -1.7866
   18MOL   C242 5716  12.733  -0.629   2.189  0.2041 -0.9800  0.3922
   18MOL   C243 5717  12.865  -0.691   2.213 -0.3435 -0.8076  0.1565
   18MOL   C244 5718  12.883  -0.818   2.167 -0.0816  0.4787  0.4873
   18MOL   C245 5719  12.997  -0.891   2.201  0.2049 -0.4195 -0.3798
   18MOL   C246 5720  13.092  -0.837   2.290 -0.2025  0.2601  0.5057
   18MOL   C247 5721  13.219  -0.914   2.324 -0.0863 -0.3160 -0.7193
   18MOL   C248 5722  13.072  -0.706   2.332 -0.1120  0.2283 -0.9408
   18MOL   C249 5723  12.957  -0.631   2.295  0.4023 -0.3464 -0.3126
   18MOL   H250 5724  12.697  -0.642   2.087  1.6369 -1.5909 -0.0592
   18MOL   H251 5725  12.740  -0.520   2.188  0.1787 -0.9841 -0.2313
   18MOL   H252 5726  12.812  -0.853   2.093  1.3887 -0.4454 -0.5019
   18MOL   H253 5727  13.006  -0.987   2.152  0.8114 -1.2565  1.3415
   18MOL   H254 5728  13.253  -0.887   2.424 -0.5536 -2.1584 -0.0401
   18MOL   H255 5729  13.178  -1.015   2.334  1.4940 -0.7210  2.3378
   18MOL   H256 5730  13.145  -0.648   2.386 -0.9958 -0.6031  1.1820
   18MOL   H257 5731  12.958  -0.532   2.336 -0.0361 -0.4440 -0.0633
   18MOL   C258 5732  13.332  -0.905   2.220 -0.1401  0.3839 -0.4647
   18MOL   C259 5733  13.462  -0.980   2.246 -0.7151 -0.1170  0.2813
   18MOL   C260 5734  13.552  -0.922   2.336 -0.0065 -0.8954  0.3313
   18MOL   C261 5735  13.674  -0.983   2.360 -1.1139 -0.3946  0.1094
   18MOL   C262 5736  13.696  -1.108   2.299 -0.4717 -0.0914  0.1637
   18MOL   C263 5737  13.833  -1.172   2.331  0.1403  0.1457  0.6614
   18MOL   C264 5738  13.598  -1.169   2.214 -0.2563 -0.5381  0.6441
   18MOL   C265 5739  13.478  -1.103   2.191  0.2105 -0.0924  0.5740
   18MOL   H266 5740  13.352  -0.798   2.213 -0.7339  0.5956  0.7730
   18MOL   H267 5741  13.293  -0.936   2.123 -2.6911 -3.4417  1.6474
   18MOL   H268 5742  13.534  -0.830   2.390 -0.7810 -1.2461  0.6858
   18MOL   H269 5743  13.748  -0.936   2.423 -2.0783 -0.6105  1.4271
   18MOL   H270 5744  13.859  -1.165   2.437 -0.6716 -0.8600  0.9475
   18MOL   H271 5745  13.819  -1.280   2.321  2.9322  0.0103 -2.4042
   18MOL   H272 5746  13.604  -1.266   2.167 -2.5245 -0.5433  0.3020
   18MOL   H273 5747  13.402  -1.152   2.131 -0.1700  1.0440  0.0966
   18MOL   C274 5748  13.942  -1.129   2.239  0.0690 -0.0142  0.3869
   18MOL   C275 5749  14.055  -1.229   2.238  0.6717  0.3806  0.1512
   18MOL   C276 5750  14.047  -1.358   2.184 -0.3138 -0.6634  0.4776
   18MOL   C277 5751  14.155  -1.447   2.186  0.1765  0.1971 -0.6571
   18MOL   C278 5752  14.276  -1.398   2.247 -0.0870 -0.3156  0.4583
   18MOL   C279 5753  14.396  -1.490   2.255 -0.5120  0.2175  0.4783
   18MOL   C280 5754  14.282  -1.266   2.301  0.2392 -0.0495  0.4337
   18MOL   C281 5755  14.167  -1.190   2.304 -0.6057 -0.1642  0.9376
   18MOL   H282 5756  13.906  -1.129   2.137  0.0423  2.6843  0.3642
   18MOL   H283 5757  13.974  -1.025   2.253  0.5876 -0.0831 -0.2717
   18MOL   H284 5758  13.949  -1.388   2.149 -0.8343  2.5479 -0.9300
   18MOL   H285 5759  14.132  -1.539   2.134 -1.3400 -1.6735  3.1593
   18MOL   H286 5760  14.411  -1.509   2.361 -0.8903 -2.3114  0.1029
   18MOL   H287 5761  14.385  -1.578   2.191  0.1406  0.7335 -0.3595
   18MOL   H288 5762  14.362  -1.229   2.364 -1.5604 -0.4473  3.0329
   18MOL   H289 5763  14.162  -1.097   2.358  2.9515  0.3774  0.4513
   18MOL   C290 5764  14.526  -1.431   2.206  0.3226 -0.0688  0.2828
   18MOL   C291 5765  14.639  -1.533   2.225  0.2211 -0.8009 -0.3057
   18MOL   C292 5766  14.744  -1.509   2.327 -0.0958  0.9023  0.0497
   18MOL   C293 5767  14.838  -1.619   2.345 -0.7600  0.1106 -0.9407
   18MOL   C294 5768  14.825  -1.743   2.276  0.0762  0.5520 -0.0932
   18MOL   C295 5769  14.939  -1.855   2.300 -0.2326 -0.1593  0.3174
   18MOL   C296 5770  14.724  -1.761   2.186 -0.9637  0.3452 -0.4212
   18MOL   C297 5771  14.634  -1.658   2.163  0.0822 -0.2256 -0.1251
   18MOL   H298 5772  14.540  -1.339   2.263 -1.4588 -1.6485  3.3764
   18MOL   H299 5773  14.507  -1.404   2.102 -0.1523  1.1448  0.6699
   18MOL   H300 5774  14.754  -1.413   2.375  0.2943  1.3199 -0.8403
   18MOL   H301 5775  14.923  -1.605   2.410 -2.4990 -1.1346  1.6897
   18MOL   H302 5776  14.983  -1.839   2.398  0.7648 -0.5400 -0.0665
   18MOL   H303 5777  14.892  -1.953   2.308  0.4422 -0.4888  0.2428
   18MOL   H304 5778  14.715  -1.855   2.134 -1.7516  0.0157  0.2878
   18MOL   H305 5779  14.563  -1.682   2.085 -0.4704 -0.3218  0.4007
   18MOL   C306 5780  15.050  -1.847   2.199  0.6213  0.1381  0.1779
   18MOL   C307 5781  15.157  -1.944   2.226  0.3353  0.5602  0.2407
   18MOL   C308 5782  15.259  -1.897   2.307  0.1370 -0.6784  0.4522
   18MOL   C309 5783  15.373  -1.972   2.328 -0.4277  0.3436  0.3123
   18MOL   C310 5784  15.388  -2.102   2.269  0.6397  0.2260 -0.5048
   18MOL   C311 5785  15.520  -2.177   2.290 -0.3439  0.1867  0.1807
   18MOL   C312 5786  15.272  -2.157   2.209  0.2715 -0.0063 -0.2118
   18MOL   C313 5787  15.158  -2.080   2.183  0.2511 -0.3725 -0.1931
   18MOL   H314 5788  15.091  -1.747   2.206  3.2007 -0.9382  1.1166
   18MOL   H315 5789  15.014  -1.842   2.097 -0.6425  1.1715  0.6585
   18MOL   H316 5790  15.251  -1.796   2.346 -1.5861 -1.4589  2.2102
   18MOL   H317 5791  15.460  -1.929   2.377 -0.9470  1.3667  0.3463
   18MOL   H318 5792  15.515  -2.275   2.243 -1.6636  0.2679  0.1236
   18MOL   H319 5793  15.599  -2.118   2.243  0.5551 -1.1449  0.0067
   18MOL   H320 5794  15.269  -2.261   2.183  1.3199  0.6658 -3.2343
   18MOL   H321 5795  15.069  -2.120   2.137  0.1674  1.1654 -1.4252
   18MOL   H322 5796  15.539  -2.193   2.396  2.1849 -1.1478 -0.4230
   19MOL     C1 5797   5.463   4.282   1.833 -0.5068  0.4723 -0.0246
   19MOL     C2 5798   5.595   4.330   1.894  0.0267 -0.3658 -0.0208
   19MOL     C3 5799   5.674   4.434   1.839 -0.0202  0.2994 -0.3817
   19MOL     C4 5800   5.796   4.471   1.903  0.8459 -0.1254  0.8807
   19MOL     C5 5801   5.847   4.391   2.006  0.0651  0.3250 -0.4596
   19MOL     C6 5802   5.988   4.416   2.073  0.6575  0.3295  0.2665
   19MOL     C7 5803   5.767   4.288   2.065 -1.2020 -0.2035 -0.4037
   19MOL     C8 5804   5.650   4.258   2.006  0.0816  0.0760  0.5240
   19MOL     H9 5805   5.410   4.369   1.793 -0.9382  0.1103 -0.2478
   19MOL    H10 5806   5.487   4.214   1.751 -0.9882  1.5681 -1.0913
   19MOL    H11 5807   5.639   4.489   1.753  0.0812 -0.2548 -0.7803
   19MOL    H12 5808   5.853   4.555   1.866 -0.2206  0.9207  1.5795
   19MOL    H13 5809   6.044   4.322   2.073 -1.4624 -0.9633 -0.6116
   19MOL    H14 5810   6.052   4.476   2.008  2.2610 -1.5114  0.0979
   19MOL    H15 5811   5.796   4.220   2.145 -1.7410 -1.9574 -1.6685
   19MOL    H16 5812   5.586   4.184   2.051 -2.2419  2.0926  0.6107
   19MOL    H17 5813   5.400   4.233   1.907 -2.2580  1.9614 -0.4848
   19MOL    C18 5814   5.976   4.487   2.210 -0.5631  0.6485 -0.1866
   19MOL    C19 5815   6.121   4.494   2.272  0.4670  0.2354  0.1499
   19MOL    C20 5816   6.175   4.379   2.334 -0.0686  0.1867 -0.5016
   19MOL    C21 5817   6.306   4.385   2.388  0.4189 -0.9196 -0.2907
   19MOL    C22 5818   6.384   4.501   2.383  0.5446  0.2104 -0.0271
   19MOL    C23 5819   6.523   4.510   2.443  0.3577  0.1722 -0.0223
   19MOL    C24 5820   6.325   4.613   2.321 -0.3291 -0.3729 -0.2997
   19MOL    C25 5821   6.195   4.606   2.263  0.3424 -0.3711 -1.0200
   19MOL    H26 5822   5.935   4.588   2.205  1.9940  1.6570 -1.6414
   19MOL    H27 5823   5.908   4.427   2.270  1.0135 -1.3188 -0.3191
   19MOL    H28 5824   6.111   4.298   2.364  0.5812  0.4662  1.7134
   19MOL    H29 5825   6.340   4.295   2.438 -1.3540 -1.0044  0.8401
   19MOL    H30 5826   6.536   4.459   2.539 -0.3466  0.9299  0.4776
   19MOL    H31 5827   6.538   4.612   2.478 -0.5416 -0.3802  2.0731
   19MOL    H32 5828   6.384   4.703   2.334  0.9041 -1.1498 -0.4043
   19MOL    H33 5829   6.160   4.697   2.215  1.6857  1.1262  0.7656
   19MOL    C34 5830   6.631   4.477   2.337 -0.1703 -0.0641  0.9342
   19MOL    C35 5831   6.767   4.494   2.398 -0.0393  0.4018 -0.2816
   19MOL    C36 5832   6.853   4.593   2.355  0.5996 -0.1275 -0.8321
   19MOL    C37 5833   6.988   4.603   2.395 -0.0617 -0.3665  0.3346
   19MOL    C38 5834   7.047   4.506   2.487 -0.3654 -0.0086 -0.1462
   19MOL    C39 5835   7.198   4.498   2.507 -0.6080  0.4377  0.0555
   19MOL    C40 5836   6.957   4.403   2.529  0.5731 -0.1034 -0.7947
   19MOL    C41 5837   6.819   4.402   2.489  0.6750  0.4153  0.1853
   19MOL    H42 5838   6.624   4.543   2.251 -1.0134 -2.2877 -0.7439
   19MOL    H43 5839   6.628   4.370   2.318  0.7866 -0.0833  0.8664
   19MOL    H44 5840   6.816   4.669   2.288 -0.8069 -0.2689 -0.2450
   19MOL    H45 5841   7.057   4.681   2.365 -1.2592  0.0528 -1.3743
   19MOL    H46 5842   7.224   4.401   2.465 -0.5827 -1.1978  3.6703
   19MOL    H47 5843   7.261   4.573   2.460 -1.4405  1.3459  0.3667
   19MOL    H48 5844   6.988   4.335   2.607 -0.5851 -1.1038 -1.1881
   19MOL    H49 5845   6.761   4.322   2.532 -0.4074  1.2778  0.3559
   19MOL    C50 5846   7.233   4.490   2.656  0.1742  0.4908  0.2447
   19MOL    C51 5847   7.385   4.474   2.687 -0.6355 -0.2758 -0.2342
   19MOL    C52 5848   7.481   4.579   2.687 -0.1602 -0.1398 -0.0204
   19MOL    C53 5849   7.617   4.545   2.716 -0.4430  0.4591 -1.0570
   19MOL    C54 5850   7.658   4.411   2.729  0.0776 -0.2344  0.2215
   19MOL    C55 5851   7.805   4.373   2.758  0.0074  0.2257  0.3049
   19MOL    C56 5852   7.560   4.307   2.724  0.5745 -0.2760  0.0360
   19MOL    C57 5853   7.422   4.339   2.716  0.1368 -0.1367 -0.4351
   19MOL    H58 5854   7.182   4.403   2.697  0.0079 -0.1959 -1.3888
   19MOL    H59 5855   7.197   4.578   2.709 -1.5327  0.4325 -0.8092
   19MOL    H60 5856   7.446   4.679   2.666 -0.3985 -0.2694 -0.2461
   19MOL    H61 5857   7.694   4.620   2.717  0.0747 -0.0838  0.2119
   19MOL    H62 5858   7.843   4.278   2.719  1.6285  0.5434  1.0693
   19MOL    H63 5859   7.874   4.447   2.718 -1.1565  1.2408  0.1567
   19MOL    H64 5860   7.587   4.202   2.726  0.1661 -0.3973 -0.7769
   19MOL    H65 5861   7.354   4.258   2.695  2.3715 -2.1350 -0.1882
   19MOL    C66 5862   7.824   4.361   2.907 -0.1520 -0.2109 -0.3321
   19MOL    C67 5863   7.964   4.306   2.939  0.0037 -0.0938  0.4496
   19MOL    C68 5864   8.064   4.405   2.960 -0.1920 -0.5001  0.3461
   19MOL    C69 5865   8.197   4.363   2.980 -0.2629  0.1871  0.3859
   19MOL    C70 5866   8.232   4.225   2.993  0.0045  0.6423  0.4577
   19MOL    C71 5867   8.374   4.182   3.009  0.6092  0.8551 -0.3610
   19MOL    C72 5868   8.119   4.134   2.998 -0.6619 -0.1317 -0.1895
   19MOL    C73 5869   7.991   4.172   2.960  0.1801  0.7381 -0.2853
   19MOL    H74 5870   7.751   4.287   2.939 -1.1409  1.0195  0.3092
   19MOL    H75 5871   7.813   4.451   2.968  0.9907 -1.3268  1.5751
   19MOL    H76 5872   8.034   4.507   2.940  0.8332 -0.0661  1.0002
   19MOL    H77 5873   8.272   4.441   2.987 -0.3889  0.2760  0.7353
   19MOL    H78 5874   8.429   4.240   2.934  0.6407 -1.3260 -2.0554
   19MOL    H79 5875   8.385   4.079   2.976  1.0183  0.6878  0.3024
   19MOL    H80 5876   8.133   4.030   3.024 -0.1147 -0.1268 -0.4662
   19MOL    H81 5877   7.912   4.098   2.954  0.3530  0.6186 -1.1198
   19MOL    C82 5878   8.426   4.219   3.148 -0.1963 -0.1166 -0.9768
   19MOL    C83 5879   8.569   4.192   3.166  0.3368  0.5285  0.7505
   19MOL    C84 5880   8.611   4.065   3.204  0.1814 -0.5085 -0.5353
   19MOL    C85 5881   8.752   4.039   3.216  0.3919 -0.8861 -0.0171
   19MOL    C86 5882   8.840   4.146   3.180 -1.0338  0.0217 -0.5828
   19MOL    C87 5883   8.985   4.121   3.196 -0.0696  0.3487 -0.3980
   19MOL    C88 5884   8.794   4.275   3.147 -0.7139  0.2505 -0.2743
   19MOL    C89 5885   8.657   4.303   3.139  0.4297  0.0003  0.1402
   19MOL    H90 5886   8.373   4.161   3.224  0.3559  1.1222  0.3778
   19MOL    H91 5887   8.408   4.321   3.183  1.3349 -0.1756  0.0202
   19MOL    H92 5888   8.543   3.981   3.212  1.8363 -1.8196 -0.0862
   19MOL    H93 5889   8.786   3.941   3.247  0.7982 -0.3398  1.3156
   19MOL    H94 5890   9.042   4.213   3.188  0.0456  0.1822 -1.7026
   19MOL    H95 5891   9.017   4.064   3.108 -0.1875 -0.7729  0.2755
   19MOL    H96 5892   8.866   4.351   3.122  0.6491 -0.5469  1.1421
   19MOL    H97 5893   8.621   4.402   3.115  0.6356  0.0635  0.1012
   19MOL    C98 5894   9.028   4.070   3.331  0.2939 -0.0594 -0.4741
   19MOL    C99 5895   9.179   4.056   3.344 -0.1340  0.9506  0.0793
   19MOL   C100 5896   9.228   3.927   3.349 -0.5197  0.4300 -0.0790
   19MOL   C101 5897   9.365   3.903   3.353 -0.0555  0.2309 -0.0930
   19MOL   C102 5898   9.457   4.011   3.361  0.4022  0.2327  0.0229
   19MOL   C103 5899   9.604   3.992   3.384 -0.3308  0.1008  0.1113
   19MOL   C104 5900   9.409   4.140   3.352  0.1181  0.0269 -0.2599
   19MOL   C105 5901   9.269   4.167   3.346  0.0857 -0.1412  0.2698
   19MOL   H106 5902   8.973   3.979   3.354  1.0387  0.4100  3.5106
   19MOL   H107 5903   8.993   4.128   3.416  0.3528 -0.2390 -0.3288
   19MOL   H108 5904   9.159   3.843   3.342 -1.1760  0.8498  1.2168
   19MOL   H109 5905   9.403   3.801   3.350  1.9090  0.8373  2.5557
   19MOL   H110 5906   9.617   3.883   3.387  0.1207  0.1492 -0.0145
   19MOL   H111 5907   9.649   4.027   3.291 -0.5321 -0.5360 -0.2321
   19MOL   H112 5908   9.488   4.215   3.355  2.8214 -2.5716 -2.9516
   19MOL   H113 5909   9.231   4.269   3.342 -1.5886 -0.7810 -0.4708
   19MOL   C114 5910   9.668   4.051   3.516 -0.3619  0.4569  0.2339
   19MOL   C115 5911   9.815   4.009   3.538 -0.4273 -0.1283 -0.3198
   19MOL   C116 5912   9.852   3.897   3.616  0.1739 -0.1545 -0.4340
   19MOL   C117 5913   9.987   3.847   3.616  0.2479 -0.3677 -0.6645
   19MOL   C118 5914  10.088   3.931   3.569 -0.6339  0.0291 -0.1983
   19MOL   C119 5915  10.236   3.892   3.599 -0.1844  0.4138  0.0175
   19MOL   C120 5916  10.051   4.053   3.512  0.3656  0.0032 -0.2035
   19MOL   C121 5917   9.916   4.086   3.484 -0.5241 -0.4774 -0.1940
   19MOL   H122 5918   9.621   4.006   3.603 -0.2601  0.5766  0.3509
   19MOL   H123 5919   9.658   4.160   3.513  1.4119  0.5977 -2.0001
   19MOL   H124 5920   9.769   3.843   3.661 -0.5719 -0.1939 -1.8324
   19MOL   H125 5921  10.015   3.751   3.658  1.2745  0.2676  0.1108
   19MOL   H126 5922  10.250   3.786   3.619  1.3987  1.1141  2.9230
   19MOL   H127 5923  10.290   3.913   3.507  1.0510  0.2652  0.7006
   19MOL   H128 5924  10.135   4.120   3.498  0.3899  0.1652  0.6681
   19MOL   H129 5925   9.892   4.173   3.425 -0.7660 -1.9110 -2.2706
   19MOL   C130 5926  10.293   3.977   3.709 -0.7178  0.4843  0.9479
   19MOL   C131 5927  10.438   3.952   3.736 -0.1702 -0.1316 -0.0647
   19MOL   C132 5928  10.482   3.868   3.840  0.6928  1.4175  0.1405
   19MOL   C133 5929  10.618   3.828   3.852  0.8615  0.5134  0.1973
   19MOL   C134 5930  10.719   3.880   3.775 -0.0670  0.0383  0.4870
   19MOL   C135 5931  10.864   3.844   3.794  0.0703  0.6093  0.1385
   19MOL   C136 5932  10.676   3.980   3.679  0.2679  0.7964  0.4545
   19MOL   C137 5933  10.543   4.012   3.656  0.1861  0.1266 -0.9408
   19MOL   H138 5934  10.232   3.964   3.798 -1.6166 -1.7218  0.0601
   19MOL   H139 5935  10.292   4.085   3.693 -1.1203  0.2397 -0.7796
   19MOL   H140 5936  10.406   3.831   3.907  1.2289 -0.0209 -0.0355
   19MOL   H141 5937  10.634   3.771   3.942  1.5503  0.1829 -0.1329
   19MOL   H142 5938  10.879   3.736   3.790 -0.0318  0.6286 -0.7697
   19MOL   H143 5939  10.910   3.877   3.701 -3.2513  1.7244 -1.1784
   19MOL   H144 5940  10.751   4.023   3.615  0.7894  1.7586  1.7013
   19MOL   H145 5941  10.516   4.082   3.578 -2.1494 -0.0584 -0.3406
   19MOL   C146 5942  10.913   3.909   3.921 -0.6495  0.0121 -0.6152
   19MOL   C147 5943  11.064   3.887   3.930 -0.2391 -0.3131  0.0863
   19MOL   C148 5944  11.125   3.777   3.993  0.1909  0.1697  0.3413
   19MOL   C149 5945  11.263   3.765   3.999  0.1923 -0.0517  0.2229
   19MOL   C150 5946  11.342   3.862   3.941  0.4959 -0.0373  0.9590
   19MOL   C151 5947  11.491   3.837   3.945 -0.3599 -0.5216 -0.4644
   19MOL   C152 5948  11.286   3.970   3.874  0.1769  0.1079  0.8470
   19MOL   C153 5949  11.150   3.985   3.875  0.5443 -0.2064  0.7300
   19MOL   H154 5950  10.866   3.876   4.014  0.4157  2.7839  0.9683
   19MOL   H155 5951  10.887   4.015   3.926  1.0289  0.3825  0.9307
   19MOL   H156 5952  11.060   3.706   4.042  0.8363 -0.5998  0.0880
   19MOL   H157 5953  11.296   3.665   4.022  1.0936  0.7434  2.5820
   19MOL   H158 5954  11.505   3.750   4.008 -0.5965 -0.2146  0.0125
   19MOL   H159 5955  11.546   3.811   3.854 -0.0813 -1.7051  0.0335
   19MOL   H160 5956  11.344   4.045   3.821 -1.5039  1.6240  1.0604
   19MOL   H161 5957  11.117   4.077   3.829 -0.7473 -0.4441  1.1527
   19MOL   C162 5958  11.564   3.963   4.015 -0.2090  0.3335 -0.0579
   19MOL   C163 5959  11.714   3.940   4.013  0.7860 -0.3475  1.1692
   19MOL   C164 5960  11.767   3.835   4.097 -0.4030 -0.3174  0.1173
   19MOL   C165 5961  11.902   3.820   4.112 -0.3187  0.1683  0.0610
   19MOL   C166 5962  11.988   3.879   4.021 -0.1184  0.1678  0.2382
   19MOL   C167 5963  12.136   3.866   4.036  0.4036  0.1370  0.2221
   19MOL   C168 5964  11.940   3.975   3.932  0.5897  0.2167 -0.4433
   19MOL   C169 5965  11.804   4.003   3.926 -0.2099 -0.7111  0.0134
   19MOL   H170 5966  11.547   3.960   4.123  2.1954 -2.7290  0.3074
   19MOL   H171 5967  11.540   4.059   3.970 -0.9752  0.0585 -0.2355
   19MOL   H172 5968  11.697   3.782   4.159  0.5749 -0.5235  1.0453
   19MOL   H173 5969  11.922   3.749   4.191 -0.7188  0.5343  0.4913
   19MOL   H174 5970  12.172   3.840   3.936 -0.7351  0.7048 -0.3527
   19MOL   H175 5971  12.178   3.959   4.075 -1.1878  0.5363  1.0066
   19MOL   H176 5972  12.016   4.027   3.875  0.4915 -1.0354 -1.7526
   19MOL   H177 5973  11.767   4.068   3.848 -2.7238  1.7174  3.0962
   19MOL   C178 5974  12.186   3.748   4.133  0.5957 -0.1109 -0.3072
   19MOL   C179 5975  12.328   3.755   4.157  0.3187  0.0329 -0.4347
   19MOL   C180 5976  12.376   3.808   4.274 -0.3575  0.7292  0.1961
   19MOL   C181 5977  12.513   3.807   4.316  0.1886 -0.8907  0.6189
   19MOL   C182 5978  12.600   3.738   4.228 -0.4896 -0.4195  0.4495
   19MOL   C183 5979  12.742   3.717   4.280  0.1307  0.2052  0.0928
   19MOL   C184 5980  12.559   3.680   4.108 -0.0298 -0.5704 -0.7725
   19MOL   C185 5981  12.425   3.694   4.075  0.2005 -0.1547 -0.0424
   19MOL   H186 5982  12.151   3.651   4.097 -1.1428 -0.6217  2.5590
   19MOL   H187 5983  12.147   3.759   4.235  1.2299  2.9849 -0.3509
   19MOL   H188 5984  12.305   3.850   4.344  0.7541  0.9156  1.2243
   19MOL   H189 5985  12.538   3.851   4.411 -1.8844 -1.7193  1.5919
   19MOL   H190 5986  12.728   3.700   4.387  2.0619 -1.1927  0.1365
   19MOL   H191 5987  12.793   3.635   4.231  1.6148  2.1652 -1.7397
   19MOL   H192 5988  12.636   3.631   4.050  0.7757 -1.0331  0.6642
   19MOL   H193 5989  12.397   3.658   3.977  0.4410 -1.3798  0.3310
   19MOL   C194 5990  12.836   3.838   4.250 -0.5489  0.2033 -0.1340
   19MOL   C195 5991  12.983   3.818   4.292 -0.4605  0.0227 -0.3327
   19MOL   C196 5992  13.029   3.864   4.419 -0.0887  0.0401 -0.7669
   19MOL   C197 5993  13.162   3.844   4.467 -0.3297  0.3496  0.4040
   19MOL   C198 5994  13.253   3.793   4.368  0.0984  0.4454  0.3525
   19MOL   C199 5995  13.398   3.759   4.407 -0.4796 -0.1359 -0.3615
   19MOL   C200 5996  13.217   3.766   4.236 -0.2342  0.0145  0.0979
   19MOL   C201 5997  13.080   3.778   4.200  0.5616  0.7105  0.1606
   19MOL   H202 5998  12.792   3.927   4.296 -0.3431  1.6095 -2.5827
   19MOL   H203 5999  12.837   3.864   4.144 -0.5789 -3.1521 -0.9928
   19MOL   H204 6000  12.956   3.901   4.490 -0.0308  0.9182 -1.1610
   19MOL   H205 6001  13.198   3.868   4.566  1.0419 -0.2484  0.0598
   19MOL   H206 6002  13.403   3.670   4.470 -0.5491  0.4339  0.4522
   19MOL   H207 6003  13.448   3.734   4.314  0.6912 -0.5925  0.3845
   19MOL   H208 6004  13.282   3.714   4.167 -0.3683  1.0341 -0.8258
   19MOL   H209 6005  13.032   3.740   4.111  0.3352 -1.5905  1.2323
   19MOL   C210 6006  13.470   3.862   4.485 -0.4381  0.1971  0.1061
   19MOL   C211 6007  13.618   3.839   4.494 -0.8489 -0.0045  0.3317
   19MOL   C212 6008  13.676   3.739   4.572 -0.3164  0.1327 -0.0100
   19MOL   C213 6009  13.817   3.724   4.578 -0.7016  0.0166  0.1771
   19MOL   C214 6010  13.902   3.816   4.507  0.2192 -0.4115 -0.1538
   19MOL   C215 6011  14.049   3.794   4.523  0.4025  0.3538 -0.1661
   19MOL   C216 6012  13.842   3.920   4.428  0.2508 -0.3939 -1.2051
   19MOL   C217 6013  13.699   3.927   4.419  0.0374  0.3842  0.0551
   19MOL   H218 6014  13.446   3.861   4.592 -0.7546  3.1373  0.1263
   19MOL   H219 6015  13.445   3.962   4.449 -1.0891 -0.7117 -2.0270
   19MOL   H220 6016  13.604   3.670   4.613  0.7043  0.4658  2.4639
   19MOL   H221 6017  13.854   3.648   4.645 -2.3534  0.0192  1.1253
   19MOL   H222 6018  14.077   3.722   4.600  2.2581  1.4532  0.2103
   19MOL   H223 6019  14.086   3.752   4.429 -2.8111  0.9872 -1.7972
   19MOL   H224 6020  13.909   3.993   4.385 -0.6514  1.7645  0.9672
   19MOL   H225 6021  13.651   3.993   4.348  1.0772 -0.3624 -1.3849
   19MOL   C226 6022  14.115   3.927   4.562  0.6147  0.4410  0.0364
   19MOL   C227 6023  14.265   3.920   4.583 -0.1459  0.3237 -0.4293
   19MOL   C228 6024  14.357   3.930   4.479 -0.1296  1.6987  0.6819
   19MOL   C229 6025  14.492   3.935   4.516  0.5330  0.0472 -0.9462
   19MOL   C230 6026  14.533   3.921   4.652  0.6068 -0.4723  0.1686
   19MOL   C231 6027  14.683   3.930   4.682  0.7037  0.7873 -0.2470
   19MOL   C232 6028  14.439   3.902   4.756 -0.0921  0.3148  0.0609
   19MOL   C233 6029  14.305   3.905   4.717  0.1204  0.6131 -0.1202
   19MOL   H234 6030  14.070   3.961   4.655 -1.8914  1.6637 -1.5495
   19MOL   H235 6031  14.095   4.013   4.497 -0.4506  0.7802  0.8003
   19MOL   H236 6032  14.320   3.950   4.380  1.4107 -0.0230 -0.2570
   19MOL   H237 6033  14.567   3.956   4.443  1.3590 -0.7381 -0.3360
   19MOL   H238 6034  14.716   4.032   4.665 -2.8698  1.8367 -1.2004
   19MOL   H239 6035  14.700   3.906   4.788 -2.7407 -1.2570 -0.0917
   19MOL   H240 6036  14.468   3.897   4.860 -0.7853 -1.3452  0.1950
   19MOL   H241 6037  14.229   3.883   4.790 -0.4213 -0.9658 -1.1543
   19MOL   C242 6038  14.766   3.824   4.602 -0.0801 -0.2014 -0.4430
   19MOL   C243 6039  14.923   3.839   4.633 -0.0235  0.4499 -0.2994
   19MOL   C244 6040  15.015   3.894   4.540 -0.5098 -1.1194 -0.0578
   19MOL   C245 6041  15.153   3.910   4.571 -0.2372 -0.7968  0.3957
   19MOL   C246 6042  15.200   3.866   4.697  0.1278  0.0135 -0.5561
   19MOL   C247 6043  15.342   3.888   4.727 -0.0264 -0.0581  0.1194
   19MOL   C248 6044  15.115   3.808   4.787 -0.0927 -0.0585 -0.2870
   19MOL   C249 6045  14.975   3.801   4.760 -0.0097  0.2285  0.2149
   19MOL   H250 6046  14.733   3.722   4.623  0.8396 -0.4712 -0.2690
   19MOL   H251 6047  14.759   3.849   4.496  0.0707  1.9251  0.0282
   19MOL   H252 6048  14.976   3.937   4.449 -4.2466  0.4512  2.1633
   19MOL   H253 6049  15.219   3.959   4.501  0.9305 -0.6527  1.5723
   19MOL   H254 6050  15.369   3.993   4.739  0.2063 -0.1363  0.2837
   19MOL   H255 6051  15.356   3.847   4.826 -3.6037 -0.7274  0.3777
   19MOL   H256 6052  15.157   3.764   4.877  0.8132 -0.0314 -0.6914
   19MOL   H257 6053  14.907   3.758   4.832 -0.9726  0.1456 -0.7187
   19MOL   C258 6054  15.438   3.811   4.638 -0.4965  0.3938 -0.3252
   19MOL   C259 6055  15.581   3.832   4.684  0.4517  0.1703  0.2652
   19MOL   C260 6056  15.651   3.939   4.633  0.0393 -0.0765 -1.4200
   19MOL   C261 6057  15.782   3.966   4.691  0.2187  0.6068 -0.0866
   19MOL   C262 6058  15.847   3.868   4.772  0.6236  0.0371  0.1118
   19MOL   C263 6059  15.995   3.893   4.811 -0.4139 -0.4085  0.1089
   19MOL   C264 6060  15.770   3.760   4.825 -0.6444  0.5562  0.6608
   19MOL   C265 6061  15.641   3.739   4.774 -0.9918  0.2231  0.4399
   19MOL   H266 6062  15.420   3.844   4.536  0.5181  0.3597 -0.5187
   19MOL   H267 6063  15.416   3.705   4.647 -1.9933  0.8110  1.2473
   19MOL   H268 6064  15.610   4.012   4.564  0.6863  1.0020 -0.6881
   19MOL   H269 6065  15.844   4.051   4.667  1.1524 -0.3119 -1.0018
   19MOL   H270 6066  16.014   4.000   4.820 -0.8464 -0.4712  2.0754
   19MOL   H271 6067  16.020   3.858   4.911  1.0638 -1.4376 -0.6013
   19MOL   H272 6068  15.815   3.691   4.896 -1.7736  1.1259  1.9445
   19MOL   H273 6069  15.581   3.659   4.815  0.5988 -2.4198 -2.1850
   19MOL   C274 6070  16.093   3.825   4.711  0.0166  0.2071 -0.4815
   19MOL   C275 6071  16.237   3.809   4.772 -0.8303  0.2586  0.1441
   19MOL   C276 6072  16.277   3.681   4.800  0.1186  0.3268 -0.1570
   19MOL   C277 6073  16.403   3.664   4.862 -0.8125  0.0504 -0.6888
   19MOL   C278 6074  16.496   3.767   4.872  0.4517  0.5318 -0.1453
   19MOL   C279 6075  16.630   3.736   4.937  0.5091  0.6088 -0.0465
   19MOL   C280 6076  16.458   3.897   4.829 -0.9042  0.1369  0.6648
   19MOL   C281 6077  16.326   3.917   4.778 -0.8724  0.1707  0.0944
   19MOL   H282 6078  16.052   3.725   4.702  0.3011 -0.0675  1.1028
   19MOL   H283 6079  16.094   3.876   4.615  0.7224  1.1030 -0.0161
   19MOL   H284 6080  16.206   3.602   4.779  1.4761 -0.5168 -1.5922
   19MOL   H285 6081  16.421   3.565   4.900 -1.2110  0.8638  1.7309
   19MOL   H286 6082  16.645   3.812   5.014  0.6824  0.1175  0.4037
   19MOL   H287 6083  16.610   3.644   4.992 -2.4088  2.0148  1.3797
   19MOL   H288 6084  16.522   3.984   4.829 -0.5000 -0.0823 -2.6954
   19MOL   H289 6085  16.293   4.012   4.738  0.7783  0.5991 -0.2891
   19MOL   C290 6086  16.756   3.724   4.852  0.7269  0.7063  0.4343
   19MOL   C291 6087  16.886   3.694   4.930  0.5223  0.1111  0.3192
   19MOL   C292 6088  16.983   3.795   4.953  0.1786  0.0795 -0.0932
   19MOL   C293 6089  17.102   3.760   5.018  0.4701 -0.2331  0.4834
   19MOL   C294 6090  17.126   3.625   5.063  0.9788 -0.7639 -0.3809
   19MOL   C295 6091  17.259   3.588   5.125  0.0386  0.1247 -0.1608
   19MOL   C296 6092  17.027   3.526   5.046 -0.2957 -0.8629 -0.7507
   19MOL   C297 6093  16.907   3.557   4.975 -0.1878  0.3303 -0.1284
   19MOL   H298 6094  16.777   3.810   4.788 -0.7833  0.6869 -0.1214
   19MOL   H299 6095  16.735   3.649   4.776  1.4536  2.3695 -1.4550
   19MOL   H300 6096  16.955   3.896   4.929  0.4150  0.2604  0.3833
   19MOL   H301 6097  17.177   3.829   5.052  0.3992  0.3775 -0.5893
   19MOL   H302 6098  17.287   3.666   5.196 -1.0858  0.4642 -0.0801
   19MOL   H303 6099  17.257   3.503   5.193  1.3388  2.1017  2.4816
   19MOL   H304 6100  17.045   3.425   5.082  0.5341 -0.3390  0.3298
   19MOL   H305 6101  16.829   3.484   4.968 -0.1082 -0.0584  2.4985
   19MOL   C306 6102  17.372   3.543   5.024  0.0148 -0.0472  0.5400
   19MOL   C307 6103  17.506   3.550   5.100 -0.4856  0.1058  0.1801
   19MOL   C308 6104  17.569   3.427   5.139  0.1239  0.0879 -0.0618
   19MOL   C309 6105  17.693   3.438   5.206 -0.3676 -0.0463 -0.2764
   19MOL   C310 6106  17.758   3.560   5.222 -0.5919 -0.1682 -0.2812
   19MOL   C311 6107  17.907   3.563   5.270  0.0083 -0.4327 -0.3998
   19MOL   C312 6108  17.690   3.680   5.193  0.8129 -0.1922 -0.2884
   19MOL   C313 6109  17.563   3.678   5.129 -0.0269  0.1096 -0.5529
   19MOL   H314 6110  17.370   3.612   4.939  1.1244 -0.8284 -0.1374
   19MOL   H315 6111  17.349   3.446   4.981  3.2835 -1.5147  1.9241
   19MOL   H316 6112  17.532   3.329   5.116  1.5250 -0.9505  2.0495
   19MOL   H317 6113  17.743   3.349   5.242  0.8304  1.1531  1.1085
   19MOL   H318 6114  17.956   3.467   5.288 -2.8489 -2.0641 -1.0334
   19MOL   H319 6115  17.965   3.614   5.193  0.6561 -0.0708  0.3251
   19MOL   H320 6116  17.740   3.774   5.211  0.5379 -0.2290  0.6754
   19MOL   H321 6117  17.524   3.771   5.093 -0.6687 -0.2408 -0.7645
   19MOL   H322 6118  17.928   3.628   5.354  0.7410 -0.4347 -0.5780
   20MOL     C1 6119   6.025   2.497   0.529  0.3303  0.5834  0.4597
   20MOL     C2 6120   6.148   2.429   0.472 -0.5515  0.1757  0.2853
   20MOL     C3 6121   6.206   2.470   0.348 -0.4730  0.2066  0.1726
   20MOL     C4 6122   6.314   2.394   0.297  0.3601 -0.0290  0.0390
   20MOL     C5 6123   6.367   2.284   0.362 -0.0915 -0.6548  0.2377
   20MOL     C6 6124   6.481   2.201   0.312  0.9304 -0.5391 -0.3423
   20MOL     C7 6125   6.306   2.254   0.488 -0.2109 -0.2006 -0.2389
   20MOL     C8 6126   6.211   2.325   0.548 -0.2983 -0.6297  0.0719
   20MOL     H9 6127   6.050   2.603   0.526  0.4718  0.5709  1.1375
   20MOL    H10 6128   5.929   2.475   0.483  0.4906  1.1226 -0.1442
   20MOL    H11 6129   6.162   2.549   0.290 -0.2107 -1.5467 -2.5007
   20MOL    H12 6130   6.343   2.424   0.198  0.2329 -0.2521 -0.0681
   20MOL    H13 6131   6.465   2.096   0.333  0.6814 -0.6094 -0.8628
   20MOL    H14 6132   6.471   2.205   0.203 -1.0923 -0.9609 -0.1958
   20MOL    H15 6133   6.348   2.176   0.549  2.1964  0.5043 -0.9385
   20MOL    H16 6134   6.173   2.304   0.647  1.8649  1.7785  1.4704
   20MOL    H17 6135   6.014   2.467   0.633  1.0465  1.0731  0.6741
   20MOL    C18 6136   6.615   2.251   0.366 -0.2687 -0.0648 -0.4405
   20MOL    C19 6137   6.731   2.178   0.312  0.4929  0.4460 -0.3481
   20MOL    C20 6138   6.811   2.238   0.212  0.7684 -0.8741 -0.1411
   20MOL    C21 6139   6.915   2.162   0.152 -0.0870 -0.4753 -0.1641
   20MOL    C22 6140   6.940   2.031   0.202 -0.5956  0.7109  0.1484
   20MOL    C23 6141   7.061   1.958   0.149  0.1664 -0.6310  0.7886
   20MOL    C24 6142   6.857   1.972   0.301 -0.1812 -0.3156  0.5472
   20MOL    C25 6143   6.751   2.047   0.355 -0.7000  0.0529  0.2211
   20MOL    H26 6144   6.625   2.358   0.348  0.1744  0.0052  0.2042
   20MOL    H27 6145   6.613   2.242   0.475  2.0915 -2.1312 -0.5440
   20MOL    H28 6146   6.776   2.331   0.171  0.0713 -0.4564  1.3530
   20MOL    H29 6147   6.987   2.206   0.085  0.3409 -3.0977 -1.5150
   20MOL    H30 6148   7.047   1.962   0.041 -2.0325  1.3670  1.0913
   20MOL    H31 6149   7.057   1.852   0.176 -1.3816 -0.8292 -0.1197
   20MOL    H32 6150   6.872   1.870   0.332  1.3908 -0.8950 -1.9328
   20MOL    H33 6151   6.689   2.012   0.436  1.7749 -2.3928  1.1425
   20MOL    C34 6152   7.191   2.026   0.191  0.2074  0.4701  0.6608
   20MOL    C35 6153   7.319   1.966   0.148  0.1207  0.2643 -0.3607
   20MOL    C36 6154   7.360   1.848   0.212 -0.5946  0.0322 -0.3971
   20MOL    C37 6155   7.479   1.782   0.171 -0.0634  0.0034 -0.1810
   20MOL    C38 6156   7.543   1.841   0.056  0.6037  0.2187 -0.1820
   20MOL    C39 6157   7.668   1.774   0.003  0.6592  0.7846  0.4684
   20MOL    C40 6158   7.501   1.957  -0.005  0.1995 -0.9885  0.3425
   20MOL    C41 6159   7.389   2.020   0.038 -0.4212 -1.1757  0.0546
   20MOL    H42 6160   7.195   2.021   0.299  2.8781  2.3765  0.6957
   20MOL    H43 6161   7.196   2.134   0.181  1.1744  0.6496  2.8814
   20MOL    H44 6162   7.301   1.799   0.289 -2.4944  3.2226  0.2770
   20MOL    H45 6163   7.522   1.703   0.231 -2.9472 -0.9404  0.7202
   20MOL    H46 6164   7.645   1.673  -0.029  1.2964  0.1916  1.8552
   20MOL    H47 6165   7.690   1.833  -0.087 -0.0755 -1.0269 -0.9325
   20MOL    H48 6166   7.563   2.011  -0.075 -0.4335  1.3882  1.5381
   20MOL    H49 6167   7.361   2.119   0.004 -0.2622 -1.9436 -2.4380
   20MOL    C50 6168   7.775   1.749   0.107 -0.0436 -0.2532  0.1729
   20MOL    C51 6169   7.913   1.715   0.053  0.8243 -0.3885 -0.2193
   20MOL    C52 6170   7.951   1.581   0.035 -0.0446 -0.3283 -0.3913
   20MOL    C53 6171   8.076   1.544  -0.014  0.7416  0.7207  0.0813
   20MOL    C54 6172   8.168   1.649  -0.050  0.7003  0.4519  0.3181
   20MOL    C55 6173   8.290   1.605  -0.126 -0.1179 -0.7189  0.6004
   20MOL    C56 6174   8.128   1.788  -0.039 -0.0355  0.7060  0.0438
   20MOL    C57 6175   8.003   1.818   0.022 -0.0485 -0.3246 -0.3514
   20MOL    H58 6176   7.740   1.681   0.184 -0.0353 -1.2075 -0.6588
   20MOL    H59 6177   7.797   1.839   0.164  0.9428 -0.5349  0.2487
   20MOL    H60 6178   7.870   1.516   0.063 -1.6701  1.2416 -1.3367
   20MOL    H61 6179   8.102   1.440  -0.024  1.7670  1.0660 -0.9781
   20MOL    H62 6180   8.276   1.501  -0.155  1.3501 -0.5387 -0.8454
   20MOL    H63 6181   8.299   1.665  -0.217  1.6415  0.3515  1.4510
   20MOL    H64 6182   8.195   1.869  -0.063 -0.9709  2.1209  2.0293
   20MOL    H65 6183   7.972   1.921   0.036 -1.7339 -0.8342 -0.2102
   20MOL    C66 6184   8.417   1.619  -0.039 -0.0166  0.4790  0.0087
   20MOL    C67 6185   8.543   1.562  -0.102 -0.1835 -0.5862  0.1060
   20MOL    C68 6186   8.556   1.425  -0.105 -0.3688  0.5399 -0.0801
   20MOL    C69 6187   8.668   1.368  -0.165  0.2460 -0.4680  0.1546
   20MOL    C70 6188   8.773   1.446  -0.217 -0.2326 -0.5910  0.0852
   20MOL    C71 6189   8.896   1.383  -0.281  0.3930  0.2479  0.1346
   20MOL    C72 6190   8.758   1.585  -0.208  0.1703  0.2624 -0.0835
   20MOL    C73 6191   8.638   1.642  -0.165  0.6328 -0.4651  0.2173
   20MOL    H74 6192   8.401   1.567   0.055  0.3632  0.9689  0.3427
   20MOL    H75 6193   8.434   1.721  -0.007  1.4764 -0.3355  1.9315
   20MOL    H76 6194   8.479   1.356  -0.073 -0.0088  0.2340  0.1213
   20MOL    H77 6195   8.665   1.261  -0.175  1.2066 -0.4248 -0.6952
   20MOL    H78 6196   8.947   1.458  -0.342  1.0425 -0.5519 -0.3306
   20MOL    H79 6197   8.876   1.291  -0.336 -1.6382  0.2483  0.8359
   20MOL    H80 6198   8.836   1.649  -0.248  0.6835 -0.1959  0.1799
   20MOL    H81 6199   8.625   1.749  -0.165 -0.0012 -0.5390  0.1364
   20MOL    C82 6200   9.001   1.333  -0.180 -0.8356 -0.2679  0.4581
   20MOL    C83 6201   9.135   1.288  -0.235 -0.3829  0.2624  0.2979
   20MOL    C84 6202   9.219   1.390  -0.284 -0.6806  0.7237  0.0549
   20MOL    C85 6203   9.336   1.358  -0.352  0.7230 -0.1240  0.6131
   20MOL    C86 6204   9.375   1.220  -0.355 -0.1467 -0.5740 -0.1087
   20MOL    C87 6205   9.512   1.180  -0.418 -0.6445  0.1611  0.0095
   20MOL    C88 6206   9.289   1.117  -0.312  0.3958 -0.1573 -0.3861
   20MOL    C89 6207   9.162   1.152  -0.256 -0.3295 -0.1917  0.1047
   20MOL    H90 6208   8.958   1.256  -0.116 -2.1589 -0.6743 -0.8939
   20MOL    H91 6209   9.022   1.410  -0.106  3.7100 -1.7108  0.7974
   20MOL    H92 6210   9.176   1.488  -0.268 -3.3010 -0.2496 -0.9034
   20MOL    H93 6211   9.402   1.434  -0.391 -1.7827  1.9357  0.2628
   20MOL    H94 6212   9.526   1.247  -0.502 -1.9284 -0.3984 -0.6616
   20MOL    H95 6213   9.507   1.080  -0.459  1.7355 -0.1827  0.4467
   20MOL    H96 6214   9.324   1.015  -0.316 -2.4576 -1.1620 -0.7395
   20MOL    H97 6215   9.100   1.073  -0.216 -2.9794  0.9289 -1.6748
   20MOL    C98 6216   9.635   1.186  -0.326 -0.3463  0.5596  0.3512
   20MOL    C99 6217   9.762   1.112  -0.374 -0.1008 -0.0473  0.1466
   20MOL   C100 6218   9.775   0.970  -0.369 -0.9701 -0.1537 -0.1619
   20MOL   C101 6219   9.894   0.903  -0.410 -0.0475 -0.3413  0.5131
   20MOL   C102 6220   9.992   0.985  -0.471  0.4167 -0.4418  0.3042
   20MOL   C103 6221  10.116   0.928  -0.532 -0.4324  0.2834 -0.1251
   20MOL   C104 6222   9.974   1.127  -0.491  0.0035 -0.2943 -0.2680
   20MOL   C105 6223   9.862   1.189  -0.440 -0.3684  0.3162  0.9212
   20MOL   H106 6224   9.612   1.142  -0.229 -2.6446 -0.2229 -0.5037
   20MOL   H107 6225   9.651   1.290  -0.299 -0.9894  1.4680 -2.6161
   20MOL   H108 6226   9.692   0.916  -0.326 -1.7361  0.6456 -0.6254
   20MOL   H109 6227   9.894   0.796  -0.393 -1.5047 -0.4806 -0.2682
   20MOL   H110 6228  10.093   0.838  -0.588  0.1408 -0.1165  0.2794
   20MOL   H111 6229  10.142   0.983  -0.622 -3.3788 -1.2717 -2.0059
   20MOL   H112 6230  10.043   1.189  -0.548 -1.4833  0.7780 -0.9449
   20MOL   H113 6231   9.855   1.296  -0.449  0.2692  0.1739 -1.5639
   20MOL   C114 6232  10.227   0.921  -0.420  0.1813  0.3438  0.4128
   20MOL   C115 6233  10.348   0.866  -0.495 -0.0215  0.0487 -0.2675
   20MOL   C116 6234  10.361   0.727  -0.515 -0.5539  0.6055  0.2285
   20MOL   C117 6235  10.480   0.689  -0.584 -0.3379  0.2087 -0.1843
   20MOL   C118 6236  10.581   0.780  -0.625  0.5710 -0.1017  0.3299
   20MOL   C119 6237  10.710   0.733  -0.696 -0.6932  0.5165 -0.1798
   20MOL   C120 6238  10.556   0.920  -0.604 -0.2572  0.0354  0.4605
   20MOL   C121 6239  10.443   0.960  -0.547  0.5357 -0.1862 -0.3666
   20MOL   H122 6240  10.194   0.853  -0.342 -0.2982 -1.8238 -1.6144
   20MOL   H123 6241  10.240   1.017  -0.369  0.9346 -0.1013  1.0571
   20MOL   H124 6242  10.293   0.658  -0.467  0.0149 -0.7143 -0.8350
   20MOL   H125 6243  10.492   0.583  -0.603  1.0406  0.4358 -0.6545
   20MOL   H126 6244  10.693   0.639  -0.749 -0.0209  1.3633 -1.9382
   20MOL   H127 6245  10.751   0.795  -0.776 -2.5107 -2.9779 -3.9769
   20MOL   H128 6246  10.634   0.992  -0.621 -0.5262  0.1929 -0.1059
   20MOL   H129 6247  10.424   1.064  -0.526  0.9073 -0.0593 -0.6614
   20MOL   C130 6248  10.821   0.695  -0.590 -0.4820 -0.5177 -0.0416
   20MOL   C131 6249  10.957   0.648  -0.644 -0.0179 -0.4606  0.4620
   20MOL   C132 6250  11.055   0.743  -0.677 -0.1364 -0.3536 -0.6379
   20MOL   C133 6251  11.172   0.700  -0.738  0.1516  0.0439  0.2801
   20MOL   C134 6252  11.204   0.564  -0.753 -0.0659  0.1920 -0.4351
   20MOL   C135 6253  11.329   0.525  -0.827 -0.6184  0.0738  0.0947
   20MOL   C136 6254  11.109   0.471  -0.708  0.3235  0.4651 -0.0101
   20MOL   C137 6255  10.987   0.510  -0.649  0.1636  0.2055  0.3519
   20MOL   H138 6256  10.784   0.626  -0.514 -3.0760 -0.6137 -1.3271
   20MOL   H139 6257  10.840   0.776  -0.519  1.7853 -1.0411 -0.0266
   20MOL   H140 6258  11.038   0.849  -0.667 -1.5050 -0.6501  0.3224
   20MOL   H141 6259  11.242   0.779  -0.763 -0.3122  0.6060  0.7530
   20MOL   H142 6260  11.310   0.458  -0.911  1.0596 -0.1504 -0.1276
   20MOL   H143 6261  11.376   0.615  -0.867  0.2833 -0.3854  0.1058
   20MOL   H144 6262  11.137   0.368  -0.721 -0.1295 -0.1639  3.4696
   20MOL   H145 6263  10.910   0.440  -0.618  1.6763 -1.6628 -0.0255
   20MOL   C146 6264  11.430   0.443  -0.740  0.0509 -0.6199  0.1208
   20MOL   C147 6265  11.545   0.380  -0.818  0.3025  0.2549  0.4248
   20MOL   C148 6266  11.570   0.239  -0.800 -0.5874  0.4649 -0.5767
   20MOL   C149 6267  11.682   0.176  -0.866 -0.6848 -0.3994 -0.4546
   20MOL   C150 6268  11.759   0.255  -0.954  0.5815 -0.0677 -0.2416
   20MOL   C151 6269  11.860   0.196  -1.046 -0.2890  0.4007 -0.1325
   20MOL   C152 6270  11.720   0.392  -0.977  0.1823 -0.1179  0.4116
   20MOL   C153 6271  11.616   0.455  -0.907  0.5392  0.2873 -0.1751
   20MOL   H154 6272  11.369   0.366  -0.692 -1.0171 -0.8771 -1.6089
   20MOL   H155 6273  11.460   0.510  -0.660 -1.8316  0.6080 -0.1595
   20MOL   H156 6274  11.504   0.190  -0.730 -3.8324  2.6781 -1.9674
   20MOL   H157 6275  11.713   0.076  -0.842 -0.9609 -0.2763  0.4314
   20MOL   H158 6276  11.839   0.090  -1.046  0.9573  0.1431 -0.4361
   20MOL   H159 6277  11.831   0.226  -1.146 -0.9120 -2.9020 -0.9864
   20MOL   H160 6278  11.773   0.451  -1.050  0.4441  0.2570  0.9076
   20MOL   H161 6279  11.588   0.558  -0.924 -0.2319 -0.3506 -2.9381
   20MOL   C162 6280  12.007   0.233  -1.016  0.4661 -0.5544 -0.2112
   20MOL   C163 6281  12.107   0.155  -1.096 -0.0965  0.0556  0.5435
   20MOL   C164 6282  12.118   0.166  -1.236 -0.3725 -0.0264  0.0839
   20MOL   C165 6283  12.229   0.092  -1.300  0.5643  0.4066  0.6036
   20MOL   C166 6284  12.305  -0.006  -1.228  0.6597 -0.1080 -0.0612
   20MOL   C167 6285  12.424  -0.086  -1.291  0.0854  0.3108  0.5725
   20MOL   C168 6286  12.272  -0.028  -1.094 -0.2710 -0.1179  0.2192
   20MOL   C169 6287  12.175   0.051  -1.028 -0.5294 -0.2963  0.7778
   20MOL   H170 6288  12.030   0.219  -0.910 -0.0847  0.1111  0.0030
   20MOL   H171 6289  12.027   0.339  -1.035  0.0652 -0.3682  0.3585
   20MOL   H172 6290  12.058   0.236  -1.293  0.5319  1.0136  0.3942
   20MOL   H173 6291  12.264   0.112  -1.400  1.2430  1.2585  1.0088
   20MOL   H174 6292  12.426  -0.188  -1.252 -1.8638  0.7504  1.8886
   20MOL   H175 6293  12.371  -0.103  -1.384 -0.5317 -1.8160  1.2955
   20MOL   H176 6294  12.313  -0.102  -1.027  0.8657 -0.3139 -0.6842
   20MOL   H177 6295  12.154   0.027  -0.925  0.9255 -0.8652  0.9459
   20MOL   C178 6296  12.554   0.005  -1.291  0.3182 -0.2984  0.1623
   20MOL   C179 6297  12.660  -0.075  -1.363 -0.1077  0.3163 -0.4124
   20MOL   C180 6298  12.704  -0.048  -1.495  0.2210  0.4267  0.1545
   20MOL   C181 6299  12.803  -0.123  -1.557  0.0114 -0.7192 -1.1977
   20MOL   C182 6300  12.865  -0.228  -1.487 -1.0466 -0.4783  0.0376
   20MOL   C183 6301  12.984  -0.295  -1.557  0.7604 -0.1320 -0.4200
   20MOL   C184 6302  12.833  -0.259  -1.352 -0.0364  0.5123  0.0690
   20MOL   C185 6303  12.729  -0.181  -1.294  0.0962  0.7175 -0.6164
   20MOL   H186 6304  12.560   0.013  -1.183  0.7513 -1.3881  0.2325
   20MOL   H187 6305  12.542   0.107  -1.328  2.0746 -0.2745 -0.3900
   20MOL   H188 6306  12.670   0.038  -1.552  1.1021  1.5732  1.3114
   20MOL   H189 6307  12.835  -0.079  -1.650 -1.2465 -1.0528 -1.7998
   20MOL   H190 6308  13.008  -0.393  -1.517 -0.6027 -0.8470 -1.3185
   20MOL   H191 6309  12.953  -0.318  -1.659 -0.5367 -2.3357  0.4488
   20MOL   H192 6310  12.887  -0.332  -1.294 -1.5635  1.2591  2.4597
   20MOL   H193 6311  12.694  -0.213  -1.196  0.1205 -3.3950 -1.8300
   20MOL   C194 6312  13.114  -0.212  -1.561 -0.0719 -0.5290 -0.0569
   20MOL   C195 6313  13.227  -0.282  -1.630  0.0073  0.6295 -0.5884
   20MOL   C196 6314  13.312  -0.373  -1.565 -0.4934 -0.3874  0.0356
   20MOL   C197 6315  13.425  -0.423  -1.632 -0.2273  0.3853 -0.4089
   20MOL   C198 6316  13.455  -0.382  -1.766 -0.0428 -0.0093  0.1128
   20MOL   C199 6317  13.573  -0.438  -1.841 -0.2486 -0.0339  0.1828
   20MOL   C200 6318  13.375  -0.286  -1.830  0.5731  0.3606 -0.2028
   20MOL   C201 6319  13.257  -0.244  -1.764  0.9689 -0.6303 -0.3501
   20MOL   H202 6320  13.142  -0.201  -1.456  0.8806 -0.9159 -0.2651
   20MOL   H203 6321  13.101  -0.107  -1.587 -1.9280 -0.6359  0.3779
   20MOL   H204 6322  13.293  -0.395  -1.462  2.1320  0.6017  0.7873
   20MOL   H205 6323  13.490  -0.492  -1.581  1.5787  1.7324 -0.8490
   20MOL   H206 6324  13.556  -0.543  -1.864 -0.9832  0.5846 -2.2550
   20MOL   H207 6325  13.583  -0.394  -1.940 -1.7024 -0.7651 -0.3110
   20MOL   H208 6326  13.390  -0.250  -1.931  1.2212  0.2889 -0.1322
   20MOL   H209 6327  13.196  -0.168  -1.810 -1.1797 -1.6636  0.7098
   20MOL   C210 6328  13.709  -0.413  -1.768 -0.0741 -0.7815  0.0682
   20MOL   C211 6329  13.823  -0.461  -1.857 -0.5172 -0.2510 -0.4176
   20MOL   C212 6330  13.894  -0.576  -1.826  0.2439  0.5749  0.2627
   20MOL   C213 6331  14.008  -0.614  -1.899 -0.6709 -0.1699  0.2836
   20MOL   C214 6332  14.044  -0.545  -2.019 -0.6481 -0.2177 -0.4364
   20MOL   C215 6333  14.158  -0.586  -2.098 -0.6982  0.1000 -0.2357
   20MOL   C216 6334  13.982  -0.421  -2.043 -0.2951  0.2365  0.5159
   20MOL   C217 6335  13.874  -0.380  -1.962  1.2022  0.4379  1.1318
   20MOL   H218 6336  13.716  -0.483  -1.684  1.8093  0.1822  0.7375
   20MOL   H219 6337  13.721  -0.312  -1.729  1.0476 -1.5094  1.6760
   20MOL   H220 6338  13.862  -0.633  -1.740  0.9689 -0.8310 -0.3672
   20MOL   H221 6339  14.065  -0.697  -1.859  3.2059  1.7460 -1.1421
   20MOL   H222 6340  14.155  -0.694  -2.081  1.3007 -0.0184 -0.4416
   20MOL   H223 6341  14.134  -0.562  -2.202 -1.8761 -2.8749 -0.7065
   20MOL   H224 6342  14.011  -0.357  -2.125 -0.4963 -0.4488 -0.0980
   20MOL   H225 6343  13.819  -0.293  -1.996  2.3972  0.2957 -1.2433
   20MOL   C226 6344  14.286  -0.534  -2.037  0.2389 -1.0694  0.1190
   20MOL   C227 6345  14.412  -0.591  -2.097 -0.1681 -0.0648 -0.2398
   20MOL   C228 6346  14.476  -0.704  -2.043 -0.6698 -0.1026  0.1955
   20MOL   C229 6347  14.582  -0.765  -2.108 -0.6653 -0.0446  0.2783
   20MOL   C230 6348  14.633  -0.700  -2.226  0.2280  0.0601  0.3373
   20MOL   C231 6349  14.763  -0.758  -2.279 -0.1115  0.2690  0.6399
   20MOL   C232 6350  14.565  -0.590  -2.283 -0.5181 -0.3338  0.2846
   20MOL   C233 6351  14.450  -0.538  -2.223 -0.6020 -0.7292  0.0766
   20MOL   H234 6352  14.289  -0.557  -1.931  0.9516  1.4273  0.6804
   20MOL   H235 6353  14.302  -0.427  -2.050 -2.1909 -0.5738  1.0080
   20MOL   H236 6354  14.428  -0.747  -1.956 -0.4545 -0.9670 -0.1165
   20MOL   H237 6355  14.639  -0.851  -2.077 -2.4536 -0.4240  2.5976
   20MOL   H238 6356  14.758  -0.867  -2.272 -1.7661  0.3676  1.4068
   20MOL   H239 6357  14.764  -0.736  -2.386 -1.3620 -3.2538 -0.1857
   20MOL   H240 6358  14.604  -0.538  -2.369  0.6380 -0.4134  0.7519
   20MOL   H241 6359  14.398  -0.451  -2.260  1.1105  0.8834  1.3417
   20MOL   C242 6360  14.885  -0.687  -2.212 -0.1541  0.5050  0.1208
   20MOL   C243 6361  15.026  -0.737  -2.254  0.3075  0.1446  0.1091
   20MOL   C244 6362  15.115  -0.658  -2.336 -0.5389 -0.4505 -0.3390
   20MOL   C245 6363  15.235  -0.713  -2.373 -0.0572 -0.7428 -0.0595
   20MOL   C246 6364  15.276  -0.841  -2.338 -0.5091 -0.0055 -0.1041
   20MOL   C247 6365  15.414  -0.888  -2.378  0.1962  0.2934  0.2115
   20MOL   C248 6366  15.191  -0.925  -2.270 -0.0786 -0.2537  0.1486
   20MOL   C249 6367  15.060  -0.876  -2.235 -0.3936 -1.1951  0.2411
   20MOL   H250 6368  14.880  -0.580  -2.231 -0.7253  0.6259  0.9283
   20MOL   H251 6369  14.884  -0.704  -2.105  0.4301 -1.9737 -0.2387
   20MOL   H252 6370  15.085  -0.557  -2.361  0.5463 -0.7268 -2.9361
   20MOL   H253 6371  15.298  -0.649  -2.434  1.1101 -0.8282  1.0273
   20MOL   H254 6372  15.414  -0.995  -2.357  1.0900  0.4454  1.0695
   20MOL   H255 6373  15.420  -0.891  -2.486  0.6730  1.5632  0.1872
   20MOL   H256 6374  15.226  -1.023  -2.242 -0.0846  0.6417  3.5430
   20MOL   H257 6375  14.994  -0.938  -2.176 -0.5706 -1.0398  0.2047
   20MOL   C258 6376  15.533  -0.811  -2.311  0.2605  0.0288 -0.1143
   20MOL   C259 6377  15.674  -0.852  -2.353 -0.5338 -0.6338  0.2055
   20MOL   C260 6378  15.703  -0.866  -2.488  0.0042  0.0880  0.5499
   20MOL   C261 6379  15.830  -0.918  -2.526  0.4420 -0.2399  0.0482
   20MOL   C262 6380  15.935  -0.935  -2.436  0.7270 -0.2647 -0.9983
   20MOL   C263 6381  16.067  -0.981  -2.490 -0.1331  0.9375  0.4315
   20MOL   C264 6382  15.912  -0.902  -2.298  0.4441 -0.1204  0.1418
   20MOL   C265 6383  15.780  -0.871  -2.254 -0.0500  0.0055  0.4891
   20MOL   H266 6384  15.523  -0.800  -2.203  0.4663 -0.0303 -0.0895
   20MOL   H267 6385  15.530  -0.711  -2.353  0.2140 -0.4625 -1.3115
   20MOL   H268 6386  15.626  -0.856  -2.563  1.3314  2.2332 -0.5740
   20MOL   H269 6387  15.828  -0.942  -2.632 -1.8426 -0.5573  0.1301
   20MOL   H270 6388  16.103  -1.070  -2.440 -1.2827 -0.0092 -0.3940
   20MOL   H271 6389  16.056  -1.004  -2.595 -2.9053 -0.3325  0.9594
   20MOL   H272 6390  15.987  -0.920  -2.222  1.6782 -1.8518 -1.4549
   20MOL   H273 6391  15.753  -0.852  -2.152 -3.7740 -1.5683 -0.1294
   20MOL   C274 6392  16.182  -0.883  -2.490  0.4750 -0.7082  0.0849
   20MOL   C275 6393  16.313  -0.939  -2.545  0.0977 -0.0061  0.0492
   20MOL   C276 6394  16.372  -0.894  -2.666 -0.6290  0.2290 -0.1474
   20MOL   C277 6395  16.504  -0.933  -2.700 -0.4826 -0.1598 -0.2091
   20MOL   C278 6396  16.578  -1.026  -2.623  0.7176  0.2495 -0.9061
   20MOL   C279 6397  16.721  -1.064  -2.659 -0.4895 -0.2506  0.6807
   20MOL   C280 6398  16.510  -1.079  -2.509  0.1945  0.6374  0.1156
   20MOL   C281 6399  16.380  -1.039  -2.471 -0.1383  0.4648  0.4616
   20MOL   H282 6400  16.165  -0.783  -2.530  1.5127 -0.0292  1.2952
   20MOL   H283 6401  16.196  -0.863  -2.383 -0.4224 -0.1484  0.1074
   20MOL   H284 6402  16.319  -0.826  -2.731 -1.4230  1.5192  1.8341
   20MOL   H285 6403  16.534  -0.902  -2.799  0.2314 -0.7101 -0.1659
   20MOL   H286 6404  16.710  -1.171  -2.643  0.0772  0.0502  3.2785
   20MOL   H287 6405  16.735  -1.039  -2.764 -0.4259  1.8626  1.1787
   20MOL   H288 6406  16.556  -1.149  -2.441 -0.3926  1.4091  1.3421
   20MOL   H289 6407  16.334  -1.086  -2.385 -0.9205 -0.9303 -0.6805
   20MOL   C290 6408  16.814  -0.996  -2.556 -0.3645 -0.4710  0.1161
   20MOL   C291 6409  16.955  -1.028  -2.565 -0.8544  0.4782  0.1270
   20MOL   C292 6410  17.051  -0.926  -2.595 -0.5785  0.7859  0.4222
   20MOL   C293 6411  17.186  -0.964  -2.626  0.0932  0.5579 -0.3221
   20MOL   C294 6412  17.223  -1.106  -2.617 -1.1901 -0.2112  0.2187
   20MOL   C295 6413  17.368  -1.147  -2.634  0.0851  0.0947  0.1504
   20MOL   C296 6414  17.124  -1.205  -2.579 -0.2030 -0.1946 -0.5257
   20MOL   C297 6415  16.987  -1.167  -2.557 -0.9545 -0.0810 -0.2062
   20MOL   H298 6416  16.774  -1.024  -2.458 -0.2714 -0.9316  0.0265
   20MOL   H299 6417  16.812  -0.888  -2.549  2.3624 -0.4163  0.6688
   20MOL   H300 6418  17.020  -0.822  -2.593  1.6241  1.4562  3.6581
   20MOL   H301 6419  17.265  -0.890  -2.632 -0.0072  0.7959  1.1504
   20MOL   H302 6420  17.366  -1.223  -2.712  1.1907 -0.2955  0.4908
   20MOL   H303 6421  17.411  -1.060  -2.682  1.9040 -2.4943 -3.0931
   20MOL   H304 6422  17.155  -1.307  -2.562  0.4304  0.4101  2.1310
   20MOL   H305 6423  16.909  -1.238  -2.532 -1.1659  0.8560  1.9102
   20MOL   C306 6424  17.439  -1.196  -2.503 -0.2819 -0.5203  0.2876
   20MOL   C307 6425  17.587  -1.233  -2.521 -0.7435  1.0655 -0.0503
   20MOL   C308 6426  17.629  -1.364  -2.550 -0.2485 -0.1317  0.3879
   20MOL   C309 6427  17.764  -1.401  -2.559 -0.0821 -0.4592  0.2850
   20MOL   C310 6428  17.863  -1.299  -2.538  0.6876 -0.4560 -0.3032
   20MOL   C311 6429  18.010  -1.337  -2.552 -0.1377 -0.0054 -0.2689
   20MOL   C312 6430  17.819  -1.169  -2.516 -0.5127 -0.4861 -0.3900
   20MOL   C313 6431  17.684  -1.133  -2.513 -0.1224 -0.2616 -0.3547
   20MOL   H314 6432  17.391  -1.289  -2.475 -2.2758  0.6478  0.8643
   20MOL   H315 6433  17.419  -1.138  -2.413  0.8260 -1.8806  1.4330
   20MOL   H316 6434  17.555  -1.443  -2.553  0.4879 -0.9460  2.3937
   20MOL   H317 6435  17.783  -1.499  -2.599 -1.7557 -0.3013 -0.9073
   20MOL   H318 6436  18.034  -1.388  -2.459  0.1758  0.2243 -0.2226
   20MOL   H319 6437  18.031  -1.403  -2.636 -0.4230 -0.4624  0.0171
   20MOL   H320 6438  17.888  -1.092  -2.484 -0.2515 -1.3192  1.0718
   20MOL   H321 6439  17.668  -1.032  -2.479  0.4028 -0.0494 -0.7208
   20MOL   H322 6440  18.074  -1.250  -2.572  0.3842 -0.5740 -1.1089
   21MOL     C1 6441   3.398   6.323   1.216  0.5234 -0.4457  0.0961
   21MOL     C2 6442   3.518   6.237   1.207 -0.4025 -0.2700 -0.3562
   21MOL     C3 6443   3.530   6.147   1.099  0.4060 -0.1572 -0.6411
   21MOL     C4 6444   3.630   6.051   1.101 -0.0417 -0.2270 -0.2861
   21MOL     C5 6445   3.718   6.046   1.212 -0.6892  0.9139 -0.3155
   21MOL     C6 6446   3.820   5.933   1.211 -0.5830 -0.0090  0.4864
   21MOL     C7 6447   3.703   6.135   1.315 -0.3651 -0.0426  0.4402
   21MOL     C8 6448   3.601   6.227   1.316  0.6235 -0.0103  0.6621
   21MOL     H9 6449   3.314   6.265   1.177  0.8965 -0.5185 -0.6165
   21MOL    H10 6450   3.369   6.351   1.317 -0.7231  0.1645 -0.4289
   21MOL    H11 6451   3.458   6.150   1.018 -1.1850 -0.7529  0.7235
   21MOL    H12 6452   3.641   5.992   1.011 -1.2490 -0.8315 -0.0540
   21MOL    H13 6453   3.801   5.869   1.298 -1.9185  0.3330  0.4535
   21MOL    H14 6454   3.796   5.858   1.135  1.0295 -0.4506  0.3948
   21MOL    H15 6455   3.772   6.128   1.398 -0.5412  0.4913  0.6368
   21MOL    H16 6456   3.595   6.286   1.406  0.9967  1.8780 -0.5272
   21MOL    H17 6457   3.416   6.419   1.169  0.6468  0.4660  1.9640
   21MOL    C18 6458   3.962   5.995   1.213  0.4410  0.2270  0.6505
   21MOL    C19 6459   4.068   5.890   1.258 -0.4205 -0.0412 -0.4936
   21MOL    C20 6460   4.103   5.789   1.165 -0.1845 -0.6741  0.0054
   21MOL    C21 6461   4.193   5.689   1.198 -0.0785  0.2113  0.4471
   21MOL    C22 6462   4.261   5.701   1.324  0.4705  0.0316  0.0301
   21MOL    C23 6463   4.374   5.605   1.357 -0.0132 -0.0925  0.5328
   21MOL    C24 6464   4.229   5.799   1.417  0.2470 -0.1136 -0.5762
   21MOL    C25 6465   4.130   5.889   1.384 -0.4788 -0.8830 -0.0245
   21MOL    H26 6466   3.990   6.047   1.121 -1.8635 -0.0394 -0.2548
   21MOL    H27 6467   3.958   6.074   1.287 -2.4832  3.3323 -2.6400
   21MOL    H28 6468   4.059   5.777   1.067  3.2450 -2.9966 -1.3758
   21MOL    H29 6469   4.214   5.607   1.131 -0.4629  0.9210 -0.5523
   21MOL    H30 6470   4.352   5.515   1.300 -1.2895 -0.2063  1.1723
   21MOL    H31 6471   4.364   5.578   1.462  1.5377  0.9814  0.9779
   21MOL    H32 6472   4.286   5.805   1.509 -0.8493  1.7023  0.0124
   21MOL    H33 6473   4.106   5.972   1.449  0.7955  0.3751 -1.1335
   21MOL    C34 6474   4.520   5.666   1.341 -0.0773 -0.6667 -0.2819
   21MOL    C35 6475   4.638   5.580   1.385 -0.3956 -0.4427  0.4118
   21MOL    C36 6476   4.763   5.634   1.409  0.3746 -0.2177 -0.0344
   21MOL    C37 6477   4.878   5.558   1.436 -0.2402  0.0564  0.8459
   21MOL    C38 6478   4.868   5.418   1.456  0.2237 -0.3860 -0.7128
   21MOL    C39 6479   4.982   5.325   1.501  0.0952 -0.1003  0.5333
   21MOL    C40 6480   4.740   5.361   1.444  0.4747  0.5061  0.2074
   21MOL    C41 6481   4.627   5.442   1.411  0.1635  0.0379 -0.2422
   21MOL    H42 6482   4.511   5.754   1.404  0.6761  1.5095 -3.1488
   21MOL    H43 6483   4.531   5.699   1.238  0.3007 -1.4112 -0.4827
   21MOL    H44 6484   4.788   5.736   1.383  1.7528 -0.0651  1.8464
   21MOL    H45 6485   4.970   5.616   1.446 -2.2659  3.2010  1.9923
   21MOL    H46 6486   5.023   5.354   1.597  0.2921 -1.3732  0.8384
   21MOL    H47 6487   4.956   5.221   1.520 -1.1730  0.2932  0.9532
   21MOL    H48 6488   4.718   5.256   1.459  1.1449  0.4734  1.0270
   21MOL    H49 6489   4.526   5.403   1.413  0.9874 -2.2455 -1.4476
   21MOL    C50 6490   5.098   5.336   1.389 -0.3410  0.7801  0.0668
   21MOL    C51 6491   5.215   5.251   1.434  0.4076 -0.1855  0.1610
   21MOL    C52 6492   5.333   5.307   1.483  0.4393  0.1268  0.3305
   21MOL    C53 6493   5.450   5.231   1.507 -0.4531  0.2419 -0.2550
   21MOL    C54 6494   5.438   5.092   1.509  0.2268  0.5089  0.5561
   21MOL    C55 6495   5.557   4.999   1.533 -0.6017 -0.8100  0.3695
   21MOL    C56 6496   5.319   5.037   1.458 -1.2607  0.3916  0.4902
   21MOL    C57 6497   5.208   5.112   1.421 -0.3670 -0.2989  0.1706
   21MOL    H58 6498   5.130   5.438   1.372 -2.0650  1.3925  0.4409
   21MOL    H59 6499   5.064   5.292   1.295 -1.0023 -0.5369  0.9088
   21MOL    H60 6500   5.331   5.414   1.493  1.4971  0.0546  1.4764
   21MOL    H61 6501   5.538   5.288   1.534  1.0421 -3.0550  2.0807
   21MOL    H62 6502   5.620   5.052   1.604 -0.3801 -0.1397 -0.3226
   21MOL    H63 6503   5.522   4.906   1.579 -0.8112 -0.7199  0.3889
   21MOL    H64 6504   5.309   4.930   1.451  0.2384  0.1855  1.2731
   21MOL    H65 6505   5.126   5.053   1.381 -1.1968 -0.7049  2.3969
   21MOL    C66 6506   5.643   4.978   1.410  0.3823 -0.0879 -0.1665
   21MOL    C67 6507   5.776   4.916   1.454  0.1237  0.3447 -0.2778
   21MOL    C68 6508   5.783   4.780   1.469  0.0546  0.1980  0.1388
   21MOL    C69 6509   5.906   4.720   1.500 -0.1920  0.4838 -0.2048
   21MOL    C70 6510   6.025   4.792   1.513  0.3828  0.6582 -0.1310
   21MOL    C71 6511   6.159   4.725   1.540  0.1561 -0.7325  0.0304
   21MOL    C72 6512   6.010   4.933   1.500 -0.4502 -0.2054  0.3173
   21MOL    C73 6513   5.890   4.993   1.479 -0.6483 -0.3445 -0.0325
   21MOL    H74 6514   5.655   5.081   1.376 -0.7558 -0.1675 -0.8572
   21MOL    H75 6515   5.590   4.926   1.331 -2.2124  0.0201  1.4569
   21MOL    H76 6516   5.702   4.711   1.452  1.4422 -1.7655  1.2438
   21MOL    H77 6517   5.908   4.613   1.516 -0.3398  0.7031  1.3273
   21MOL    H78 6518   6.228   4.789   1.595 -1.3366  2.3786 -1.5715
   21MOL    H79 6519   6.187   4.711   1.436 -2.0429 -1.3419 -0.5100
   21MOL    H80 6520   6.099   4.991   1.523  0.2900 -0.3313 -2.1164
   21MOL    H81 6521   5.892   5.100   1.468  0.5814 -0.5513 -1.9078
   21MOL    C82 6522   6.141   4.584   1.595  0.5803  0.0561 -0.7230
   21MOL    C83 6523   6.273   4.515   1.629  0.0293 -0.0631  0.3742
   21MOL    C84 6524   6.301   4.498   1.767  0.3764 -0.2966  0.6531
   21MOL    C85 6525   6.420   4.443   1.804 -1.2236 -0.0950 -0.1624
   21MOL    C86 6526   6.518   4.400   1.706 -0.2787 -0.4759  0.2888
   21MOL    C87 6527   6.658   4.347   1.756  0.3334  0.1344  0.3608
   21MOL    C88 6528   6.488   4.411   1.570  0.4136 -0.3249  0.9718
   21MOL    C89 6529   6.370   4.479   1.535 -0.0862  0.0851  0.4982
   21MOL    H90 6530   6.096   4.522   1.518  0.4931 -2.2267  1.1232
   21MOL    H91 6531   6.080   4.574   1.684 -0.4643 -1.5842 -1.6050
   21MOL    H92 6532   6.235   4.531   1.846 -1.7413 -1.6951 -0.4754
   21MOL    H93 6533   6.440   4.425   1.908  0.0253 -0.2863 -0.4282
   21MOL    H94 6534   6.722   4.324   1.671 -1.4727 -1.0365 -0.7165
   21MOL    H95 6535   6.645   4.248   1.801  2.9743 -0.6471 -0.4935
   21MOL    H96 6536   6.559   4.373   1.498 -0.3856 -0.9466  0.5079
   21MOL    H97 6537   6.352   4.482   1.428 -0.2931  0.9833  0.5559
   21MOL    C98 6538   6.727   4.434   1.866  0.8258  0.5621  0.1249
   21MOL    C99 6539   6.860   4.387   1.901  0.3011 -0.5743  1.1038
   21MOL   C100 6540   6.956   4.356   1.806  0.6742 -0.5861 -0.7944
   21MOL   C101 6541   7.092   4.323   1.839 -0.4248 -0.4608 -0.1515
   21MOL   C102 6542   7.125   4.315   1.978 -0.3119 -0.1898  0.2230
   21MOL   C103 6543   7.263   4.260   2.020 -0.1683  0.0674  0.0657
   21MOL   C104 6544   7.026   4.347   2.078 -0.0557  0.3529  0.0104
   21MOL   C105 6545   6.901   4.384   2.032 -0.1727  0.2421 -0.3169
   21MOL   H106 6546   6.655   4.429   1.948 -0.3051 -2.1224 -0.9802
   21MOL   H107 6547   6.724   4.532   1.818  0.5743  0.5869  0.1870
   21MOL   H108 6548   6.938   4.348   1.700 -0.5911  0.3200 -0.6615
   21MOL   H109 6549   7.171   4.297   1.771 -0.5750 -2.2116  0.3165
   21MOL   H110 6550   7.271   4.156   1.988 -1.3362  0.1525 -0.5224
   21MOL   H111 6551   7.343   4.318   1.974  0.3681  0.7516  1.7983
   21MOL   H112 6552   7.044   4.336   2.184 -1.0373  0.4666  0.1926
   21MOL   H113 6553   6.845   4.414   2.119 -0.2974  0.0472 -0.3296
   21MOL   C114 6554   7.294   4.263   2.170 -0.0400 -0.4696 -0.4082
   21MOL   C115 6555   7.443   4.234   2.206  0.0393 -0.2996  0.2534
   21MOL   C116 6556   7.496   4.295   2.324 -0.3484  0.2027  0.7194
   21MOL   C117 6557   7.631   4.272   2.358  0.5361  0.4416  0.9940
   21MOL   C118 6558   7.714   4.186   2.280 -0.2306 -0.5901 -0.7349
   21MOL   C119 6559   7.853   4.141   2.322 -0.5642 -0.1724  0.2934
   21MOL   C120 6560   7.657   4.123   2.169  0.7991  0.3295 -0.7913
   21MOL   C121 6561   7.525   4.150   2.130  0.2806 -0.2092  0.4617
   21MOL   H122 6562   7.229   4.194   2.225 -2.3558  0.9672 -1.2862
   21MOL   H123 6563   7.274   4.366   2.198 -0.7699 -0.5903 -0.4854
   21MOL   H124 6564   7.433   4.365   2.377 -0.4694  0.3969  0.3229
   21MOL   H125 6565   7.672   4.328   2.440  2.2622  0.6578  0.0031
   21MOL   H126 6566   7.868   4.034   2.315 -1.8811 -0.2632 -1.5641
   21MOL   H127 6567   7.913   4.183   2.241  1.0259  0.6896  1.8836
   21MOL   H128 6568   7.724   4.059   2.113  0.1633 -1.3825  0.3777
   21MOL   H129 6569   7.484   4.100   2.043 -0.2720 -0.5828  0.9270
   21MOL   C130 6570   7.899   4.189   2.459  0.0831  0.5873 -0.0461
   21MOL   C131 6571   8.039   4.129   2.492 -0.5305 -0.0228 -0.0244
   21MOL   C132 6572   8.114   4.059   2.390 -0.0749 -0.6450 -0.1202
   21MOL   C133 6573   8.237   4.001   2.432 -0.0461  0.0268 -1.0887
   21MOL   C134 6574   8.282   4.012   2.564  0.0743 -0.1601  0.4997
   21MOL   C135 6575   8.416   3.955   2.603  0.0922  0.4700 -0.5929
   21MOL   C136 6576   8.203   4.077   2.664 -0.2487 -0.0234  0.8133
   21MOL   C137 6577   8.088   4.140   2.627  0.5246  0.1317 -0.0237
   21MOL   H138 6578   7.829   4.162   2.538  0.4639  2.7915  1.0920
   21MOL   H139 6579   7.902   4.298   2.469 -1.1358  0.5192  1.2378
   21MOL   H140 6580   8.080   4.043   2.289 -0.1336 -0.5672 -0.1131
   21MOL   H141 6581   8.302   3.946   2.365  0.3332 -0.1760 -0.5577
   21MOL   H142 6582   8.396   3.912   2.701 -3.7518 -2.9619 -2.7194
   21MOL   H143 6583   8.446   3.865   2.550  2.7292  0.3899  0.9679
   21MOL   H144 6584   8.242   4.084   2.765  1.5456 -1.8909  0.2920
   21MOL   H145 6585   8.038   4.190   2.708  0.9640 -1.2038  1.0956
   21MOL   C146 6586   8.529   4.056   2.608  0.2422  0.5265  0.2209
   21MOL   C147 6587   8.654   4.000   2.669 -1.2542  0.0862 -0.9086
   21MOL   C148 6588   8.690   4.038   2.799 -0.1677 -0.2403  0.1653
   21MOL   C149 6589   8.814   4.000   2.851 -0.4526 -0.3891  0.7722
   21MOL   C150 6590   8.904   3.926   2.779 -0.6971 -0.1095  0.2388
   21MOL   C151 6591   9.037   3.874   2.836  0.6734 -0.3664  0.2302
   21MOL   C152 6592   8.879   3.905   2.639  0.5872  0.6756  0.0326
   21MOL   C153 6593   8.750   3.933   2.592 -0.6694 -0.7055 -0.0484
   21MOL   H154 6594   8.498   4.142   2.669 -1.1471  0.3144 -0.1802
   21MOL   H155 6595   8.539   4.113   2.516 -0.6606 -2.0834 -1.5473
   21MOL   H156 6596   8.625   4.083   2.873 -1.2518 -0.8571 -0.4020
   21MOL   H157 6597   8.842   4.025   2.953  0.8467  1.4582 -0.0120
   21MOL   H158 6598   9.022   3.860   2.943  0.0475 -1.1320  0.0479
   21MOL   H159 6599   9.057   3.780   2.784 -3.0610 -0.6626 -0.8411
   21MOL   H160 6600   8.954   3.867   2.571 -1.7890 -0.5168 -2.0051
   21MOL   H161 6601   8.736   3.898   2.491 -0.8851  0.8504 -0.5692
   21MOL   C162 6602   9.145   3.975   2.811  0.1328  0.0868  0.7980
   21MOL   C163 6603   9.284   3.919   2.842  0.0334  0.2892  1.7132
   21MOL   C164 6604   9.351   3.956   2.958  0.2441  0.4639 -0.1245
   21MOL   C165 6605   9.483   3.916   2.977 -0.4687 -0.8083  0.2141
   21MOL   C166 6606   9.541   3.825   2.885  0.5930 -0.1989  0.1254
   21MOL   C167 6607   9.686   3.776   2.917 -0.0952  0.0686  0.0540
   21MOL   C168 6608   9.472   3.789   2.769 -0.1114  0.2683  0.0073
   21MOL   C169 6609   9.343   3.836   2.746 -0.0136  0.2697 -0.1002
   21MOL   H170 6610   9.116   4.064   2.868 -0.2542 -0.1382  0.9473
   21MOL   H171 6611   9.147   4.009   2.708 -2.4765  0.8728  0.9853
   21MOL   H172 6612   9.306   4.028   3.024  2.4363 -0.7635  2.8532
   21MOL   H173 6613   9.543   3.964   3.053 -0.9762  1.9519 -1.0383
   21MOL   H174 6614   9.707   3.727   3.012  0.9239  0.5530  0.0840
   21MOL   H175 6615   9.723   3.718   2.833 -0.3995  0.4343 -0.3413
   21MOL   H176 6616   9.515   3.720   2.699  0.1683  0.2623  0.1830
   21MOL   H177 6617   9.295   3.822   2.650  0.8539  0.5790 -0.5794
   21MOL   C178 6618   9.778   3.902   2.912  1.0018 -0.2258  0.1976
   21MOL   C179 6619   9.926   3.876   2.936  0.6168 -0.0086 -0.0614
   21MOL   C180 6620  10.015   3.800   2.854  0.3766  0.0478  0.0261
   21MOL   C181 6621  10.146   3.768   2.888 -0.1282  0.2794 -0.2575
   21MOL   C182 6622  10.199   3.812   3.009  0.5417  0.1375 -0.2479
   21MOL   C183 6623  10.341   3.780   3.059 -0.4543  0.3155  0.7887
   21MOL   C184 6624  10.112   3.890   3.091 -0.2257 -0.7399  0.4354
   21MOL   C185 6625   9.982   3.923   3.055 -0.5800 -0.0325  0.0250
   21MOL   H186 6626   9.748   3.989   2.972 -1.5601 -1.0981  0.2436
   21MOL   H187 6627   9.783   3.943   2.811  1.2515 -1.3183 -0.2346
   21MOL   H188 6628   9.973   3.768   2.760  1.6218 -0.7031 -0.2979
   21MOL   H189 6629  10.202   3.716   2.812  0.4032  1.5788 -0.7619
   21MOL   H190 6630  10.385   3.707   2.991 -2.3087 -1.4201  1.4258
   21MOL   H191 6631  10.404   3.868   3.040  0.2106 -0.5843 -1.4139
   21MOL   H192 6632  10.139   3.922   3.190 -0.1815  0.2882  0.0996
   21MOL   H193 6633   9.919   3.982   3.119  2.0007  1.6159  1.1570
   21MOL   C194 6634  10.354   3.711   3.192  0.1262 -0.3945  0.0540
   21MOL   C195 6635  10.496   3.681   3.241  0.4745 -0.2110  0.1672
   21MOL   C196 6636  10.560   3.563   3.198 -0.0777 -0.4622  0.6384
   21MOL   C197 6637  10.695   3.538   3.230  0.1978  0.2001  0.6526
   21MOL   C198 6638  10.769   3.639   3.303 -0.2395  0.4320  0.4447
   21MOL   C199 6639  10.916   3.616   3.330 -0.7248  0.1120 -0.3637
   21MOL   C200 6640  10.704   3.749   3.345 -0.3192 -0.1728 -0.1663
   21MOL   C201 6641  10.570   3.773   3.316 -0.1783 -0.3855  0.0412
   21MOL   H202 6642  10.313   3.610   3.189 -1.4496  0.2493 -0.7381
   21MOL   H203 6643  10.303   3.766   3.272  1.8828 -1.4696  1.9483
   21MOL   H204 6644  10.507   3.491   3.137  1.4306  0.9188 -2.4280
   21MOL   H205 6645  10.754   3.452   3.202  1.5347  1.1796  0.4049
   21MOL   H206 6646  10.953   3.537   3.265  0.7143  1.0754 -0.7321
   21MOL   H207 6647  10.977   3.702   3.305 -0.1018  0.2202  1.4457
   21MOL   H208 6648  10.758   3.827   3.398  0.5337 -0.3041 -0.8270
   21MOL   H209 6649  10.514   3.857   3.355  1.2433  0.2304  0.7958
   21MOL   C210 6650  10.946   3.582   3.478  0.1013  0.2458  0.0369
   21MOL   C211 6651  11.095   3.582   3.515 -0.1473 -0.1062 -0.6511
   21MOL   C212 6652  11.190   3.511   3.433  0.2721  0.4096  0.3749
   21MOL   C213 6653  11.328   3.507   3.469 -0.3951 -0.1243  0.4342
   21MOL   C214 6654  11.370   3.580   3.582  0.7615  0.2425  0.6043
   21MOL   C215 6655  11.518   3.585   3.620  0.0332 -0.3118  0.6275
   21MOL   C216 6656  11.283   3.663   3.647  0.2556  0.2010 -0.2864
   21MOL   C217 6657  11.150   3.659   3.622 -0.9889 -0.1110  0.0717
   21MOL   H218 6658  10.913   3.484   3.514  1.6354  0.5069  2.3185
   21MOL   H219 6659  10.900   3.654   3.545 -1.2319  0.6699 -1.3219
   21MOL   H220 6660  11.154   3.453   3.349  0.4051  0.1604  0.4890
   21MOL   H221 6661  11.397   3.446   3.411  0.5128  0.7882  0.5395
   21MOL   H222 6662  11.588   3.578   3.537 -1.0355 -0.5109 -0.2681
   21MOL   H223 6663  11.531   3.675   3.680 -1.3304  0.2152  0.1463
   21MOL   H224 6664  11.321   3.717   3.732  0.2336  0.3209 -0.3537
   21MOL   H225 6665  11.085   3.730   3.671 -1.4123  0.7805 -1.7357
   21MOL   C226 6666  11.548   3.462   3.700 -0.1015  0.2593  0.4484
   21MOL   C227 6667  11.696   3.458   3.754  0.7903  0.3340 -0.4007
   21MOL   C228 6668  11.773   3.575   3.767 -0.3878 -0.7182 -0.0549
   21MOL   C229 6669  11.913   3.567   3.809  0.4957 -0.3402 -0.1273
   21MOL   C230 6670  11.960   3.441   3.848  0.7160 -1.0207  0.3807
   21MOL   C231 6671  12.104   3.439   3.894  0.3558  0.2443 -0.3461
   21MOL   C232 6672  11.882   3.325   3.838  0.3379 -0.3564 -0.3532
   21MOL   C233 6673  11.751   3.335   3.793 -0.2937  0.0377 -0.5195
   21MOL   H234 6674  11.529   3.368   3.649 -0.4769 -0.3662  1.7121
   21MOL   H235 6675  11.484   3.457   3.788  1.3701 -4.6401  1.4017
   21MOL   H236 6676  11.738   3.673   3.739 -1.2307 -0.9229  0.2685
   21MOL   H237 6677  11.979   3.652   3.821  0.8811 -0.9219  2.0588
   21MOL   H238 6678  12.141   3.541   3.906 -0.6654  0.7106 -1.0372
   21MOL   H239 6679  12.095   3.396   3.994 -0.5332 -0.5128 -0.7416
   21MOL   H240 6680  11.929   3.238   3.882  0.5109  0.5164  1.2483
   21MOL   H241 6681  11.697   3.242   3.793 -1.7708  0.6560  5.3586
   21MOL   C242 6682  12.199   3.364   3.804  0.6180  0.6703 -0.1786
   21MOL   C243 6683  12.343   3.371   3.852 -0.8566  0.2149 -0.1648
   21MOL   C244 6684  12.404   3.266   3.920 -0.6798 -0.3521 -0.3735
   21MOL   C245 6685  12.547   3.258   3.929  0.2859  0.3593 -0.0152
   21MOL   C246 6686  12.632   3.354   3.878  0.0900 -1.3577  0.3078
   21MOL   C247 6687  12.786   3.330   3.905  1.5811 -0.0082  0.1234
   21MOL   C248 6688  12.570   3.467   3.819  0.2080 -0.0051 -0.3982
   21MOL   C249 6689  12.429   3.470   3.796 -0.8316  0.0107 -0.1578
   21MOL   H250 6690  12.165   3.262   3.785  1.4427 -0.2035  2.7775
   21MOL   H251 6691  12.191   3.418   3.710 -0.4241 -0.5229 -0.7879
   21MOL   H252 6692  12.341   3.188   3.961  0.7369 -0.2823  2.0245
   21MOL   H253 6693  12.585   3.169   3.976 -0.5686  0.8566  1.6551
   21MOL   H254 6694  12.800   3.247   3.975 -1.5447  0.1187  0.9520
   21MOL   H255 6695  12.840   3.324   3.811 -0.2052  0.0358 -0.9133
   21MOL   H256 6696  12.630   3.554   3.797  1.0515 -0.3704  0.4134
   21MOL   H257 6697  12.388   3.544   3.729  0.2109  0.4974 -0.2594
   21MOL   C258 6698  12.856   3.454   3.971 -0.5575 -0.2332  0.0612
   21MOL   C259 6699  13.006   3.433   3.986  0.0116 -0.0565 -0.2144
   21MOL   C260 6700  13.066   3.421   4.109  0.0602 -0.6280 -0.0788
   21MOL   C261 6701  13.209   3.409   4.126  0.6686 -0.0169  0.5716
   21MOL   C262 6702  13.291   3.417   4.011 -0.2421 -0.2059  0.0799
   21MOL   C263 6703  13.444   3.407   4.019  0.4673 -0.5334  0.0562
   21MOL   C264 6704  13.229   3.436   3.882 -0.3130 -0.5884 -0.2321
   21MOL   C265 6705  13.089   3.443   3.870 -0.3554  0.4359 -0.0738
   21MOL   H266 6706  12.815   3.468   4.071 -0.6611 -0.3945  0.0412
   21MOL   H267 6707  12.851   3.549   3.918  2.3648  0.1895  0.4630
   21MOL   H268 6708  13.006   3.419   4.199  0.1240  0.5858  0.0077
   21MOL   H269 6709  13.248   3.385   4.224  1.8972 -2.5970 -0.5189
   21MOL   H270 6710  13.465   3.304   4.047  2.6208 -0.4105 -1.0560
   21MOL   H271 6711  13.472   3.436   3.918  0.1329  0.0504  0.1286
   21MOL   H272 6712  13.288   3.446   3.791 -0.1483 -0.4006 -0.1052
   21MOL   H273 6713  13.043   3.457   3.774 -0.1163 -0.4438 -0.3186
   21MOL   C274 6714  13.504   3.502   4.130  0.6999 -0.7081  0.0803
   21MOL   C275 6715  13.655   3.480   4.165  0.3299  0.8535  0.7901
   21MOL   C276 6716  13.730   3.360   4.146  0.3765 -0.1732  0.0488
   21MOL   C277 6717  13.861   3.343   4.183  0.2420  0.4068  0.7079
   21MOL   C278 6718  13.931   3.451   4.238  0.3165 -1.1478 -0.6838
   21MOL   C279 6719  14.076   3.429   4.283  0.2473  0.1669  0.3231
   21MOL   C280 6720  13.863   3.583   4.252 -0.6965 -0.3137  0.1402
   21MOL   C281 6721  13.731   3.587   4.210  0.3444 -0.2419 -0.2734
   21MOL   H282 6722  13.493   3.604   4.094 -2.1630 -0.5867  1.1448
   21MOL   H283 6723  13.447   3.517   4.222 -0.2438 -3.3687 -0.0141
   21MOL   H284 6724  13.684   3.275   4.096  1.2807 -0.2330 -0.7022
   21MOL   H285 6725  13.898   3.244   4.162 -1.0793 -0.4630  2.4601
   21MOL   H286 6726  14.101   3.521   4.336  2.8990 -1.0888  1.3118
   21MOL   H287 6727  14.088   3.353   4.360 -1.0233  0.1636  0.5229
   21MOL   H288 6728  13.914   3.662   4.305 -0.9005 -1.2493  1.7444
   21MOL   H289 6729  13.679   3.681   4.222  1.1735  0.6321 -3.0287
   21MOL   C290 6730  14.177   3.410   4.170  0.9516  0.2774  0.3971
   21MOL   C291 6731  14.321   3.376   4.204 -0.3667 -0.0729 -0.4135
   21MOL   C292 6732  14.365   3.384   4.334  0.0771 -0.2756 -0.2741
   21MOL   C293 6733  14.507   3.378   4.354  0.1458  0.6447 -0.1960
   21MOL   C294 6734  14.596   3.354   4.251  0.1327  0.8707 -0.3042
   21MOL   C295 6735  14.743   3.344   4.271  0.8021  0.6867 -0.2791
   21MOL   C296 6736  14.552   3.348   4.120  0.2005 -0.3883 -0.1657
   21MOL   C297 6737  14.411   3.354   4.102  1.0146 -0.2957 -0.5721
   21MOL   H298 6738  14.178   3.500   4.108 -3.0931  0.2113  0.0680
   21MOL   H299 6739  14.140   3.329   4.107  2.0570  0.4817 -0.5227
   21MOL   H300 6740  14.301   3.419   4.413  0.3109  1.9190 -1.0212
   21MOL   H301 6741  14.548   3.382   4.454 -2.1661  0.9718  0.7690
   21MOL   H302 6742  14.766   3.307   4.370 -1.5415 -0.5122 -0.1370
   21MOL   H303 6743  14.773   3.264   4.203 -1.4956 -0.4626  0.0046
   21MOL   H304 6744  14.620   3.334   4.037 -1.0175  0.9855 -1.4029
   21MOL   H305 6745  14.360   3.345   4.007  0.5836 -3.6324 -0.0892
   21MOL   C306 6746  14.817   3.476   4.239  0.0470  0.0196 -0.4918
   21MOL   C307 6747  14.964   3.488   4.272  0.1891 -0.1698 -0.8931
   21MOL   C308 6748  15.007   3.561   4.387  0.7481 -0.1817  0.0465
   21MOL   C309 6749  15.136   3.568   4.423  0.2504  0.0636 -0.5422
   21MOL   C310 6750  15.236   3.513   4.334  0.1596 -0.3362 -0.3996
   21MOL   C311 6751  15.386   3.530   4.364  0.8371 -0.2811 -0.2335
   21MOL   C312 6752  15.195   3.461   4.211 -0.3162 -0.3778 -0.5713
   21MOL   C313 6753  15.060   3.439   4.180  0.2681  0.7510  0.1688
   21MOL   H314 6754  14.769   3.556   4.294  0.2699  0.6463 -1.1858
   21MOL   H315 6755  14.816   3.505   4.133 -1.0462 -0.6267 -0.6570
   21MOL   H316 6756  14.934   3.609   4.450 -0.5111  0.2461 -1.6948
   21MOL   H317 6757  15.170   3.602   4.519  1.5800  0.3603 -1.1052
   21MOL   H318 6758  15.421   3.614   4.305  2.0351 -0.1859  0.6001
   21MOL   H319 6759  15.392   3.553   4.470 -3.6763 -1.0024  0.2672
   21MOL   H320 6760  15.270   3.428   4.141 -0.7995 -0.4585 -1.0608
   21MOL   H321 6761  15.038   3.393   4.085 -0.2970  0.4011  0.4612
   21MOL   H322 6762  15.441   3.436   4.360 -0.4785 -1.0565 -0.3838
   22MOL     C1 6763   4.621   3.177   2.845 -0.0403  0.1249 -0.4003
   22MOL     C2 6764   4.766   3.132   2.865  0.1487  0.2206  0.0195
   22MOL     C3 6765   4.811   3.080   2.989 -0.1879  0.2710 -0.0332
   22MOL     C4 6766   4.944   3.030   3.008  0.3983 -0.9240 -0.0469
   22MOL     C5 6767   5.034   3.048   2.902 -0.1622  0.1626 -0.2072
   22MOL     C6 6768   5.174   2.988   2.915  0.6928  0.1287  0.2992
   22MOL     C7 6769   4.994   3.110   2.780 -0.9231 -0.3696 -0.3490
   22MOL     C8 6770   4.857   3.144   2.765  0.0230  0.2806 -0.3782
   22MOL     H9 6771   4.582   3.123   2.759  2.1625 -1.0845 -0.6838
   22MOL    H10 6772   4.565   3.137   2.930  3.2248 -0.4456  1.5531
   22MOL    H11 6773   4.741   3.078   3.071 -1.9459  2.0817 -1.4313
   22MOL    H12 6774   4.964   2.987   3.105  0.0676  0.4916  0.6641
   22MOL    H13 6775   5.174   2.913   2.836 -0.4827  0.6120 -0.1871
   22MOL    H14 6776   5.247   3.060   2.878  1.1443 -0.0644  0.8106
   22MOL    H15 6777   5.067   3.134   2.705 -0.1593  0.2096  0.5732
   22MOL    H16 6778   4.833   3.192   2.671  1.3834  0.7643 -0.4936
   22MOL    H17 6779   4.596   3.281   2.825  1.1600  0.5611  0.3409
   22MOL    C18 6780   5.212   2.918   3.054  0.4085 -0.0242  0.8743
   22MOL    C19 6781   5.357   2.874   3.056 -0.2406  0.2052  0.6106
   22MOL    C20 6782   5.416   2.774   2.969 -0.8015 -0.0408 -0.7978
   22MOL    C21 6783   5.550   2.746   2.967 -0.1460  0.0594  0.9781
   22MOL    C22 6784   5.630   2.816   3.060  0.5418 -0.2401  0.1350
   22MOL    C23 6785   5.776   2.779   3.053 -0.3940  0.7926 -0.0938
   22MOL    C24 6786   5.579   2.905   3.155  0.2701 -0.4023 -0.1725
   22MOL    C25 6787   5.442   2.942   3.148 -0.4353 -0.7068  0.1657
   22MOL    H26 6788   5.189   2.976   3.143 -0.0921  0.6709  0.3053
   22MOL    H27 6789   5.145   2.832   3.059  0.2536  0.0165 -0.2964
   22MOL    H28 6790   5.351   2.721   2.901 -0.7954 -1.0135 -0.0643
   22MOL    H29 6791   5.588   2.662   2.912  0.4035  0.9848 -0.0769
   22MOL    H30 6792   5.788   2.715   2.965  0.6231  0.4058  0.3218
   22MOL    H31 6793   5.797   2.714   3.138  0.0482 -1.1419 -1.6305
   22MOL    H32 6794   5.646   2.964   3.215 -0.6151  0.9339 -0.4652
   22MOL    H33 6795   5.404   3.018   3.215  1.3784  0.6441 -0.3326
   22MOL    C34 6796   5.868   2.901   3.031  0.1690  0.2737  0.6167
   22MOL    C35 6797   6.022   2.871   3.036 -0.1288 -0.2240 -0.1503
   22MOL    C36 6798   6.083   2.831   2.916  0.0349  0.4472 -0.5494
   22MOL    C37 6799   6.225   2.815   2.896  0.3862 -0.0401  0.4327
   22MOL    C38 6800   6.305   2.841   3.011 -0.6232 -0.2793  0.9636
   22MOL    C39 6801   6.456   2.831   2.996  0.1860  0.3620 -0.1871
   22MOL    C40 6802   6.243   2.859   3.133 -0.2062 -0.7910 -0.7273
   22MOL    C41 6803   6.106   2.879   3.153 -0.0461 -0.1250 -0.0913
   22MOL    H42 6804   5.851   2.964   3.118  0.7508  0.5087  0.5632
   22MOL    H43 6805   5.825   2.942   2.940 -2.0066 -0.4159  1.2974
   22MOL    H44 6806   6.017   2.823   2.830  0.6613 -0.1793 -0.9797
   22MOL    H45 6807   6.268   2.795   2.799  1.1267  0.4721  0.6439
   22MOL    H46 6808   6.483   2.822   2.891 -4.6806  0.5570 -1.5847
   22MOL    H47 6809   6.498   2.923   3.037 -0.2835 -0.2747  1.7878
   22MOL    H48 6810   6.304   2.865   3.222 -0.6868  0.0111 -0.4416
   22MOL    H49 6811   6.058   2.895   3.249 -1.4591  0.1554 -0.8201
   22MOL    C50 6812   6.499   2.705   3.083  0.4720 -0.5178 -0.0073
   22MOL    C51 6813   6.637   2.661   3.071 -0.1977  0.0476  1.0546
   22MOL    C52 6814   6.677   2.563   2.977 -0.9731 -0.3753  0.6572
   22MOL    C53 6815   6.811   2.518   2.971 -0.8471 -0.0686  0.7853
   22MOL    C54 6816   6.912   2.585   3.041  0.6142  0.3567 -0.7349
   22MOL    C55 6817   7.053   2.543   3.030 -0.1088  0.2674  0.2236
   22MOL    C56 6818   6.878   2.692   3.126 -0.0972 -0.5984  0.1928
   22MOL    C57 6819   6.742   2.730   3.140  0.3086 -0.2919  0.6556
   22MOL    H58 6820   6.430   2.625   3.056  0.1953 -0.1737 -0.3195
   22MOL    H59 6821   6.484   2.732   3.187  2.2135  0.8648 -0.0826
   22MOL    H60 6822   6.608   2.505   2.917  0.6374 -0.5434 -1.0966
   22MOL    H61 6823   6.824   2.426   2.915  2.8467 -0.5562  2.2959
   22MOL    H62 6824   7.111   2.565   3.119 -0.0854  2.9215 -0.4066
   22MOL    H63 6825   7.050   2.434   3.024 -0.4855  0.3539 -1.3541
   22MOL    H64 6826   6.953   2.745   3.183 -1.6458  0.0698  1.6708
   22MOL    H65 6827   6.709   2.809   3.206  0.1536 -1.0113  1.4588
   22MOL    C66 6828   7.124   2.592   2.902  0.3563 -0.5166 -0.2607
   22MOL    C67 6829   7.267   2.535   2.901  0.2180  0.2819  0.1824
   22MOL    C68 6830   7.285   2.406   2.840 -0.3416  0.6487 -0.0292
   22MOL    C69 6831   7.417   2.354   2.839  0.2168  0.3636  0.2484
   22MOL    C70 6832   7.519   2.427   2.891  0.1980  0.2134  0.8880
   22MOL    C71 6833   7.661   2.376   2.867  0.5779 -0.5123  0.1794
   22MOL    C72 6834   7.501   2.549   2.957  0.2430 -0.2901  0.1440
   22MOL    C73 6835   7.374   2.604   2.957 -0.1491  0.1467  0.6570
   22MOL    H74 6836   7.104   2.699   2.897 -1.5272 -0.9272 -2.0433
   22MOL    H75 6837   7.070   2.544   2.820 -0.6112 -0.1788  0.1679
   22MOL    H76 6838   7.202   2.359   2.791  0.9747 -0.7928 -0.9141
   22MOL    H77 6839   7.445   2.262   2.791  2.4222  1.3497 -0.4067
   22MOL    H78 6840   7.679   2.272   2.896  0.9954 -0.0964  1.4934
   22MOL    H79 6841   7.733   2.431   2.928  0.4867  0.0248 -0.1968
   22MOL    H80 6842   7.583   2.605   3.001 -0.0490  0.2218  0.0364
   22MOL    H81 6843   7.353   2.698   3.004 -0.2762 -0.1786  1.2501
   22MOL    C82 6844   7.700   2.387   2.720  0.3365  0.2703  0.8207
   22MOL    C83 6845   7.847   2.356   2.710  0.3589 -0.1574 -0.0357
   22MOL    C84 6846   7.897   2.224   2.695  0.0681 -0.2394  0.3065
   22MOL    C85 6847   8.033   2.198   2.684 -0.0642  0.1008 -0.3222
   22MOL    C86 6848   8.121   2.311   2.687  0.1754  0.4226  0.2942
   22MOL    C87 6849   8.268   2.284   2.677  0.6280 -0.3300  0.3689
   22MOL    C88 6850   8.075   2.439   2.694 -0.4235 -0.0923  0.1779
   22MOL    C89 6851   7.934   2.465   2.705  0.0903 -0.0324  0.1702
   22MOL    H90 6852   7.686   2.491   2.693  1.6605  0.5170  1.0322
   22MOL    H91 6853   7.639   2.326   2.654  1.6608 -0.7151  0.4727
   22MOL    H92 6854   7.824   2.145   2.685 -0.0088 -0.0271 -0.8421
   22MOL    H93 6855   8.071   2.097   2.693  2.9156  1.3046  1.4650
   22MOL    H94 6856   8.300   2.190   2.721  0.3237 -0.7174 -0.2351
   22MOL    H95 6857   8.319   2.363   2.732  1.4213 -1.2237  0.9182
   22MOL    H96 6858   8.144   2.522   2.688 -0.7070  0.2903  1.7913
   22MOL    H97 6859   7.908   2.569   2.721 -0.0848 -0.4014  2.3772
   22MOL    C98 6860   8.304   2.284   2.526 -0.8790  0.4930 -0.1894
   22MOL    C99 6861   8.453   2.259   2.519 -0.5592 -0.1201  0.2657
   22MOL   C100 6862   8.540   2.369   2.507 -0.0981  0.5761 -0.5487
   22MOL   C101 6863   8.678   2.345   2.485 -0.7794  0.1160 -0.5401
   22MOL   C102 6864   8.731   2.221   2.477  0.1535  0.5287  0.1342
   22MOL   C103 6865   8.883   2.202   2.461 -0.1820 -0.2063 -0.0561
   22MOL   C104 6866   8.644   2.111   2.482 -0.5728 -0.3370 -0.4950
   22MOL   C105 6867   8.506   2.128   2.505  1.1574 -0.2127 -0.7763
   22MOL   H106 6868   8.281   2.375   2.469  0.7986  2.5966  2.3521
   22MOL   H107 6869   8.242   2.203   2.489  0.5768 -1.0341  0.6846
   22MOL   H108 6870   8.490   2.464   2.516 -0.9911  0.3256 -2.5683
   22MOL   H109 6871   8.743   2.432   2.478 -1.0957  0.3122 -1.1244
   22MOL   H110 6872   8.932   2.288   2.508 -1.1143 -0.1925  0.9148
   22MOL   H111 6873   8.915   2.114   2.516  0.3143 -0.8044 -1.2945
   22MOL   H112 6874   8.687   2.013   2.471 -0.3423 -0.5774  2.2196
   22MOL   H113 6875   8.442   2.042   2.516  1.9951 -0.9340 -1.5502
   22MOL   C114 6876   8.927   2.203   2.316 -0.0237 -0.1465 -0.0169
   22MOL   C115 6877   9.072   2.180   2.295 -0.0862  0.2827  0.3019
   22MOL   C116 6878   9.136   2.077   2.365  0.4444 -0.0542  0.5042
   22MOL   C117 6879   9.275   2.058   2.349  0.5837  0.6242  0.6815
   22MOL   C118 6880   9.350   2.144   2.267  0.8646 -0.5503  0.0076
   22MOL   C119 6881   9.498   2.123   2.251 -0.2561  0.6918 -0.3505
   22MOL   C120 6882   9.284   2.250   2.205 -0.1029 -0.0775  0.7671
   22MOL   C121 6883   9.148   2.268   2.214 -0.3380 -0.5288  0.3238
   22MOL   H122 6884   8.891   2.289   2.260 -2.3431 -0.4286  1.0056
   22MOL   H123 6885   8.879   2.113   2.276  1.4263 -0.4352 -1.1696
   22MOL   H124 6886   9.083   2.011   2.432 -0.5981  0.5241  0.2583
   22MOL   H125 6887   9.330   1.982   2.401  0.0112 -0.5251 -0.3612
   22MOL   H126 6888   9.546   2.221   2.250  2.9121 -0.7836  0.0158
   22MOL   H127 6889   9.552   2.099   2.343 -1.7995  0.6791  0.5757
   22MOL   H128 6890   9.345   2.321   2.151  1.2220 -0.3749  1.8217
   22MOL   H129 6891   9.107   2.349   2.155  0.6838 -0.2757 -0.0491
   22MOL   C130 6892   9.530   2.023   2.143  0.1497 -0.6548  0.0549
   22MOL   C131 6893   9.682   2.007   2.132  1.1671 -0.3892  0.0877
   22MOL   C132 6894   9.766   2.106   2.085  0.0078  0.4499  0.1735
   22MOL   C133 6895   9.910   2.077   2.067  0.2451  0.0146  0.7261
   22MOL   C134 6896   9.964   1.963   2.123 -0.2357  0.5801  0.0333
   22MOL   C135 6897  10.119   1.942   2.123  0.7066 -0.7278  0.2159
   22MOL   C136 6898   9.877   1.866   2.178 -0.0460 -0.0058 -0.7220
   22MOL   C137 6899   9.737   1.887   2.182 -0.0888  1.0012 -0.1722
   22MOL   H138 6900   9.490   2.057   2.048 -2.7590 -1.8791  0.7846
   22MOL   H139 6901   9.487   1.926   2.167 -0.9205  0.0668  1.1069
   22MOL   H140 6902   9.736   2.204   2.054  0.6341  1.0226  1.3490
   22MOL   H141 6903   9.976   2.146   2.015  0.7471 -0.0950  1.2176
   22MOL   H142 6904  10.177   2.032   2.103  0.4448 -1.0098 -1.9462
   22MOL   H143 6905  10.134   1.933   2.230  0.5418  0.1604  0.3225
   22MOL   H144 6906   9.919   1.772   2.209  1.9412  0.7439 -1.0355
   22MOL   H145 6907   9.670   1.813   2.223 -0.5700  1.9649  0.8107
   22MOL   C146 6908  10.183   1.814   2.053  0.0671  0.0397 -0.0473
   22MOL   C147 6909  10.328   1.783   2.061  0.5478  0.0646  0.1437
   22MOL   C148 6910  10.368   1.669   2.130 -0.2310  0.5180  0.5832
   22MOL   C149 6911  10.504   1.625   2.132 -0.6066 -0.2067  0.7184
   22MOL   C150 6912  10.604   1.703   2.063 -0.3922  0.6719 -0.0509
   22MOL   C151 6913  10.744   1.660   2.071 -0.0121 -0.0585  0.1887
   22MOL   C152 6914  10.562   1.821   2.001 -0.1072  0.0542 -0.1303
   22MOL   C153 6915  10.425   1.856   1.992 -0.6867  0.1927  0.5614
   22MOL   H154 6916  10.160   1.817   1.946  2.0200 -1.6721 -0.5390
   22MOL   H155 6917  10.135   1.727   2.096 -0.8347  0.1544 -0.8172
   22MOL   H156 6918  10.291   1.612   2.179  0.2675 -0.1210  0.6278
   22MOL   H157 6919  10.532   1.537   2.187  0.6060 -0.0235  0.4137
   22MOL   H158 6920  10.813   1.743   2.089  0.0056 -0.5737  2.7049
   22MOL   H159 6921  10.754   1.590   2.154 -0.3406  1.3196  1.4121
   22MOL   H160 6922  10.629   1.882   1.943 -1.0994  0.7061 -0.6029
   22MOL   H161 6923  10.392   1.945   1.942 -0.4353 -0.7846 -1.3629
   22MOL   C162 6924  10.782   1.582   1.955  0.3032 -0.1915  0.5407
   22MOL   C163 6925  10.929   1.539   1.960  0.0205 -0.3415  0.1596
   22MOL   C164 6926  10.977   1.432   2.038 -0.2047 -0.1129  0.1959
   22MOL   C165 6927  11.121   1.411   2.047 -0.1516  0.3503 -0.0034
   22MOL   C166 6928  11.207   1.490   1.970  0.5243 -0.3777  0.6756
   22MOL   C167 6929  11.354   1.476   1.973  0.3512  0.7136  0.2122
   22MOL   C168 6930  11.154   1.588   1.884  0.2597 -0.0696 -0.2141
   22MOL   C169 6931  11.019   1.623   1.887 -0.5095  0.5956 -0.1614
   22MOL   H170 6932  10.766   1.634   1.861  3.0146 -0.1838  0.0533
   22MOL   H171 6933  10.714   1.499   1.938  1.0219 -0.3856 -1.4566
   22MOL   H172 6934  10.910   1.384   2.108 -1.2044 -0.5522 -1.0304
   22MOL   H173 6935  11.161   1.347   2.124 -1.1077 -0.0682  0.1518
   22MOL   H174 6936  11.396   1.576   1.980 -2.4537  2.2074 -2.8737
   22MOL   H175 6937  11.387   1.422   2.062  1.6680 -1.0266 -1.3019
   22MOL   H176 6938  11.216   1.651   1.822 -2.1998  1.8831 -0.7491
   22MOL   H177 6939  10.987   1.715   1.839  0.6271 -0.1228 -2.3771
   22MOL   C178 6940  11.412   1.394   1.846 -0.3401 -0.3929  0.1722
   22MOL   C179 6941  11.555   1.364   1.870  0.4462 -0.4331  0.1412
   22MOL   C180 6942  11.588   1.272   1.972 -0.3334 -0.6305 -0.3174
   22MOL   C181 6943  11.720   1.230   1.977 -0.2945  1.0901 -0.2383
   22MOL   C182 6944  11.824   1.292   1.905  0.4845  0.4101 -0.2904
   22MOL   C183 6945  11.959   1.233   1.918  0.6303  0.1527 -0.0096
   22MOL   C184 6946  11.791   1.400   1.820 -0.0933 -0.0898  0.2104
   22MOL   C185 6947  11.655   1.431   1.795 -0.3639 -0.7298 -0.7864
   22MOL   H186 6948  11.401   1.441   1.749  0.2791  1.1245  0.8264
   22MOL   H187 6949  11.349   1.305   1.849 -0.1108 -0.6700 -2.2906
   22MOL   H188 6950  11.514   1.224   2.034 -2.3657 -0.1919 -2.3641
   22MOL   H189 6951  11.740   1.140   2.034 -1.5889  0.6347 -0.4862
   22MOL   H190 6952  12.035   1.311   1.930  0.9691  0.3704 -3.2342
   22MOL   H191 6953  11.960   1.190   2.018 -0.9495  0.0740 -0.0118
   22MOL   H192 6954  11.872   1.444   1.764 -0.4603  0.5453  0.1696
   22MOL   H193 6955  11.633   1.506   1.720 -3.1717  0.4393  1.1039
   22MOL   C194 6956  12.006   1.136   1.811  0.4880 -0.2006  0.0367
   22MOL   C195 6957  12.150   1.092   1.831 -0.6407 -0.8245  0.4153
   22MOL   C196 6958  12.178   0.977   1.902 -0.5705 -0.9844 -0.4209
   22MOL   C197 6959  12.306   0.923   1.910  0.4766  0.2070 -0.5148
   22MOL   C198 6960  12.418   0.992   1.861  0.0118 -0.1470  0.0859
   22MOL   C199 6961  12.549   0.930   1.889  0.0216  0.2451 -0.1960
   22MOL   C200 6962  12.395   1.118   1.803  0.0049 -0.4405  0.0747
   22MOL   C201 6963  12.263   1.164   1.781  0.4962  0.2100 -0.2239
   22MOL   H202 6964  12.006   1.195   1.719 -1.2627  0.3035  0.3352
   22MOL   H203 6965  11.937   1.053   1.795  0.3829  0.2744 -2.1974
   22MOL   H204 6966  12.102   0.912   1.945 -1.3975 -0.4882 -1.1326
   22MOL   H205 6967  12.326   0.831   1.963 -0.7421 -0.3259 -0.9530
   22MOL   H206 6968  12.563   0.944   1.996 -1.0744 -2.3126  0.3230
   22MOL   H207 6969  12.530   0.823   1.881  0.8072 -0.0066  1.0494
   22MOL   H208 6970  12.476   1.183   1.774  0.3442 -0.8015  0.2137
   22MOL   H209 6971  12.246   1.264   1.744  2.4576  0.7749  0.3210
   22MOL   C210 6972  12.665   0.991   1.801  0.2330  0.4399  0.5143
   22MOL   C211 6973  12.805   0.917   1.808 -0.0504  0.0193 -0.2321
   22MOL   C212 6974  12.833   0.843   1.931 -0.4213  0.9167  0.6559
   22MOL   C213 6975  12.951   0.774   1.946  0.2195 -0.0948 -0.3294
   22MOL   C214 6976  13.032   0.754   1.830  1.0022 -0.2693  0.3073
   22MOL   C215 6977  13.138   0.649   1.830 -0.3683  0.4379 -0.3048
   22MOL   C216 6978  13.010   0.827   1.711 -0.6095 -0.1240  0.1816
   22MOL   C217 6979  12.897   0.910   1.700  0.6217 -0.4772 -0.1324
   22MOL   H218 6980  12.672   1.099   1.815  0.7037  0.3362  1.0682
   22MOL   H219 6981  12.636   0.999   1.696 -1.2982  1.3287  0.9959
   22MOL   H220 6982  12.765   0.849   2.015 -0.3317  1.7522  0.6707
   22MOL   H221 6983  12.979   0.734   2.042  0.0291 -0.4544 -0.4209
   22MOL   H222 6984  13.117   0.576   1.909 -0.1347 -0.3781 -0.9934
   22MOL   H223 6985  13.138   0.588   1.740 -2.4133 -0.9612  0.5936
   22MOL   H224 6986  13.070   0.817   1.622  2.1948  0.3114  1.9500
   22MOL   H225 6987  12.886   0.971   1.611  2.9470 -1.3740 -1.0785
   22MOL   C226 6988  13.274   0.711   1.851 -0.8851  0.5877  0.0807
   22MOL   C227 6989  13.382   0.616   1.805  0.5897 -0.0358  0.7493
   22MOL   C228 6990  13.454   0.540   1.899  0.6613 -0.0107  0.3775
   22MOL   C229 6991  13.536   0.438   1.861 -0.5722 -0.3405  0.4297
   22MOL   C230 6992  13.541   0.407   1.721  0.6276 -0.1750 -0.8083
   22MOL   C231 6993  13.623   0.286   1.676 -0.0481 -0.9889 -0.0757
   22MOL   C232 6994  13.490   0.497   1.627 -0.0409  0.3624 -0.5540
   22MOL   C233 6995  13.402   0.598   1.672 -1.1118  0.2290  0.3346
   22MOL   H234 6996  13.274   0.727   1.959  0.4001 -3.3064  0.7382
   22MOL   H235 6997  13.301   0.806   1.804  0.9292 -0.7158 -1.5808
   22MOL   H236 6998  13.444   0.556   2.006  0.3141  1.2608  0.1611
   22MOL   H237 6999  13.601   0.387   1.930 -0.9072 -0.5454  0.5944
   22MOL   H238 7000  13.707   0.327   1.620 -0.7582  0.7898  0.1309
   22MOL   H239 7001  13.657   0.237   1.768  0.0674 -0.8652 -0.0524
   22MOL   H240 7002  13.488   0.457   1.526 -0.9432  0.9878 -0.7885
   22MOL   H241 7003  13.344   0.654   1.600 -0.1820  0.4984 -0.2144
   22MOL   C242 7004  13.548   0.171   1.595  0.0424 -0.2910  0.0722
   22MOL   C243 7005  13.638   0.057   1.568 -0.7918  0.8544 -1.1524
   22MOL   C244 7006  13.768   0.076   1.511 -0.1351  0.0687  0.0393
   22MOL   C245 7007  13.859  -0.036   1.496 -0.4014 -0.2926 -0.2046
   22MOL   C246 7008  13.823  -0.158   1.547  0.2578 -0.6663  0.0275
   22MOL   C247 7009  13.924  -0.265   1.563  0.1616 -0.1108 -0.4861
   22MOL   C248 7010  13.694  -0.179   1.603  0.3963 -1.2487 -0.0168
   22MOL   C249 7011  13.602  -0.069   1.609 -0.0708  0.2395  0.0035
   22MOL   H250 7012  13.462   0.138   1.652 -0.6661 -1.4859 -1.6447
   22MOL   H251 7013  13.504   0.213   1.504  0.8308  0.5419  0.0622
   22MOL   H252 7014  13.805   0.170   1.474 -1.7685  0.3615 -0.8508
   22MOL   H253 7015  13.958  -0.026   1.455  0.1485 -0.4622  1.0694
   22MOL   H254 7016  13.968  -0.284   1.465 -2.7999 -1.5965 -1.6211
   22MOL   H255 7017  14.002  -0.222   1.625  0.4092  0.8686 -1.4671
   22MOL   H256 7018  13.662  -0.269   1.654  1.1029 -1.5008 -0.0194
   22MOL   H257 7019  13.506  -0.085   1.655  0.8643 -0.7615  1.6097
   22MOL   C258 7020  13.885  -0.400   1.635  0.2250 -0.0847  0.8137
   22MOL   C259 7021  14.009  -0.487   1.645 -0.1797  1.0098  0.4819
   22MOL   C260 7022  14.044  -0.571   1.535 -0.3329  0.0256 -0.2548
   22MOL   C261 7023  14.147  -0.668   1.547 -0.3613 -0.9247 -0.1499
   22MOL   C262 7024  14.221  -0.673   1.671  0.4091  0.8574 -0.0165
   22MOL   C263 7025  14.336  -0.765   1.687 -0.2145  0.2181 -0.0758
   22MOL   C264 7026  14.194  -0.577   1.778 -0.4555 -0.1647 -0.0011
   22MOL   C265 7027  14.090  -0.489   1.763 -0.1026 -0.0570  0.5500
   22MOL   H266 7028  13.804  -0.446   1.578  0.7853  1.2607 -1.0858
   22MOL   H267 7029  13.851  -0.390   1.738 -0.3664  0.1541  0.6012
   22MOL   H268 7030  13.988  -0.558   1.444 -1.2139  3.3901  0.6993
   22MOL   H269 7031  14.159  -0.736   1.463  2.2624 -1.4105  0.5697
   22MOL   H270 7032  14.385  -0.761   1.784  1.5142  1.3521 -0.9589
   22MOL   H271 7033  14.291  -0.864   1.689  1.9496 -0.7823  1.9644
   22MOL   H272 7034  14.259  -0.570   1.864  0.7588 -0.0935 -0.9109
   22MOL   H273 7035  14.078  -0.415   1.841  0.4255  1.7400 -1.0215
   22MOL   C274 7036  14.443  -0.755   1.577 -0.2038  0.5745 -0.8094
   22MOL   C275 7037  14.565  -0.842   1.591  0.1307  0.5852 -0.0113
   22MOL   C276 7038  14.676  -0.801   1.668 -0.4128 -0.5759  0.5036
   22MOL   C277 7039  14.804  -0.867   1.659 -0.0847 -0.1824  0.2525
   22MOL   C278 7040  14.809  -0.987   1.584  0.1767 -0.0776  0.2570
   22MOL   C279 7041  14.947  -1.044   1.558  0.2577  0.2109  0.3524
   22MOL   C280 7042  14.698  -1.029   1.511 -0.2397  0.1497  0.3512
   22MOL   C281 7043  14.574  -0.957   1.512 -0.0026  0.7092 -0.6616
   22MOL   H282 7044  14.392  -0.778   1.484 -2.2056  0.2091  0.3440
   22MOL   H283 7045  14.475  -0.651   1.584 -0.8561  0.7656 -0.6033
   22MOL   H284 7046  14.675  -0.714   1.733  2.2682 -1.1230  1.3685
   22MOL   H285 7047  14.891  -0.811   1.692 -0.4275  0.7081 -0.3274
   22MOL   H286 7048  14.953  -1.115   1.477  1.2093 -1.4264  1.8192
   22MOL   H287 7049  15.001  -0.961   1.514 -1.6760 -0.0766 -2.6704
   22MOL   H288 7050  14.713  -1.107   1.437 -1.5467 -0.3977  0.6443
   22MOL   H289 7051  14.486  -0.988   1.457  2.8416 -1.8105 -3.9565
   22MOL   C290 7052  15.013  -1.107   1.685 -1.0819  0.0363  0.3417
   22MOL   C291 7053  15.153  -1.158   1.652 -0.4624  0.3439 -0.4285
   22MOL   C292 7054  15.185  -1.249   1.547 -0.4137 -0.2273  0.1119
   22MOL   C293 7055  15.313  -1.300   1.526 -0.4959  0.9677 -0.3946
   22MOL   C294 7056  15.415  -1.247   1.608 -0.3938  0.6978  0.0844
   22MOL   C295 7057  15.563  -1.291   1.587 -0.1766 -0.3231  0.8085
   22MOL   C296 7058  15.388  -1.145   1.701 -0.2628 -0.2181 -0.2539
   22MOL   C297 7059  15.259  -1.100   1.727 -0.4498  0.5122  0.4461
   22MOL   H298 7060  14.956  -1.191   1.724 -0.3141  0.1781  1.7969
   22MOL   H299 7061  15.006  -1.042   1.772 -1.0523  1.3023 -0.5755
   22MOL   H300 7062  15.103  -1.287   1.489 -1.3098  0.1328  1.1171
   22MOL   H301 7063  15.337  -1.369   1.446  0.9033  0.5396  0.3830
   22MOL   H302 7064  15.570  -1.310   1.480 -0.6074  5.0763 -0.3456
   22MOL   H303 7065  15.618  -1.200   1.612  1.0134 -0.1587 -2.1317
   22MOL   H304 7066  15.473  -1.092   1.742 -1.1233  0.8425  0.1781
   22MOL   H305 7067  15.232  -1.033   1.807  1.0805 -0.3914  1.7286
   22MOL   C306 7068  15.614  -1.397   1.678 -0.0411  0.0920  1.2500
   22MOL   C307 7069  15.755  -1.444   1.659  0.3771 -0.4210 -0.4234
   22MOL   C308 7070  15.774  -1.559   1.588  0.2528 -0.0671  0.0249
   22MOL   C309 7071  15.906  -1.601   1.554  0.4816  0.1427  0.1871
   22MOL   C310 7072  16.018  -1.542   1.616 -1.1524 -0.7276 -1.0023
   22MOL   C311 7073  16.154  -1.591   1.596  0.1222  0.2449  0.5664
   22MOL   C312 7074  15.994  -1.422   1.698  0.3264  0.2355 -0.6654
   22MOL   C313 7075  15.867  -1.370   1.705  0.3518  0.1567  0.3109
   22MOL   H314 7076  15.548  -1.484   1.673  0.2709 -0.0755 -0.1849
   22MOL   H315 7077  15.621  -1.359   1.780  0.1460 -0.6350  1.5098
   22MOL   H316 7078  15.687  -1.611   1.552  0.1398  1.1544 -1.5504
   22MOL   H317 7079  15.910  -1.693   1.497  2.4852  0.5559 -0.3562
   22MOL   H318 7080  16.147  -1.697   1.621 -0.8576  0.3678  0.8370
   22MOL   H319 7081  16.188  -1.584   1.492  1.1234 -1.1816  0.7846
   22MOL   H320 7082  16.080  -1.373   1.741  0.3155  1.8224 -2.3449
   22MOL   H321 7083  15.842  -1.277   1.753  2.6137  0.8775  0.1392
   22MOL   H322 7084  16.224  -1.542   1.663 -0.9065  1.1453  0.9987
   23MOL     C1 7085   1.094   7.427   2.274 -0.6623 -0.3301  1.0245
   23MOL     C2 7086   0.963   7.489   2.296  0.8526 -0.7922 -0.7073
   23MOL     C3 7087   0.936   7.576   2.405  0.5731  0.0317 -0.0982
   23MOL     C4 7088   0.806   7.631   2.423  0.3540 -0.0919 -0.9051
   23MOL     C5 7089   0.705   7.605   2.332 -1.0717  0.4540 -0.1650
   23MOL     C6 7090   0.567   7.662   2.350 -0.3332 -0.1864 -0.1869
   23MOL     C7 7091   0.729   7.518   2.221 -0.0812 -0.1894  0.0860
   23MOL     C8 7092   0.859   7.457   2.207 -0.5024 -0.0515 -0.1330
   23MOL     H9 7093   1.170   7.455   2.347 -0.1154 -0.1793  0.3928
   23MOL    H10 7094   1.084   7.319   2.269  0.1602 -0.3434 -0.4450
   23MOL    H11 7095   1.018   7.592   2.474  0.2027 -2.4340  0.9905
   23MOL    H12 7096   0.787   7.701   2.503 -0.1745  0.5931 -1.6126
   23MOL    H13 7097   0.514   7.604   2.425  1.5888 -0.7019  0.8087
   23MOL    H14 7098   0.584   7.760   2.396 -1.0738 -0.0401 -0.2236
   23MOL    H15 7099   0.652   7.504   2.147 -1.1942 -0.6946  1.3087
   23MOL    H16 7100   0.882   7.398   2.119 -2.8977 -1.2430  0.0011
   23MOL    H17 7101   1.131   7.449   2.174 -1.8603  2.0623  1.0480
   23MOL    C18 7102   0.478   7.682   2.224 -0.0820  0.5290 -0.7923
   23MOL    C19 7103   0.351   7.771   2.240 -0.3511  0.2591 -1.0650
   23MOL    C20 7104   0.278   7.799   2.128  0.2479  1.3010 -0.6668
   23MOL    C21 7105   0.163   7.876   2.129  0.4642  0.3261 -0.2517
   23MOL    C22 7106   0.124   7.939   2.246  0.8332  0.1743  0.2047
   23MOL    C23 7107  -0.001   8.030   2.259  0.3808  0.5319  0.3233
   23MOL    C24 7108   0.205   7.915   2.360  0.0469 -0.0144 -0.5945
   23MOL    C25 7109   0.318   7.830   2.362 -0.2997 -0.3687 -0.2431
   23MOL    H26 7110   0.543   7.732   2.152  2.7677  0.5845  1.7203
   23MOL    H27 7111   0.453   7.582   2.189 -0.8818  0.5341 -0.2584
   23MOL    H28 7112   0.307   7.751   2.036  1.3374  1.3076 -0.3325
   23MOL    H29 7113   0.116   7.893   2.033 -1.9782 -0.1302  0.8320
   23MOL    H30 7114   0.005   8.118   2.195  0.3658  1.0257  0.9997
   23MOL    H31 7115  -0.009   8.068   2.360 -1.7483 -1.7397  1.0652
   23MOL    H32 7116   0.190   7.976   2.448 -0.9575 -2.3186  0.8974
   23MOL    H33 7117   0.370   7.820   2.456 -1.5375  0.5435  0.5557
   23MOL    C34 7118  -0.127   7.952   2.225  0.1167  0.5592  0.1566
   23MOL    C35 7119  -0.244   8.050   2.227 -0.5970 -0.0638  0.0665
   23MOL    C36 7120  -0.279   8.102   2.108  0.4349 -0.4085 -0.0856
   23MOL    C37 7121  -0.391   8.186   2.095 -0.4138  1.1172  0.0723
   23MOL    C38 7122  -0.462   8.227   2.210 -0.1946 -0.7212 -0.0137
   23MOL    C39 7123  -0.586   8.318   2.197 -0.1064  0.4263 -0.0153
   23MOL    C40 7124  -0.426   8.168   2.333 -0.2930 -0.2991  0.0861
   23MOL    C41 7125  -0.318   8.075   2.343  0.6345  0.1258 -0.4166
   23MOL    H42 7126  -0.144   7.866   2.290 -0.7167  0.3694 -0.3047
   23MOL    H43 7127  -0.122   7.910   2.125 -1.0790  0.0384  0.2981
   23MOL    H44 7128  -0.226   8.073   2.019 -0.4756 -0.2057 -0.6954
   23MOL    H45 7129  -0.428   8.231   2.005  2.5235  3.3041 -0.1297
   23MOL    H46 7130  -0.613   8.368   2.290 -0.1948  3.9285 -1.8314
   23MOL    H47 7131  -0.567   8.402   2.129 -2.8863  0.8391 -0.3393
   23MOL    H48 7132  -0.480   8.190   2.424  2.4018  0.3462  1.5857
   23MOL    H49 7133  -0.306   8.029   2.440 -1.5082  0.4919  0.0528
   23MOL    C50 7134  -0.706   8.237   2.146  0.1378 -0.4929 -0.0576
   23MOL    C51 7135  -0.829   8.329   2.133 -0.5478  0.1438 -0.1751
   23MOL    C52 7136  -0.853   8.401   2.016  0.0171 -0.3199 -0.4494
   23MOL    C53 7137  -0.968   8.483   2.002 -0.1376 -0.0400 -0.4874
   23MOL    C54 7138  -1.057   8.498   2.109 -0.1636 -0.2261 -0.1864
   23MOL    C55 7139  -1.180   8.588   2.107  0.2432  1.6683 -0.4135
   23MOL    C56 7140  -1.034   8.430   2.229 -0.5907  0.0100 -0.0965
   23MOL    C57 7141  -0.920   8.344   2.240 -0.0494  0.0237 -0.3984
   23MOL    H58 7142  -0.717   8.145   2.203  1.8438 -0.1712  0.8405
   23MOL    H59 7143  -0.680   8.203   2.046 -0.9519 -1.2629 -0.0822
   23MOL    H60 7144  -0.765   8.404   1.954  3.0316 -3.8243  3.4554
   23MOL    H61 7145  -0.984   8.531   1.906 -1.2632  1.2108  0.3144
   23MOL    H62 7146  -1.185   8.660   2.188 -1.0252 -0.1779  1.2193
   23MOL    H63 7147  -1.179   8.652   2.019 -0.5177  1.2919 -0.7039
   23MOL    H64 7148  -1.090   8.454   2.318 -2.3844 -0.1827 -1.1371
   23MOL    H65 7149  -0.912   8.287   2.331 -1.0689  0.2798 -0.1345
   23MOL    C66 7150  -1.314   8.507   2.110 -1.2709 -0.0513 -0.4354
   23MOL    C67 7151  -1.441   8.588   2.099 -0.0562  0.0436  0.2210
   23MOL    C68 7152  -1.477   8.673   2.205  0.2448  0.0209 -0.1961
   23MOL    C69 7153  -1.596   8.749   2.202 -0.7618 -0.2856 -0.3138
   23MOL    C70 7154  -1.681   8.742   2.090 -0.2123  0.5977 -0.2990
   23MOL    C71 7155  -1.809   8.832   2.097 -0.5252 -0.2446 -0.7427
   23MOL    C72 7156  -1.648   8.659   1.977 -0.1228  0.0237 -0.1478
   23MOL    C73 7157  -1.525   8.587   1.985 -0.0197 -0.2598  0.0121
   23MOL    H74 7158  -1.324   8.451   2.202 -1.5880  0.0509 -0.4031
   23MOL    H75 7159  -1.303   8.435   2.029 -1.2225  0.9812 -1.3621
   23MOL    H76 7160  -1.405   8.684   2.285 -0.0204 -1.0433  0.2018
   23MOL    H77 7161  -1.610   8.818   2.284  0.2070 -0.0957 -0.2978
   23MOL    H78 7162  -1.805   8.900   2.012 -1.7764  0.5016 -0.2181
   23MOL    H79 7163  -1.806   8.891   2.189 -1.1330 -2.3087  0.6407
   23MOL    H80 7164  -1.717   8.666   1.894 -1.0906 -3.0225  0.3538
   23MOL    H81 7165  -1.493   8.529   1.900  0.5592  1.3818 -0.9096
   23MOL    C82 7166  -1.943   8.750   2.091  0.0205 -0.2692 -0.5385
   23MOL    C83 7167  -2.066   8.841   2.106  0.6551  0.1502  0.0733
   23MOL    C84 7168  -2.146   8.860   1.992 -1.1380  0.5134 -0.0461
   23MOL    C85 7169  -2.276   8.920   2.004 -0.7875  0.9192  0.2635
   23MOL    C86 7170  -2.311   8.981   2.126 -0.3652  0.7774 -0.4893
   23MOL    C87 7171  -2.453   9.045   2.136  0.1860  0.0626 -0.5055
   23MOL    C88 7172  -2.221   8.969   2.240  0.0700  1.2202  0.3412
   23MOL    C89 7173  -2.105   8.894   2.233 -0.0718 -0.5726  0.2471
   23MOL    H90 7174  -1.940   8.688   2.181  0.1691  0.1416 -0.2598
   23MOL    H91 7175  -1.958   8.684   2.006 -2.2159  1.0698 -1.2303
   23MOL    H92 7176  -2.104   8.819   1.901 -0.5597 -0.5080  0.6765
   23MOL    H93 7177  -2.349   8.922   1.925 -0.1585 -0.5029 -0.3754
   23MOL    H94 7178  -2.482   9.092   2.043 -1.7744 -1.4621 -0.7179
   23MOL    H95 7179  -2.457   9.123   2.212  0.2556  0.3817 -0.8299
   23MOL    H96 7180  -2.246   9.013   2.335  0.8153 -2.4822  2.3160
   23MOL    H97 7181  -2.040   8.889   2.319 -1.9019 -1.1282  1.6228
   23MOL    C98 7182  -2.557   8.934   2.165  0.2502 -0.7338  0.3859
   23MOL    C99 7183  -2.693   8.992   2.184  0.1431 -0.1287  0.5004
   23MOL   C100 7184  -2.727   9.054   2.305 -0.3370 -0.7384 -0.4047
   23MOL   C101 7185  -2.851   9.117   2.320 -0.0060  0.2498  0.1115
   23MOL   C102 7186  -2.947   9.117   2.210 -0.0527  0.6195 -0.4975
   23MOL   C103 7187  -3.083   9.187   2.222 -0.2588 -0.9332 -0.1739
   23MOL   C104 7188  -2.909   9.058   2.087  0.3345  0.7698 -0.1754
   23MOL   C105 7189  -2.784   8.993   2.079  0.1805 -0.2981 -0.4062
   23MOL   H106 7190  -2.531   8.889   2.261  2.0063  0.4523  0.4778
   23MOL   H107 7191  -2.568   8.862   2.084 -1.9860  1.9404 -1.8104
   23MOL   H108 7192  -2.654   9.057   2.384  1.5891 -2.2507 -2.0955
   23MOL   H109 7193  -2.874   9.167   2.413  0.0798  2.0231 -0.7929
   23MOL   H110 7194  -3.065   9.278   2.279  1.8158  0.9972 -3.6883
   23MOL   H111 7195  -3.103   9.206   2.117  1.8156 -0.4299 -0.5066
   23MOL   H112 7196  -2.981   9.047   2.007 -0.6852 -0.1947  0.8510
   23MOL   H113 7197  -2.760   8.956   1.980  2.2837  1.5583 -0.6121
   23MOL   C114 7198  -3.194   9.109   2.270 -0.1018  0.6408  0.2256
   23MOL   C115 7199  -3.317   9.196   2.269  0.5006  0.5133 -0.2661
   23MOL   C116 7200  -3.343   9.285   2.374 -0.0336  0.7344 -0.1262
   23MOL   C117 7201  -3.459   9.364   2.378 -0.1854  0.3680  0.3358
   23MOL   C118 7202  -3.543   9.368   2.266  0.7698  0.5477  0.0856
   23MOL   C119 7203  -3.660   9.461   2.274 -0.4905 -0.1712 -0.0956
   23MOL   C120 7204  -3.521   9.288   2.159 -0.7582  0.2365  0.4668
   23MOL   C121 7205  -3.405   9.206   2.153 -0.4547  0.3300  0.5184
   23MOL   H122 7206  -3.160   9.068   2.366 -0.1007 -0.4182 -0.2176
   23MOL   H123 7207  -3.213   9.023   2.206  0.1265  1.7401 -1.3363
   23MOL   H124 7208  -3.278   9.293   2.459 -0.4885  0.5070  0.2460
   23MOL   H125 7209  -3.487   9.422   2.465 -1.7688  0.1933 -0.0545
   23MOL   H126 7210  -3.633   9.549   2.331 -0.7477  0.3056 -0.7020
   23MOL   H127 7211  -3.676   9.502   2.174  1.0056  1.9777  0.5248
   23MOL   H128 7212  -3.581   9.293   2.070  0.2331 -0.0027 -0.2200
   23MOL   H129 7213  -3.389   9.143   2.067  2.2397  1.7063 -0.0594
   23MOL   C130 7214  -3.790   9.378   2.303 -0.2029 -0.0903  0.1125
   23MOL   C131 7215  -3.907   9.475   2.299  0.7306 -0.0186  0.5657
   23MOL   C132 7216  -4.000   9.460   2.190  0.1325  0.4518 -0.3713
   23MOL   C133 7217  -4.110   9.544   2.184 -0.3710 -0.4952  0.0096
   23MOL   C134 7218  -4.134   9.635   2.290  0.1889  0.2072 -0.7192
   23MOL   C135 7219  -4.259   9.719   2.291  0.3273  1.2431 -0.3373
   23MOL   C136 7220  -4.055   9.638   2.405 -0.1020 -0.0188 -0.7636
   23MOL   C137 7221  -3.937   9.562   2.404 -0.3761  0.5942 -0.1205
   23MOL   H138 7222  -3.800   9.346   2.406 -0.4776 -2.2132 -0.5381
   23MOL   H139 7223  -3.807   9.296   2.233  1.3203 -1.2409  1.0620
   23MOL   H140 7224  -3.989   9.388   2.110  1.1850 -3.5643  3.2145
   23MOL   H141 7225  -4.179   9.534   2.101  0.3816 -0.9616 -0.5577
   23MOL   H142 7226  -4.230   9.812   2.339  3.0041  0.0984  0.3676
   23MOL   H143 7227  -4.284   9.746   2.189  1.3649 -1.3420 -1.3136
   23MOL   H144 7228  -4.070   9.712   2.482  0.8021  0.4571 -1.0498
   23MOL   H145 7229  -3.862   9.567   2.482  0.6354  0.5227 -1.0766
   23MOL   C146 7230  -4.376   9.643   2.358 -0.7436  0.0429  0.0908
   23MOL   C147 7231  -4.513   9.715   2.338  0.0440  0.7132  0.2275
   23MOL   C148 7232  -4.545   9.828   2.417  0.2851 -0.0186 -0.2041
   23MOL   C149 7233  -4.672   9.888   2.405 -0.0184  0.0254  0.0273
   23MOL   C150 7234  -4.767   9.836   2.314 -0.3082  0.4078  0.1378
   23MOL   C151 7235  -4.901   9.897   2.309 -0.3840  0.2200  0.0672
   23MOL   C152 7236  -4.737   9.724   2.234  0.0349  0.5069  0.6954
   23MOL   C153 7237  -4.611   9.669   2.246 -0.2163  0.0184 -0.0672
   23MOL   H154 7238  -4.354   9.631   2.464  2.7657  2.5980 -0.2621
   23MOL   H155 7239  -4.376   9.549   2.303 -2.2916  0.1842 -0.1596
   23MOL   H156 7240  -4.475   9.866   2.490  2.7414 -2.7880 -1.0181
   23MOL   H157 7241  -4.702   9.966   2.473 -1.9235 -0.4644 -0.2217
   23MOL   H158 7242  -4.884  10.005   2.308 -0.5531  0.2464 -0.1275
   23MOL   H159 7243  -4.947   9.855   2.219 -0.3993 -0.2701  0.3064
   23MOL   H160 7244  -4.806   9.683   2.163  2.6405 -2.7087 -0.1135
   23MOL   H161 7245  -4.587   9.586   2.181  3.1196  2.0035 -1.4624
   23MOL   C162 7246  -4.986   9.858   2.431  0.6878 -0.3719  0.5749
   23MOL   C163 7247  -5.120   9.927   2.431 -0.9578 -1.1677  0.5765
   23MOL   C164 7248  -5.227   9.856   2.368  0.3948  0.4541  0.0489
   23MOL   C165 7249  -5.353   9.919   2.360  0.4512 -0.3418 -0.0082
   23MOL   C166 7250  -5.376  10.054   2.404 -0.2066  0.8365  0.9214
   23MOL   C167 7251  -5.512  10.112   2.400 -0.2144  0.4617  0.0108
   23MOL   C168 7252  -5.264  10.120   2.460 -0.1854  0.6040  1.1518
   23MOL   C169 7253  -5.140  10.061   2.460  0.0882  0.8651 -0.7885
   23MOL   H170 7254  -4.938   9.884   2.526 -0.5221  0.7759  0.8736
   23MOL   H171 7255  -5.001   9.750   2.440 -2.1047 -0.0811 -0.2050
   23MOL   H172 7256  -5.210   9.753   2.341  2.6335  0.9636 -0.6097
   23MOL   H173 7257  -5.437   9.865   2.319  2.1907 -0.1459 -4.0463
   23MOL   H174 7258  -5.495  10.214   2.366 -1.5678  0.4351 -0.7992
   23MOL   H175 7259  -5.554  10.057   2.316  0.2218 -1.4359  1.0062
   23MOL   H176 7260  -5.272  10.224   2.487 -0.5500  1.2179 -1.2812
   23MOL   H177 7261  -5.056  10.114   2.503 -0.7230 -0.3136  2.4730
   23MOL   C178 7262  -5.592  10.094   2.531  0.0772 -1.1573 -0.3088
   23MOL   C179 7263  -5.733  10.153   2.523 -0.4687  0.0725  0.1254
   23MOL   C180 7264  -5.822  10.088   2.438 -0.5202 -0.7893 -0.2829
   23MOL   C181 7265  -5.950  10.144   2.412  0.0892  0.1056 -0.5709
   23MOL   C182 7266  -5.992  10.260   2.488 -1.2672 -0.0205 -0.3915
   23MOL   C183 7267  -6.132  10.315   2.458  0.4308 -0.0397 -0.1402
   23MOL   C184 7268  -5.899  10.327   2.572  1.0424 -0.4844 -0.3449
   23MOL   C185 7269  -5.771  10.272   2.584  0.6486 -0.0079 -0.2909
   23MOL   H186 7270  -5.538  10.160   2.599  1.0466  0.1623 -2.2958
   23MOL   H187 7271  -5.589   9.989   2.558  1.8200 -0.2797  3.1278
   23MOL   H188 7272  -5.794   9.998   2.385 -0.3219 -0.2271 -1.1492
   23MOL   H189 7273  -6.015  10.095   2.342  0.3420  0.6297 -1.1729
   23MOL   H190 7274  -6.135  10.424   2.451 -2.9627 -0.0848 -0.2075
   23MOL   H191 7275  -6.162  10.285   2.358 -0.3691 -1.7829  0.6076
   23MOL   H192 7276  -5.931  10.420   2.618 -2.6033 -0.7528 -2.2016
   23MOL   H193 7277  -5.700  10.318   2.652  0.4494  1.2474 -0.9116
   23MOL   C194 7278  -6.246  10.264   2.557  0.0038  0.7076  0.1914
   23MOL   C195 7279  -6.379  10.334   2.533  1.1571 -0.2461 -0.2016
   23MOL   C196 7280  -6.390  10.476   2.520 -0.4228 -0.5809  0.0048
   23MOL   C197 7281  -6.514  10.538   2.513  0.0028 -0.2880 -0.5436
   23MOL   C198 7282  -6.627  10.451   2.513 -0.2874  0.0986  0.2517
   23MOL   C199 7283  -6.764  10.506   2.495  0.6860  0.2516 -0.7579
   23MOL   C200 7284  -6.621  10.313   2.539  0.4557 -0.1279  0.4579
   23MOL   C201 7285  -6.497  10.253   2.543  0.1909 -0.1219 -0.0229
   23MOL   H202 7286  -6.219  10.295   2.657  1.2146 -0.0075  0.1009
   23MOL   H203 7287  -6.250  10.155   2.554 -0.0057  0.6580  1.8572
   23MOL   H204 7288  -6.299  10.531   2.536 -1.5432  0.8731  1.6273
   23MOL   H205 7289  -6.522  10.646   2.507 -1.1520 -0.3160  0.1753
   23MOL   H206 7290  -6.809  10.463   2.405  1.8040 -0.7498 -0.8393
   23MOL   H207 7291  -6.824  10.498   2.585  2.2938  3.2755  0.6533
   23MOL   H208 7292  -6.709  10.251   2.532  0.2552  0.1596  0.4328
   23MOL   H209 7293  -6.501  10.147   2.561 -0.8480  0.2716  2.2925
   23MOL   C210 7294  -6.793  10.656   2.455  0.3520 -0.2456  0.5484
   23MOL   C211 7295  -6.942  10.683   2.424  0.4639  0.4261  0.1185
   23MOL   C212 7296  -7.024  10.729   2.529  0.2375  0.2621  0.0527
   23MOL   C213 7297  -7.153  10.764   2.505 -0.5035 -0.1616 -0.0122
   23MOL   C214 7298  -7.211  10.744   2.374 -0.6937  0.0681 -0.2852
   23MOL   C215 7299  -7.357  10.771   2.353  0.6215 -0.2549  0.1586
   23MOL   C216 7300  -7.129  10.695   2.269  0.5543 -0.6380  0.3432
   23MOL   C217 7301  -6.992  10.664   2.296 -0.0431  0.5082 -0.0001
   23MOL   H218 7302  -6.734  10.692   2.371  1.0548 -2.4148  0.1012
   23MOL   H219 7303  -6.767  10.718   2.541 -2.1239  0.1230  1.0610
   23MOL   H220 7304  -6.976  10.729   2.626  0.5415 -2.2957 -0.0741
   23MOL   H221 7305  -7.216  10.805   2.583  0.7648 -1.1744  1.5933
   23MOL   H222 7306  -7.391  10.847   2.424 -1.2073 -0.2604 -0.7044
   23MOL   H223 7307  -7.392  10.802   2.254  0.3727 -1.9510 -0.2941
   23MOL   H224 7308  -7.178  10.677   2.174  0.6321  2.2992 -0.2830
   23MOL   H225 7309  -6.935  10.625   2.213  0.1746 -1.3101  0.9637
   23MOL   C226 7310  -7.432  10.636   2.373  0.8689  0.4417  0.3670
   23MOL   C227 7311  -7.583  10.655   2.368  0.2915 -0.0815  0.0896
   23MOL   C228 7312  -7.651  10.693   2.480  0.3584  0.2043  0.4220
   23MOL   C229 7313  -7.792  10.699   2.474  0.2149 -0.6090 -0.5775
   23MOL   C230 7314  -7.864  10.662   2.353 -0.5262  0.7873  0.2012
   23MOL   C231 7315  -8.018  10.657   2.333 -0.1132  0.2033  0.3782
   23MOL   C232 7316  -7.784  10.624   2.240  0.0056 -0.3207  0.3695
   23MOL   C233 7317  -7.645  10.620   2.246  0.4691 -0.1158 -0.2272
   23MOL   H234 7318  -7.408  10.593   2.471  0.4624 -1.1805 -0.2213
   23MOL   H235 7319  -7.396  10.564   2.299 -0.3557  0.5856 -0.3740
   23MOL   H236 7320  -7.601  10.707   2.575 -0.2679  1.8051  0.5352
   23MOL   H237 7321  -7.847  10.724   2.563 -1.0744  1.6992 -1.9885
   23MOL   H238 7322  -8.033  10.573   2.266 -0.1183  1.5152 -1.2994
   23MOL   H239 7323  -8.061  10.631   2.430  0.3009 -1.7369  0.0544
   23MOL   H240 7324  -7.834  10.607   2.145  1.8114  1.4398 -0.9509
   23MOL   H241 7325  -7.585  10.594   2.160 -0.0592 -0.7237 -0.4185
   23MOL   C242 7326  -8.070  10.792   2.272 -0.6283  0.3592 -0.7334
   23MOL   C243 7327  -8.217  10.798   2.228 -0.2831 -0.2033 -0.3272
   23MOL   C244 7328  -8.325  10.813   2.327 -0.8135  0.1146 -0.0915
   23MOL   C245 7329  -8.456  10.830   2.285 -0.1794  0.1839 -0.2565
   23MOL   C246 7330  -8.483  10.843   2.145  0.3442 -0.5477  0.7112
   23MOL   C247 7331  -8.623  10.872   2.093 -0.1361  0.0614  0.1870
   23MOL   C248 7332  -8.381  10.831   2.049 -0.2668 -0.2833 -0.2788
   23MOL   C249 7333  -8.243  10.815   2.090  0.1560 -0.3055 -0.4932
   23MOL   H250 7334  -8.066  10.862   2.356 -3.2825 -0.2474 -0.0603
   23MOL   H251 7335  -7.994  10.827   2.202  1.3014  0.4655  1.3376
   23MOL   H252 7336  -8.295  10.829   2.429  2.3300 -1.3372 -0.7284
   23MOL   H253 7337  -8.530  10.852   2.360  1.1916  0.3625  1.0484
   23MOL   H254 7338  -8.641  10.978   2.111 -2.0465 -0.3388  0.7160
   23MOL   H255 7339  -8.625  10.850   1.986  1.4355  0.1335  0.1272
   23MOL   H256 7340  -8.396  10.834   1.942  1.5531 -1.0995 -0.5678
   23MOL   H257 7341  -8.162  10.804   2.020  0.6068  1.9701 -0.3562
   23MOL   C258 7342  -8.728  10.775   2.157 -0.8142 -0.4177  0.4434
   23MOL   C259 7343  -8.868  10.810   2.106  0.0139  0.2804 -0.3490
   23MOL   C260 7344  -8.940  10.722   2.016 -0.0316 -0.3793  0.3927
   23MOL   C261 7345  -9.074  10.750   1.978  0.3062 -0.1602  0.5927
   23MOL   C262 7346  -9.139  10.869   2.035 -0.1173  0.1318 -0.0626
   23MOL   C263 7347  -9.286  10.898   2.007  0.7988 -0.8651 -0.6121
   23MOL   C264 7348  -9.069  10.957   2.122  0.5390  0.0990 -0.3108
   23MOL   C265 7349  -8.932  10.926   2.152  0.0447  0.9391  0.5773
   23MOL   H266 7350  -8.730  10.781   2.266  0.6186  0.0609  0.4475
   23MOL   H267 7351  -8.702  10.670   2.143  1.0542 -0.0123  0.7399
   23MOL   H268 7352  -8.890  10.638   1.970  1.0236  0.1645  0.5457
   23MOL   H269 7353  -9.127  10.681   1.914 -4.5414  1.8124  2.2466
   23MOL   H270 7354  -9.331  10.799   2.011  1.4589 -1.0846  2.1589
   23MOL   H271 7355  -9.323  10.960   2.089 -1.2170 -0.5652 -1.7013
   23MOL   H272 7356  -9.115  11.045   2.163  0.3472  0.6202 -1.6052
   23MOL   H273 7357  -8.880  11.000   2.212 -0.6248  0.4382  1.7713
   23MOL   C274 7358  -9.303  10.975   1.873 -0.0723 -0.4949  0.4034
   23MOL   C275 7359  -9.451  11.014   1.862 -0.1336 -1.0494 -0.2233
   23MOL   C276 7360  -9.547  10.927   1.809  0.7755  0.6994  0.0303
   23MOL   C277 7361  -9.687  10.964   1.805  0.2402 -0.1485  0.7587
   23MOL   C278 7362  -9.725  11.093   1.846  0.8015 -0.7955  0.6125
   23MOL   C279 7363  -9.866  11.134   1.831  0.9736  0.3675 -0.0597
   23MOL   C280 7364  -9.626  11.183   1.886  0.0326 -0.2544  0.4398
   23MOL   C281 7365  -9.491  11.148   1.898  0.5978 -0.3005  0.3015
   23MOL   H282 7366  -9.248  11.068   1.882 -2.0912  0.8705 -0.8695
   23MOL   H283 7367  -9.276  10.906   1.793  0.3795  1.1677 -0.9065
   23MOL   H284 7368  -9.514  10.827   1.783 -1.0995 -0.6277  2.5052
   23MOL   H285 7369  -9.750  10.894   1.751  1.2839  0.3449 -1.1606
   23MOL   H286 7370  -9.928  11.044   1.831  1.5315 -0.0250 -0.6951
   23MOL   H287 7371  -9.889  11.186   1.924  1.5176 -1.0377  0.8808
   23MOL   H288 7372  -9.654  11.287   1.893  0.9779  0.0865 -0.7077
   23MOL   H289 7373  -9.418  11.221   1.930 -0.2819  1.2885 -1.2721
   23MOL   C290 7374  -9.897  11.192   1.686  0.2708  0.1877 -0.5972
   23MOL   C291 7375 -10.046  11.235   1.668 -0.2871  0.1884  0.6396
   23MOL   C292 7376 -10.097  11.351   1.730  0.2599  0.3314  0.6286
   23MOL   C293 7377 -10.237  11.376   1.731 -0.5891  0.0356  0.0711
   23MOL   C294 7378 -10.320  11.293   1.656 -0.3302 -0.8627 -0.5494
   23MOL   C295 7379 -10.469  11.325   1.651 -0.1324 -0.9365 -0.4593
   23MOL   C296 7380 -10.267  11.184   1.587  0.6638 -0.1574  0.0731
   23MOL   C297 7381 -10.133  11.151   1.604  0.3080  0.2187 -0.3020
   23MOL   H298 7382  -9.875  11.121   1.607 -1.6081  0.8539 -1.7551
   23MOL   H299 7383  -9.834  11.278   1.661  0.4176  0.2108 -0.1589
   23MOL   H300 7384 -10.030  11.416   1.785  0.3510 -0.7789  1.8403
   23MOL   H301 7385 -10.271  11.461   1.789 -1.3091 -0.5830  0.5709
   23MOL   H302 7386 -10.492  11.408   1.717 -1.1761 -1.1363 -0.5646
   23MOL   H303 7387 -10.502  11.365   1.556 -0.9355 -0.6012 -0.0381
   23MOL   H304 7388 -10.341  11.128   1.532  1.4529 -1.0686 -0.0909
   23MOL   H305 7389 -10.105  11.052   1.570  1.4046  0.2328  0.5019
   23MOL   C306 7390 -10.563  11.212   1.703  0.2798  0.2323 -0.3301
   23MOL   C307 7391 -10.710  11.240   1.710  0.3866  0.8744 -0.3515
   23MOL   C308 7392 -10.786  11.193   1.600 -0.0909  0.4822  0.1902
   23MOL   C309 7393 -10.924  11.218   1.599  0.4028  0.0072  0.1077
   23MOL   C310 7394 -10.986  11.289   1.705 -0.3941 -0.0645  0.4072
   23MOL   C311 7395 -11.134  11.335   1.690 -0.7949  0.1515  0.1982
   23MOL   C312 7396 -10.903  11.332   1.811  0.3082  0.3310  0.7951
   23MOL   C313 7397 -10.768  11.303   1.820  0.5937 -0.2191  0.4105
   23MOL   H314 7398 -10.529  11.212   1.806 -0.0027  0.5219 -0.2357
   23MOL   H315 7399 -10.534  11.115   1.661  0.8047  0.6853 -1.0333
   23MOL   H316 7400 -10.747  11.139   1.515 -2.6494 -0.5187 -0.4191
   23MOL   H317 7401 -10.982  11.190   1.512  0.7494 -0.4368  0.0205
   23MOL   H318 7402 -11.197  11.331   1.779 -0.1922  1.1228  0.6674
   23MOL   H319 7403 -11.144  11.437   1.652 -1.4650 -0.1357 -0.4293
   23MOL   H320 7404 -10.944  11.397   1.886  1.3688  1.6114  0.2852
   23MOL   H321 7405 -10.712  11.344   1.903  0.3917 -0.8662  0.8725
   23MOL   H322 7406 -11.174  11.278   1.605  2.7067 -3.3667  0.7143
   24MOL     C1 7407   4.830   4.309   1.609 -0.4675 -0.0886 -0.0642
   24MOL     C2 7408   4.768   4.356   1.472 -0.6734  0.4394 -0.7452
   24MOL     C3 7409   4.626   4.369   1.470 -0.8189  0.1907 -1.0148
   24MOL     C4 7410   4.572   4.414   1.354  0.4372 -0.2877  0.0389
   24MOL     C5 7411   4.653   4.447   1.240 -0.0128 -0.0372 -0.2269
   24MOL     C6 7412   4.590   4.496   1.114 -0.4757 -0.0721  0.7775
   24MOL     C7 7413   4.790   4.413   1.242 -0.7032 -0.4093 -0.8107
   24MOL     C8 7414   4.849   4.372   1.361  0.2906  0.0629 -0.7979
   24MOL     H9 7415   4.938   4.309   1.597 -0.2434 -0.9628  1.7634
   24MOL    H10 7416   4.799   4.390   1.675  1.9500  2.1198 -1.5505
   24MOL    H11 7417   4.566   4.353   1.559 -1.4639 -1.9102 -1.8214
   24MOL    H12 7418   4.466   4.437   1.362  0.8355  2.1470 -1.2726
   24MOL    H13 7419   4.514   4.569   1.140 -0.7929 -0.3724  0.7016
   24MOL    H14 7420   4.663   4.550   1.053  1.0019 -0.7577  1.8909
   24MOL    H15 7421   4.853   4.422   1.155  1.0823 -0.9859  0.4158
   24MOL    H16 7422   4.956   4.358   1.374 -0.0939 -1.2235  1.1046
   24MOL    H17 7423   4.787   4.211   1.632 -0.0031  0.0424  1.3636
   24MOL    C18 7424   4.528   4.385   1.029  0.6425 -0.2498 -0.0187
   24MOL    C19 7425   4.628   4.317   0.939  0.3946  1.0645 -0.8112
   24MOL    C20 7426   4.637   4.350   0.806 -0.3630 -0.2135  0.1913
   24MOL    C21 7427   4.734   4.291   0.727 -0.6422  0.3134  0.1907
   24MOL    C22 7428   4.824   4.197   0.779  0.0625 -0.3605 -0.1456
   24MOL    C23 7429   4.940   4.143   0.702  0.2796  0.3237  0.1696
   24MOL    C24 7430   4.813   4.161   0.916  0.4388 -0.1322 -0.4232
   24MOL    C25 7431   4.704   4.212   0.990  0.1976 -0.1268 -0.3356
   24MOL    H26 7432   4.469   4.321   1.094  0.5259  0.1432  0.2612
   24MOL    H27 7433   4.454   4.431   0.964  1.0452  0.3016 -0.0958
   24MOL    H28 7434   4.568   4.420   0.761 -0.7266  0.1054  1.2309
   24MOL    H29 7435   4.736   4.312   0.621 -0.8518  0.2703  0.1773
   24MOL    H30 7436   4.994   4.220   0.646  1.2178  0.8198  1.7092
   24MOL    H31 7437   4.908   4.080   0.619 -3.6468  2.5998 -0.1372
   24MOL    H32 7438   4.882   4.092   0.963 -1.4148 -2.8248 -1.4896
   24MOL    H33 7439   4.687   4.185   1.094 -1.7350 -1.0367 -0.8657
   24MOL    C34 7440   5.064   4.089   0.773 -0.3684  0.0785  0.2780
   24MOL    C35 7441   5.186   4.091   0.677  0.5438 -0.5928  0.1334
   24MOL    C36 7442   5.252   4.214   0.659  1.3152  0.5997  0.6336
   24MOL    C37 7443   5.371   4.225   0.577  0.0499  0.6916 -0.2067
   24MOL    C38 7444   5.428   4.109   0.523 -0.9549  0.8476  0.4823
   24MOL    C39 7445   5.561   4.114   0.443 -0.3140  0.5444  0.4452
   24MOL    C40 7446   5.350   3.989   0.527  0.8189  0.1451  0.1799
   24MOL    C41 7447   5.241   3.976   0.616  0.2005 -0.1423  0.1290
   24MOL    H42 7448   5.051   3.986   0.809 -0.3164 -1.1829 -3.1447
   24MOL    H43 7449   5.089   4.170   0.841  0.0246  0.4400 -0.2997
   24MOL    H44 7450   5.210   4.301   0.707  1.4336  0.0019  1.8360
   24MOL    H45 7451   5.422   4.319   0.565 -0.1416  0.4946 -2.8162
   24MOL    H46 7452   5.541   4.124   0.336  1.4559 -2.4833 -0.2287
   24MOL    H47 7453   5.612   4.197   0.490  0.2308  1.0888 -1.0892
   24MOL    H48 7454   5.384   3.896   0.484 -0.9246 -0.4891  0.1423
   24MOL    H49 7455   5.180   3.887   0.625 -3.5307  2.3596  0.4367
   24MOL    C50 7456   5.652   3.990   0.452 -0.7672  0.6509 -0.9315
   24MOL    C51 7457   5.777   4.004   0.362 -0.1023  0.0485  0.2831
   24MOL    C52 7458   5.891   4.075   0.409 -0.2942  0.4419 -0.1286
   24MOL    C53 7459   5.999   4.095   0.325 -0.2973  0.2086  0.2955
   24MOL    C54 7460   5.995   4.056   0.195  0.6941 -1.0387  0.5044
   24MOL    C55 7461   6.108   4.072   0.103  0.0778  0.3680 -0.1864
   24MOL    C56 7462   5.888   3.980   0.142 -0.4416 -0.2767 -0.2209
   24MOL    C57 7463   5.780   3.954   0.229 -0.4755  0.2311  0.8888
   24MOL    H58 7464   5.593   3.903   0.427 -0.9107  0.3901  0.2589
   24MOL    H59 7465   5.688   3.977   0.554  0.3240 -1.5208 -1.5574
   24MOL    H60 7466   5.893   4.113   0.510  2.2876 -2.1909  0.8815
   24MOL    H61 7467   6.091   4.137   0.362  0.7573 -1.3068 -0.5798
   24MOL    H62 7468   6.199   4.106   0.151 -0.1361  1.5839 -0.6213
   24MOL    H63 7469   6.134   3.972   0.069  0.7705  0.7827 -0.9032
   24MOL    H64 7470   5.886   3.943   0.041  0.5432 -0.8165 -0.0534
   24MOL    H65 7471   5.686   3.916   0.192  1.2283  0.0833 -3.5673
   24MOL    C66 7472   6.068   4.146  -0.023 -0.0360  0.1009  0.4877
   24MOL    C67 7473   6.183   4.154  -0.119 -0.0177 -0.2635 -0.0331
   24MOL    C68 7474   6.268   4.269  -0.123  0.3251 -0.1328 -0.2541
   24MOL    C69 7475   6.381   4.267  -0.208 -0.7660 -0.2183 -0.8092
   24MOL    C70 7476   6.408   4.154  -0.291 -0.2272  0.2952 -0.5697
   24MOL    C71 7477   6.530   4.147  -0.382 -0.0438  0.4959 -0.0425
   24MOL    C72 7478   6.314   4.049  -0.293  0.0524 -0.2499  0.0986
   24MOL    C73 7479   6.201   4.055  -0.216  0.3899 -0.3633  0.1997
   24MOL    H74 7480   6.031   4.244   0.006  3.1013  1.1189  1.2292
   24MOL    H75 7481   5.991   4.088  -0.075 -0.1506  0.4619  0.2584
   24MOL    H76 7482   6.257   4.355  -0.058 -0.4824 -1.8857  1.9920
   24MOL    H77 7483   6.457   4.344  -0.211 -1.7845  0.7839 -1.2232
   24MOL    H78 7484   6.564   4.245  -0.418  1.8964  0.5213  1.7638
   24MOL    H79 7485   6.517   4.088  -0.473 -0.5969 -0.4756  0.6569
   24MOL    H80 7486   6.327   3.961  -0.354 -0.5605 -0.6415  0.5108
   24MOL    H81 7487   6.125   3.981  -0.237  1.0051 -1.3735  1.4172
   24MOL    C82 7488   6.645   4.076  -0.299  0.6484 -0.4269 -0.4355
   24MOL    C83 7489   6.781   4.061  -0.366  0.3542  0.2609  0.1918
   24MOL    C84 7490   6.813   3.938  -0.428 -0.8106  0.0693  0.3301
   24MOL    C85 7491   6.929   3.921  -0.506 -0.4360 -0.2506  0.5004
   24MOL    C86 7492   7.024   4.024  -0.500  0.2056 -0.1667 -0.0027
   24MOL    C87 7493   7.152   3.997  -0.570  0.3176 -0.6254  0.0203
   24MOL    C88 7494   6.998   4.147  -0.441 -0.2518 -0.1875  0.1973
   24MOL    C89 7495   6.879   4.167  -0.367 -0.2530  0.7090  0.6478
   24MOL    H90 7496   6.617   3.977  -0.263  0.5784  0.6592  2.7141
   24MOL    H91 7497   6.664   4.128  -0.204 -0.6953  1.0378 -0.9489
   24MOL    H92 7498   6.751   3.852  -0.410  0.6197 -1.0683 -0.0284
   24MOL    H93 7499   6.960   3.831  -0.557  2.0006  1.5743 -1.3720
   24MOL    H94 7500   7.200   4.095  -0.568  0.9616 -0.8722 -2.4287
   24MOL    H95 7501   7.136   3.959  -0.670 -0.5938 -0.3758  0.0702
   24MOL    H96 7502   7.068   4.230  -0.438 -0.8865  0.4039 -1.0003
   24MOL    H97 7503   6.859   4.263  -0.323 -0.1246  1.2054 -0.3697
   24MOL    C98 7504   7.228   3.890  -0.496  0.0516 -0.1951 -0.6970
   24MOL    C99 7505   7.366   3.877  -0.549  0.4904  0.3851  0.5896
   24MOL   C100 7506   7.461   3.981  -0.531 -0.1034 -0.0224  1.0752
   24MOL   C101 7507   7.579   3.968  -0.607 -0.0618 -0.0626 -0.1246
   24MOL   C102 7508   7.612   3.850  -0.681 -0.1449 -0.5118  1.0759
   24MOL   C103 7509   7.750   3.846  -0.736 -0.5621  0.2702  0.3190
   24MOL   C104 7510   7.518   3.749  -0.692  0.3860  0.7405 -0.1738
   24MOL   C105 7511   7.397   3.757  -0.623 -0.8494  0.6082 -0.0902
   24MOL   H106 7512   7.186   3.790  -0.503  2.0377 -1.2738  1.9800
   24MOL   H107 7513   7.225   3.922  -0.392  0.3946 -2.0991 -0.0911
   24MOL   H108 7514   7.441   4.066  -0.469 -1.4033  1.5329 -1.3903
   24MOL   H109 7515   7.655   4.041  -0.586 -2.1030  1.9395  0.4521
   24MOL   H110 7516   7.748   3.813  -0.841  2.3766  4.2979 -1.0957
   24MOL   H111 7517   7.793   3.945  -0.741 -1.4235  0.5541 -3.4124
   24MOL   H112 7518   7.548   3.662  -0.748  1.4343  1.2784 -0.4607
   24MOL   H113 7519   7.332   3.671  -0.630 -0.1082 -0.2707  3.2322
   24MOL   C114 7520   7.830   3.748  -0.644 -0.4122  0.3952 -0.1084
   24MOL   C115 7521   7.975   3.729  -0.694  0.1239  0.5020  0.0946
   24MOL   C116 7522   8.073   3.822  -0.662 -0.1388 -0.0722  0.2764
   24MOL   C117 7523   8.200   3.820  -0.718 -0.1179  0.3374  0.9411
   24MOL   C118 7524   8.230   3.714  -0.808 -0.5550 -0.2518  0.5107
   24MOL   C119 7525   8.370   3.705  -0.866 -0.5993 -0.4793  0.0459
   24MOL   C120 7526   8.135   3.609  -0.835 -0.5228 -0.8473  0.0949
   24MOL   C121 7527   8.006   3.617  -0.780  0.3122  0.4868  0.3607
   24MOL   H122 7528   7.782   3.650  -0.638  1.3589 -0.7346 -2.9619
   24MOL   H123 7529   7.832   3.784  -0.542  0.6716 -0.2903  0.1209
   24MOL   H124 7530   8.054   3.905  -0.596  1.3798  1.3720 -1.0473
   24MOL   H125 7531   8.271   3.899  -0.695 -1.0485  0.9364  1.8230
   24MOL   H126 7532   8.382   3.669  -0.969  1.8095  2.9526 -0.9549
   24MOL   H127 7533   8.413   3.805  -0.873 -3.5452  0.7553 -1.6785
   24MOL   H128 7534   8.155   3.535  -0.912  0.9393 -1.7876  1.3593
   24MOL   H129 7535   7.921   3.552  -0.797 -0.6823  1.0098  3.0642
   24MOL   C130 7536   8.463   3.621  -0.782 -0.0257  0.3917 -0.6333
   24MOL   C131 7537   8.604   3.597  -0.839  0.7182  0.0428  0.5590
   24MOL   C132 7538   8.716   3.678  -0.805  0.4016 -0.2921  0.5493
   24MOL   C133 7539   8.844   3.654  -0.868  0.0609 -0.2061 -0.3541
   24MOL   C134 7540   8.865   3.544  -0.950  0.0095 -0.4422 -0.2449
   24MOL   C135 7541   9.000   3.513  -1.010 -0.4541 -0.0867  1.1357
   24MOL   C136 7542   8.751   3.464  -0.981 -0.6394 -0.2598  0.0948
   24MOL   C137 7543   8.629   3.489  -0.922 -0.2632  0.2989 -0.5283
   24MOL   H138 7544   8.425   3.521  -0.761  0.6668  0.7775  2.8389
   24MOL   H139 7545   8.468   3.670  -0.685  0.2959  2.4222 -1.6450
   24MOL   H140 7546   8.704   3.758  -0.733  0.1115 -0.4919  0.7279
   24MOL   H141 7547   8.922   3.723  -0.837 -1.1701  0.8886  0.3956
   24MOL   H142 7548   8.990   3.480  -1.113  0.3215  0.9075  0.7347
   24MOL   H143 7549   9.061   3.603  -1.001 -2.2098  0.8954  4.1782
   24MOL   H144 7550   8.765   3.376  -1.042 -0.0221  0.5114 -0.8762
   24MOL   H145 7551   8.546   3.423  -0.945  0.1126  0.1829 -1.5988
   24MOL   C146 7552   9.062   3.400  -0.930  1.3062  0.2604  0.6814
   24MOL   C147 7553   9.206   3.370  -0.980 -0.4868 -0.0277 -0.3740
   24MOL   C148 7554   9.311   3.460  -0.965 -0.8150 -0.3730 -0.6512
   24MOL   C149 7555   9.442   3.431  -1.010 -0.3464  0.0726  0.2543
   24MOL   C150 7556   9.476   3.307  -1.073  0.7175 -0.9591  0.1122
   24MOL   C151 7557   9.613   3.290  -1.132 -0.3532 -0.2648  0.5758
   24MOL   C152 7558   9.372   3.210  -1.069 -0.4385  0.4056  0.7982
   24MOL   C153 7559   9.243   3.242  -1.028  0.0165 -0.0736 -0.2066
   24MOL   H154 7560   8.996   3.314  -0.931 -0.9018  1.9257 -0.9648
   24MOL   H155 7561   9.080   3.428  -0.826  0.7505  1.3196  0.5060
   24MOL   H156 7562   9.289   3.558  -0.924  0.3949 -0.8078  1.0784
   24MOL   H157 7563   9.520   3.505  -1.003  1.7828 -1.7123 -3.3268
   24MOL   H158 7564   9.608   3.205  -1.200  1.6222  1.0927 -1.3486
   24MOL   H159 7565   9.639   3.384  -1.180  0.0814 -0.1085  1.1205
   24MOL   H160 7566   9.400   3.113  -1.106  0.0069  0.6269  0.5510
   24MOL   H161 7567   9.172   3.162  -1.045 -1.2042  0.7801  0.8104
   24MOL   C162 7568   9.718   3.250  -1.030 -0.0433 -0.4368 -0.0587
   24MOL   C163 7569   9.855   3.212  -1.087  0.7907 -0.1418 -0.3927
   24MOL   C164 7570   9.966   3.306  -1.080 -0.4064 -0.3299  0.2415
   24MOL   C165 7571  10.083   3.268  -1.140  0.5028  0.0650  0.3576
   24MOL   C166 7572  10.095   3.142  -1.201 -0.1699  0.8836  0.3561
   24MOL   C167 7573  10.232   3.111  -1.257 -0.3698  0.0958  0.4669
   24MOL   C168 7574   9.985   3.058  -1.227 -0.7299 -0.7629  0.5412
   24MOL   C169 7575   9.869   3.092  -1.163 -0.0558 -0.5198 -0.6471
   24MOL   H170 7576   9.675   3.174  -0.965 -0.9708  2.0243  2.3394
   24MOL   H171 7577   9.735   3.336  -0.964 -0.4696 -1.2452  1.1218
   24MOL   H172 7578   9.958   3.395  -1.019  0.0725  0.5806 -1.0042
   24MOL   H173 7579  10.169   3.333  -1.138 -0.3739  1.2097  1.2945
   24MOL   H174 7580  10.229   3.097  -1.365 -0.0155  0.3973  0.4163
   24MOL   H175 7581  10.308   3.188  -1.242  0.9527 -1.0672 -0.1001
   24MOL   H176 7582   9.993   2.973  -1.293  1.4543 -1.3978  1.5550
   24MOL   H177 7583   9.781   3.031  -1.172 -1.4890  1.5961 -1.2971
   24MOL   C178 7584  10.286   2.989  -1.183  0.5109  0.9478  0.4547
   24MOL   C179 7585  10.436   2.954  -1.199  0.1885 -0.0072 -0.3360
   24MOL   C180 7586  10.495   2.931  -1.323 -0.0081  0.4861  0.1701
   24MOL   C181 7587  10.634   2.912  -1.346  0.4319  0.5415  0.0126
   24MOL   C182 7588  10.721   2.903  -1.238  0.4384  0.0860 -0.1530
   24MOL   C183 7589  10.867   2.889  -1.251  0.1774 -0.4634  0.3002
   24MOL   C184 7590  10.663   2.923  -1.109  0.2909  0.4345  0.0958
   24MOL   C185 7591  10.528   2.944  -1.091  0.6042 -0.0608 -0.5049
   24MOL   H186 7592  10.232   2.903  -1.224  0.4902  1.5895 -0.8863
   24MOL   H187 7593  10.266   2.997  -1.076  1.5982 -1.6673  0.8973
   24MOL   H188 7594  10.430   2.934  -1.409  0.2740  4.3241  0.0038
   24MOL   H189 7595  10.669   2.895  -1.447 -0.4449 -0.4256 -0.1346
   24MOL   H190 7596  10.894   2.785  -1.231  0.9205 -0.2288  0.5290
   24MOL   H191 7597  10.892   2.911  -1.355 -1.3249 -0.5478 -0.0944
   24MOL   H192 7598  10.717   2.911  -1.016  1.3627  0.9938 -0.4454
   24MOL   H193 7599  10.488   2.941  -0.991  1.0654  0.4952 -0.3007
   24MOL   C194 7600  10.955   2.980  -1.171  0.1485 -0.0881 -0.1633
   24MOL   C195 7601  11.097   2.978  -1.211  0.4180 -0.2758  0.1266
   24MOL   C196 7602  11.185   2.869  -1.183 -0.6038  0.8493 -0.3537
   24MOL   C197 7603  11.317   2.872  -1.222 -0.0844 -0.7021  0.2732
   24MOL   C198 7604  11.371   2.983  -1.296 -0.0736  0.8979  0.2741
   24MOL   C199 7605  11.521   2.984  -1.318 -0.4330 -0.1279  0.1224
   24MOL   C200 7606  11.286   3.088  -1.333  0.2596  0.1568  0.7002
   24MOL   C201 7607  11.151   3.090  -1.284  0.8690  0.5972  0.5426
   24MOL   H202 7608  10.946   2.969  -1.063  1.3379 -0.9612 -0.1470
   24MOL   H203 7609  10.913   3.074  -1.206 -0.6157 -0.7070 -0.9330
   24MOL   H204 7610  11.149   2.790  -1.118  0.5755 -0.5238 -1.3456
   24MOL   H205 7611  11.385   2.795  -1.187  0.2448 -0.1707  0.8024
   24MOL   H206 7612  11.551   3.081  -1.359  0.7900  0.4899  2.3700
   24MOL   H207 7613  11.571   2.985  -1.221 -2.2755 -0.4703  1.0815
   24MOL   H208 7614  11.320   3.179  -1.381  1.2159  0.5127  2.0317
   24MOL   H209 7615  11.088   3.173  -1.311  2.0316  0.8113 -1.5805
   24MOL   C210 7616  11.570   2.850  -1.383 -0.3166 -0.3025 -0.6265
   24MOL   C211 7617  11.727   2.833  -1.383 -0.4105 -0.4852  0.8217
   24MOL   C212 7618  11.797   2.744  -1.299 -0.0180 -0.1612 -0.4904
   24MOL   C213 7619  11.936   2.724  -1.311  0.1319 -0.3410  0.3523
   24MOL   C214 7620  12.005   2.794  -1.414 -0.0170  0.4611 -0.1186
   24MOL   C215 7621  12.145   2.747  -1.434  0.3482 -0.0268  0.6893
   24MOL   C216 7622  11.937   2.885  -1.504 -0.4997  0.4379 -0.1495
   24MOL   C217 7623  11.801   2.906  -1.482  0.0601  0.1499  0.4852
   24MOL   H218 7624  11.525   2.859  -1.482 -1.0357  1.5799 -0.1546
   24MOL   H219 7625  11.531   2.760  -1.337 -0.6536  0.6563  0.9933
   24MOL   H220 7626  11.746   2.695  -1.217  0.2065 -0.6274 -0.6233
   24MOL   H221 7627  11.993   2.665  -1.240 -0.4032 -2.6837 -1.1009
   24MOL   H222 7628  12.218   2.822  -1.466  1.8444 -1.5768  0.4132
   24MOL   H223 7629  12.191   2.727  -1.337 -0.2116  0.2650  1.0138
   24MOL   H224 7630  11.985   2.935  -1.586 -0.4893  0.1602 -0.3144
   24MOL   H225 7631  11.746   2.972  -1.547  1.0803 -0.5545 -1.1162
   24MOL   C226 7632  12.142   2.615  -1.509 -0.2845  0.1019  0.5748
   24MOL   C227 7633  12.280   2.562  -1.506  0.3344  0.6332 -0.7205
   24MOL   C228 7634  12.375   2.619  -1.590 -0.2254  0.0338 -0.4379
   24MOL   C229 7635  12.511   2.580  -1.581  0.4102  0.6511 -1.1097
   24MOL   C230 7636  12.549   2.472  -1.503 -1.0974  1.1384 -0.6728
   24MOL   C231 7637  12.697   2.440  -1.488 -0.1056  0.2923 -0.5464
   24MOL   C232 7638  12.450   2.413  -1.421 -0.4076 -0.0688  0.0557
   24MOL   C233 7639  12.314   2.449  -1.430  0.7044  0.0303 -0.1905
   24MOL   H234 7640  12.104   2.632  -1.610  1.7695 -1.1195 -0.4343
   24MOL   H235 7641  12.077   2.545  -1.456  0.2374 -1.0863 -0.3174
   24MOL   H236 7642  12.350   2.708  -1.645  0.0707 -0.2276 -0.9942
   24MOL   H237 7643  12.583   2.641  -1.633  0.4223  2.3934  0.8743
   24MOL   H238 7644  12.762   2.521  -1.521  0.3235 -0.1369 -0.7605
   24MOL   H239 7645  12.720   2.426  -1.382 -1.5343 -1.3082 -0.4242
   24MOL   H240 7646  12.493   2.335  -1.360  1.3210  0.7652 -0.0526
   24MOL   H241 7647  12.247   2.410  -1.355  1.8394  1.1961  1.4798
   24MOL   C242 7648  12.747   2.315  -1.567 -0.3587  0.3896 -0.2615
   24MOL   C243 7649  12.900   2.295  -1.566 -0.3468  0.1437  0.3890
   24MOL   C244 7650  12.979   2.363  -1.661  0.2186 -0.2242 -0.4211
   24MOL   C245 7651  13.112   2.326  -1.672 -0.0882  0.2423  0.7052
   24MOL   C246 7652  13.174   2.221  -1.595 -0.1623  0.8003 -0.4942
   24MOL   C247 7653  13.320   2.178  -1.609  0.2354  0.0978  0.0381
   24MOL   C248 7654  13.089   2.146  -1.503 -0.1626 -0.4789 -0.2025
   24MOL   C249 7655  12.952   2.190  -1.489 -0.7579  0.4281  0.7292
   24MOL   H250 7656  12.696   2.225  -1.533  0.6073 -0.3952 -0.8719
   24MOL   H251 7657  12.715   2.337  -1.669 -1.9430 -0.4959  0.0117
   24MOL   H252 7658  12.940   2.442  -1.724  0.5396  0.7014  0.5075
   24MOL   H253 7659  13.164   2.370  -1.756 -0.6047  0.9086  0.7305
   24MOL   H254 7660  13.358   2.186  -1.507  1.6197 -2.1668 -0.2705
   24MOL   H255 7661  13.318   2.071  -1.629 -1.5671  0.3508 -1.2760
   24MOL   H256 7662  13.126   2.070  -1.436  0.8972  0.6077  0.4799
   24MOL   H257 7663  12.891   2.138  -1.417  1.0263 -1.8693  0.6600
   24MOL   C258 7664  13.404   2.253  -1.709 -0.0177 -0.0774 -0.3292
   24MOL   C259 7665  13.554   2.220  -1.719 -0.0048  0.5314  0.2348
   24MOL   C260 7666  13.633   2.285  -1.818  0.0454  0.0735 -0.4453
   24MOL   C261 7667  13.771   2.243  -1.830  0.1407 -0.0049  0.4020
   24MOL   C262 7668  13.833   2.154  -1.738 -0.0729  0.0025 -0.1467
   24MOL   C263 7669  13.979   2.113  -1.756 -0.4175  0.0432  0.1629
   24MOL   C264 7670  13.749   2.090  -1.642  0.0747 -0.3723  0.6924
   24MOL   C265 7671  13.615   2.122  -1.637 -0.3285 -0.3733 -0.1231
   24MOL   H266 7672  13.404   2.355  -1.671 -0.6245 -0.1121 -0.2329
   24MOL   H267 7673  13.366   2.235  -1.809 -0.0390 -1.2403 -0.1247
   24MOL   H268 7674  13.590   2.352  -1.892 -1.6132 -2.7000 -2.0667
   24MOL   H269 7675  13.836   2.286  -1.904 -0.6098  0.4740  0.0160
   24MOL   H270 7676  14.004   2.035  -1.684 -1.8442 -1.7160 -1.2055
   24MOL   H271 7677  14.001   2.054  -1.845  0.1071  0.9242 -0.2953
   24MOL   H272 7678  13.790   2.021  -1.570  2.5956 -0.6563 -0.9436
   24MOL   H273 7679  13.552   2.085  -1.558  0.9468 -2.6001 -0.1107
   24MOL   C274 7680  14.079   2.224  -1.742 -0.9119 -0.0050  0.4562
   24MOL   C275 7681  14.222   2.178  -1.758 -0.9136  0.3177 -0.4413
   24MOL   C276 7682  14.300   2.148  -1.649  0.5676  0.0929 -0.6278
   24MOL   C277 7683  14.427   2.091  -1.654  0.0207  0.1517  0.4417
   24MOL   C278 7684  14.482   2.069  -1.781 -0.3336 -0.3273  0.5258
   24MOL   C279 7685  14.618   2.000  -1.799  0.3059  0.1023 -0.0679
   24MOL   C280 7686  14.410   2.103  -1.897  0.0915  0.0180  0.6861
   24MOL   C281 7687  14.278   2.149  -1.885  0.3066 -0.2318  0.5566
   24MOL   H282 7688  14.066   2.299  -1.820  0.8096  0.9426  1.0454
   24MOL   H283 7689  14.068   2.281  -1.650 -0.9934  0.9683 -0.1492
   24MOL   H284 7690  14.257   2.158  -1.550  0.7105  1.1300 -0.6635
   24MOL   H285 7691  14.479   2.063  -1.563  0.1404 -0.6731  0.1229
   24MOL   H286 7692  14.624   1.912  -1.735 -2.1149 -0.5297 -0.6420
   24MOL   H287 7693  14.617   1.967  -1.903  0.4388 -2.1378  0.6198
   24MOL   H288 7694  14.446   2.067  -1.993  0.1940  3.0769 -0.4765
   24MOL   H289 7695  14.220   2.162  -1.975  1.3448  0.3947 -0.0256
   24MOL   C290 7696  14.734   2.101  -1.792  0.3922  0.1424  0.3479
   24MOL   C291 7697  14.876   2.052  -1.806 -0.0279 -0.3387  0.5663
   24MOL   C292 7698  14.922   2.025  -1.936 -0.2514 -0.4641 -0.1774
   24MOL   C293 7699  15.047   1.969  -1.963 -0.7303 -0.3614  0.3706
   24MOL   C294 7700  15.127   1.932  -1.850 -0.2537 -0.6657 -0.0302
   24MOL   C295 7701  15.266   1.885  -1.870  0.4256  0.0137 -0.7559
   24MOL   C296 7702  15.076   1.950  -1.719 -0.2038 -0.0714 -1.2522
   24MOL   C297 7703  14.955   2.010  -1.697  0.0056 -0.1711  0.0687
   24MOL   H298 7704  14.743   2.140  -1.691 -1.8565  0.2167  0.5231
   24MOL   H299 7705  14.711   2.183  -1.859 -2.1478 -0.1541  0.8318
   24MOL   H300 7706  14.860   2.046  -2.022  0.7184 -0.7485 -0.9707
   24MOL   H301 7707  15.076   1.943  -2.064  0.3344  0.7941  0.3602
   24MOL   H302 7708  15.300   1.830  -1.782 -2.9680  0.7438  1.0891
   24MOL   H303 7709  15.276   1.820  -1.957  1.5821 -1.8426  0.7278
   24MOL   H304 7710  15.129   1.928  -1.628 -0.9756  0.1581 -0.7389
   24MOL   H305 7711  14.915   2.030  -1.599 -0.3503  0.0890 -0.1308
   24MOL   C306 7712  15.365   1.999  -1.908 -0.0455  0.9191 -1.2915
   24MOL   C307 7713  15.502   1.944  -1.934 -0.0740  0.2493 -0.0918
   24MOL   C308 7714  15.528   1.863  -2.052  0.4273 -0.3451 -0.2678
   24MOL   C309 7715  15.655   1.809  -2.068  0.2173 -0.2479 -0.0587
   24MOL   C310 7716  15.757   1.834  -1.976  0.2749 -0.0799 -0.2082
   24MOL   C311 7717  15.899   1.800  -2.015 -0.3148  0.7385 -0.4496
   24MOL   C312 7718  15.731   1.909  -1.856  0.9923 -0.3326  0.6710
   24MOL   C313 7719  15.604   1.957  -1.836 -0.1642  0.0268  0.8359
   24MOL   H314 7720  15.357   2.092  -1.852 -0.6338  0.4531 -0.5971
   24MOL   H315 7721  15.325   2.031  -2.004 -1.9890 -0.5426 -0.9957
   24MOL   H316 7722  15.450   1.843  -2.123 -2.9532  0.4126  3.0363
   24MOL   H317 7723  15.680   1.764  -2.163 -0.9109  0.9557 -0.9514
   24MOL   H318 7724  15.911   1.703  -2.061  0.0635  0.1321  0.9018
   24MOL   H319 7725  15.937   1.874  -2.086  1.0334 -0.3408 -0.8645
   24MOL   H320 7726  15.806   1.936  -1.783  2.4684 -3.8607  0.5361
   24MOL   H321 7727  15.582   2.015  -1.747 -2.7909  0.4320 -0.0417
   24MOL   H322 7728  15.965   1.813  -1.930  1.6742 -0.2067 -1.8299
   25MOL     C1 7729   0.058   0.064   2.773 -0.2331  0.1224 -0.1685
   25MOL     C2 7730   0.200   0.039   2.808 -0.4022 -0.0159 -0.7267
   25MOL     C3 7731   0.307   0.103   2.743  0.6501  0.4741 -0.7310
   25MOL     C4 7732   0.442   0.067   2.769 -0.3392  0.5793 -0.1172
   25MOL     C5 7733   0.478  -0.035   2.865  0.2817 -0.0685 -0.3139
   25MOL     C6 7734   0.619  -0.093   2.884  0.6891 -0.1030 -0.5760
   25MOL     C7 7735   0.373  -0.082   2.945  0.3612  0.1097 -0.3006
   25MOL     C8 7736   0.233  -0.059   2.911 -0.0689  0.3121  0.3219
   25MOL     H9 7737   0.024   0.139   2.844  1.3045  1.3421 -0.6966
   25MOL    H10 7738   0.043   0.109   2.675 -0.2766 -3.5025 -1.9365
   25MOL    H11 7739   0.277   0.189   2.685  1.2749  1.2154  0.0153
   25MOL    H12 7740   0.520   0.105   2.704 -0.6813 -0.1370 -0.9649
   25MOL    H13 7741   0.677  -0.031   2.953 -0.0852 -1.1308  1.0133
   25MOL    H14 7742   0.616  -0.197   2.916  1.0595  0.4661  1.3556
   25MOL    H15 7743   0.377  -0.158   3.022 -0.2542 -0.7487 -1.1049
   25MOL    H16 7744   0.157  -0.115   2.963 -0.3191  0.6957  0.3756
   25MOL    H17 7745  -0.012  -0.018   2.790  0.1154 -1.1556 -4.1520
   25MOL    C18 7746   0.696  -0.105   2.748 -0.1000 -0.0940  0.2058
   25MOL    C19 7747   0.828  -0.162   2.765  0.0991  0.5376  0.3779
   25MOL    C20 7748   0.945  -0.078   2.757 -0.0583  0.7042  0.4145
   25MOL    C21 7749   1.072  -0.130   2.754  0.2733 -0.0151  0.2574
   25MOL    C22 7750   1.089  -0.270   2.761  0.2664  0.1914  0.5971
   25MOL    C23 7751   1.231  -0.331   2.766 -0.1868  0.4499 -0.3177
   25MOL    C24 7752   0.976  -0.356   2.762 -0.6458 -1.0345  0.0203
   25MOL    C25 7753   0.843  -0.304   2.771 -0.5968  0.6285 -0.3335
   25MOL    H26 7754   0.629  -0.161   2.683 -0.9785  0.1739  0.8532
   25MOL    H27 7755   0.715  -0.016   2.688 -0.2128 -0.4684 -0.3820
   25MOL    H28 7756   0.923   0.026   2.739  1.3841  0.8920 -0.3092
   25MOL    H29 7757   1.157  -0.064   2.761  3.2594 -3.4387 -1.7776
   25MOL    H30 7758   1.290  -0.293   2.682  0.9214 -1.5342 -0.4703
   25MOL    H31 7759   1.224  -0.439   2.758  0.8147  0.5611 -3.1021
   25MOL    H32 7760   0.989  -0.463   2.752  0.6277 -0.8623 -0.2315
   25MOL    H33 7761   0.756  -0.368   2.781  0.1567 -0.1061  1.7743
   25MOL    C34 7762   1.315  -0.287   2.891 -0.2421  0.3584  0.4238
   25MOL    C35 7763   1.456  -0.331   2.881 -0.1290  0.1893  0.0350
   25MOL    C36 7764   1.553  -0.238   2.846 -1.3524 -0.4607 -0.5799
   25MOL    C37 7765   1.690  -0.270   2.833  0.2540 -0.0362  0.9369
   25MOL    C38 7766   1.725  -0.405   2.850  0.3329 -0.3480  0.5121
   25MOL    C39 7767   1.868  -0.444   2.831 -0.1530 -0.3947 -0.2728
   25MOL    C40 7768   1.632  -0.502   2.886 -0.3151 -0.1641  0.1657
   25MOL    C41 7769   1.497  -0.465   2.901  0.4328  0.4938  0.2092
   25MOL    H42 7770   1.277  -0.315   2.990 -2.2204  3.2240  0.5697
   25MOL    H43 7771   1.312  -0.178   2.892 -1.5915  0.3528 -1.2867
   25MOL    H44 7772   1.526  -0.133   2.838 -0.7379 -0.2442  0.0550
   25MOL    H45 7773   1.763  -0.195   2.805  0.5627 -0.3086  1.0146
   25MOL    H46 7774   1.878  -0.527   2.761  1.4385 -0.1971 -0.3041
   25MOL    H47 7775   1.910  -0.364   2.770  1.8087  0.0820  1.6294
   25MOL    H48 7776   1.658  -0.606   2.893  2.4545  0.2540 -2.8167
   25MOL    H49 7777   1.423  -0.542   2.916 -0.1701  0.8397 -0.9216
   25MOL    C50 7778   1.959  -0.454   2.959 -0.3181 -0.3162  0.1760
   25MOL    C51 7779   2.104  -0.481   2.917 -0.5090 -0.2783 -0.5711
   25MOL    C52 7780   2.147  -0.613   2.895 -0.5424 -0.2248  0.1585
   25MOL    C53 7781   2.279  -0.645   2.861 -0.1246  0.2417  0.3335
   25MOL    C54 7782   2.369  -0.540   2.832  0.2394  0.3162 -0.0398
   25MOL    C55 7783   2.516  -0.563   2.792  0.3601  0.0715 -0.1873
   25MOL    C56 7784   2.329  -0.405   2.853 -0.6724 -0.8185  0.1905
   25MOL    C57 7785   2.196  -0.376   2.891 -0.5293 -0.7017  1.3581
   25MOL    H58 7786   1.934  -0.544   3.016 -1.1208  1.1929  2.2910
   25MOL    H59 7787   1.948  -0.367   3.023  0.8264 -1.0077  1.3426
   25MOL    H60 7788   2.079  -0.694   2.916  0.7392 -1.5078 -0.5147
   25MOL    H61 7789   2.311  -0.743   2.830  2.4403  1.5724 -1.4776
   25MOL    H62 7790   2.522  -0.631   2.707 -0.1196  0.2925 -0.4009
   25MOL    H63 7791   2.561  -0.471   2.754 -0.7598  0.0926 -1.4839
   25MOL    H64 7792   2.396  -0.321   2.846 -1.9063  0.2328  0.6757
   25MOL    H65 7793   2.172  -0.271   2.897  1.3190 -0.1902  0.2515
   25MOL    C66 7794   2.597  -0.633   2.903  0.6507  0.1430  0.0587
   25MOL    C67 7795   2.736  -0.656   2.857 -0.6756  0.3304 -0.0666
   25MOL    C68 7796   2.801  -0.779   2.883  0.2644 -0.5059  0.1439
   25MOL    C69 7797   2.937  -0.799   2.855 -0.5679  0.2605 -0.6668
   25MOL    C70 7798   3.010  -0.699   2.793  0.5573  0.0847 -0.0312
   25MOL    C71 7799   3.157  -0.732   2.767  0.6084 -0.6841 -0.2716
   25MOL    C72 7800   2.950  -0.570   2.775  0.4937 -0.0562  0.7275
   25MOL    C73 7801   2.814  -0.553   2.800  0.8015  0.5988 -0.2403
   25MOL    H74 7802   2.554  -0.732   2.919 -1.6591  1.0123 -0.5531
   25MOL    H75 7803   2.587  -0.580   2.998  1.3650 -1.2984  0.9527
   25MOL    H76 7804   2.749  -0.857   2.935  1.5332 -1.7603 -0.4322
   25MOL    H77 7805   2.985  -0.891   2.884  0.5133  0.8961 -0.4054
   25MOL    H78 7806   3.203  -0.656   2.704  0.5943 -1.5345 -1.3014
   25MOL    H79 7807   3.161  -0.828   2.716  0.0893 -0.0041 -1.5996
   25MOL    H80 7808   3.004  -0.492   2.724  2.2602  0.3910  3.1870
   25MOL    H81 7809   2.769  -0.458   2.776  2.4380  2.0388  2.1612
   25MOL    C82 7810   3.228  -0.768   2.897  0.0482 -0.6174 -0.5160
   25MOL    C83 7811   3.361  -0.828   2.870 -0.0235 -0.9332  0.2545
   25MOL    C84 7812   3.473  -0.739   2.864  0.2131 -0.0850 -0.5148
   25MOL    C85 7813   3.600  -0.793   2.835  0.1198  0.0961  0.1178
   25MOL    C86 7814   3.622  -0.931   2.832 -0.4512  0.6652 -0.4000
   25MOL    C87 7815   3.766  -0.986   2.806 -0.0492 -0.5257 -0.4195
   25MOL    C88 7816   3.505  -1.013   2.828 -0.4672  0.1140  0.4872
   25MOL    C89 7817   3.377  -0.963   2.857 -0.7818 -0.0822 -0.0119
   25MOL    H90 7818   3.173  -0.846   2.949  1.0447 -0.4817  0.7561
   25MOL    H91 7819   3.233  -0.687   2.970  0.3701 -1.7149  0.6970
   25MOL    H92 7820   3.452  -0.640   2.901 -0.2513 -1.1543  2.2110
   25MOL    H93 7821   3.687  -0.729   2.826 -0.9958  1.7655  1.0129
   25MOL    H94 7822   3.796  -0.955   2.706 -1.2098  0.5391 -0.4545
   25MOL    H95 7823   3.757  -1.095   2.805  0.9881 -0.6173 -0.1213
   25MOL    H96 7824   3.520  -1.118   2.807  0.8764  0.2227  0.8575
   25MOL    H97 7825   3.292  -1.029   2.857 -2.3679  1.8916 -1.8436
   25MOL    C98 7826   3.860  -0.934   2.918 -0.4208  0.2097 -0.0863
   25MOL    C99 7827   3.999  -0.998   2.901  0.1878 -0.9831 -0.4313
   25MOL   C100 7828   4.022  -1.131   2.939 -0.0414 -0.1353  0.1631
   25MOL   C101 7829   4.146  -1.194   2.910 -0.0374 -0.0007 -0.1049
   25MOL   C102 7830   4.251  -1.116   2.847 -0.3169  1.0479 -0.5732
   25MOL   C103 7831   4.380  -1.186   2.811 -0.4813 -0.1946  0.5006
   25MOL   C104 7832   4.227  -0.986   2.803 -0.1399 -0.2535  0.1547
   25MOL   C105 7833   4.104  -0.928   2.835  0.2355  0.9625  0.3504
   25MOL   H106 7834   3.822  -0.934   3.020  1.2530 -0.0436  0.5544
   25MOL   H107 7835   3.882  -0.829   2.895 -0.3101 -0.1288 -1.5387
   25MOL   H108 7836   3.933  -1.182   2.975 -0.0572  0.2726  0.6990
   25MOL   H109 7837   4.157  -1.299   2.932  1.2451  0.6134  2.3841
   25MOL   H110 7838   4.353  -1.291   2.814  0.7092 -0.5020  0.7318
   25MOL   H111 7839   4.418  -1.162   2.712 -0.6849  0.2935  0.5391
   25MOL   H112 7840   4.304  -0.933   2.749  2.0037 -3.9174 -0.5563
   25MOL   H113 7841   4.083  -0.830   2.793 -0.3412  0.1496 -1.2767
   25MOL   C114 7842   4.487  -1.171   2.914 -0.0999 -0.9100 -0.3631
   25MOL   C115 7843   4.617  -1.249   2.879 -0.1676 -0.3248  0.3001
   25MOL   C116 7844   4.645  -1.368   2.958  0.2127 -0.1229  0.1753
   25MOL   C117 7845   4.762  -1.437   2.929  0.0776 -0.6920  0.0243
   25MOL   C118 7846   4.857  -1.383   2.846 -1.1729  0.1585  0.1993
   25MOL   C119 7847   4.989  -1.458   2.837  0.4136 -0.1125 -0.5921
   25MOL   C120 7848   4.843  -1.262   2.777 -0.0002  0.7227  0.6729
   25MOL   C121 7849   4.722  -1.197   2.792 -0.2288  0.9593  0.0428
   25MOL   H122 7850   4.457  -1.200   3.015  0.7950 -3.1505 -0.7163
   25MOL   H123 7851   4.509  -1.064   2.921 -0.6952 -0.8876  1.4321
   25MOL   H124 7852   4.575  -1.415   3.026 -1.1134  0.3135 -0.8546
   25MOL   H125 7853   4.776  -1.520   2.996 -0.5496  0.3155  1.4088
   25MOL   H126 7854   4.964  -1.564   2.846 -0.6326  0.3558  2.7744
   25MOL   H127 7855   5.040  -1.432   2.744 -0.2126  3.3237 -0.0463
   25MOL   H128 7856   4.928  -1.218   2.727 -0.9454 -0.4858 -2.1225
   25MOL   H129 7857   4.698  -1.101   2.749  1.8337  0.1396 -3.0920
   25MOL   C130 7858   5.073  -1.423   2.960  0.3894 -0.2756 -0.1938
   25MOL   C131 7859   5.209  -1.476   2.945  0.2119  0.5782  0.1165
   25MOL   C132 7860   5.292  -1.429   2.846  0.3695  0.8318  0.8078
   25MOL   C133 7861   5.425  -1.486   2.838 -0.3551 -0.1279  0.2764
   25MOL   C134 7862   5.459  -1.599   2.917  0.0533  0.6499  0.0762
   25MOL   C135 7863   5.593  -1.674   2.890 -0.5147  0.3912  0.7509
   25MOL   C136 7864   5.366  -1.644   3.015 -0.2541  0.1290  0.7070
   25MOL   C137 7865   5.247  -1.575   3.033 -0.6764  0.9149 -0.4509
   25MOL   H138 7866   5.020  -1.459   3.048  0.7523  0.6788  0.4213
   25MOL   H139 7867   5.075  -1.315   2.972  1.3045 -0.3264  0.2420
   25MOL   H140 7868   5.252  -1.348   2.788  1.3698  2.2332  2.0470
   25MOL   H141 7869   5.498  -1.454   2.765 -0.3251  0.2251  0.4629
   25MOL   H142 7870   5.574  -1.780   2.870  1.8126 -0.1124  1.0667
   25MOL   H143 7871   5.621  -1.640   2.790  0.7779  3.2233  2.0234
   25MOL   H144 7872   5.387  -1.726   3.081  0.4231  0.4946  0.9494
   25MOL   H145 7873   5.179  -1.602   3.113  0.8767  1.3563  1.0325
   25MOL   C146 7874   5.698  -1.640   2.999  0.4216 -0.1131  0.0798
   25MOL   C147 7875   5.833  -1.713   3.000 -0.8401 -0.3422  0.4440
   25MOL   C148 7876   5.875  -1.788   3.110 -0.2887 -0.3668  0.0033
   25MOL   C149 7877   6.005  -1.840   3.112 -0.0844 -0.3656 -0.6766
   25MOL   C150 7878   6.098  -1.813   3.012 -0.6120 -0.0121 -0.4564
   25MOL   C151 7879   6.236  -1.864   3.016  0.4127  0.2795  0.1487
   25MOL   C152 7880   6.046  -1.749   2.893 -0.8597 -0.3788 -0.2160
   25MOL   C153 7881   5.918  -1.693   2.886  0.1127 -0.1829  0.2304
   25MOL   H154 7882   5.651  -1.672   3.092  2.7404  0.2266  1.3998
   25MOL   H155 7883   5.711  -1.532   3.000 -1.4704  0.1847 -3.0162
   25MOL   H156 7884   5.811  -1.795   3.196  1.8348  2.5933  1.9386
   25MOL   H157 7885   6.039  -1.885   3.204 -0.0169 -0.2511 -0.6447
   25MOL   H158 7886   6.226  -1.967   3.049  1.9320  0.4872  1.3236
   25MOL   H159 7887   6.296  -1.866   2.924 -0.4759 -1.2034 -0.4112
   25MOL   H160 7888   6.117  -1.716   2.819 -1.9680  0.0044 -1.1211
   25MOL   H161 7889   5.887  -1.630   2.803  2.0627  2.0460  1.1588
   25MOL   C162 7890   6.326  -1.787   3.108  0.1869  0.1089 -0.2904
   25MOL   C163 7891   6.457  -1.863   3.128 -0.2847  0.4776  0.0275
   25MOL   C164 7892   6.460  -1.948   3.247 -0.3147  0.1380 -0.5093
   25MOL   C165 7893   6.573  -2.027   3.270 -0.3279  0.2195 -0.2894
   25MOL   C166 7894   6.677  -2.027   3.178 -0.1489  0.3577  0.1118
   25MOL   C167 7895   6.805  -2.104   3.210  0.2846 -0.9252 -0.5605
   25MOL   C168 7896   6.671  -1.943   3.069  0.1249  0.1903  0.8850
   25MOL   C169 7897   6.561  -1.866   3.034 -0.8947 -0.0104 -0.6303
   25MOL   H170 7898   6.286  -1.780   3.209  0.4641 -2.2699 -0.0055
   25MOL   H171 7899   6.343  -1.689   3.063 -0.2716 -0.2107 -1.1659
   25MOL   H172 7900   6.370  -1.951   3.307 -1.2984  1.2940 -1.8637
   25MOL   H173 7901   6.578  -2.093   3.355 -1.7407  0.0346 -0.3327
   25MOL   H174 7902   6.797  -2.159   3.304 -0.8742 -0.5307 -0.4122
   25MOL   H175 7903   6.826  -2.174   3.130  0.6780  0.8607 -2.0541
   25MOL   H176 7904   6.756  -1.941   3.002  0.1305 -3.0751  0.7465
   25MOL   H177 7905   6.564  -1.816   2.939  1.2768  0.0397 -0.5625
   25MOL   C178 7906   6.929  -2.016   3.236  0.4339  0.4199 -0.0571
   25MOL   C179 7907   7.065  -2.094   3.261  0.0222  0.1667 -0.0517
   25MOL   C180 7908   7.178  -2.071   3.182  0.1909 -0.0361 -0.0500
   25MOL   C181 7909   7.296  -2.144   3.211 -0.3328 -0.4608 -0.5283
   25MOL   C182 7910   7.306  -2.231   3.326 -0.1464  0.3625 -0.3972
   25MOL   C183 7911   7.442  -2.293   3.360  0.4877 -0.3417  0.0087
   25MOL   C184 7912   7.188  -2.255   3.402 -0.2338  0.3212  0.2393
   25MOL   C185 7913   7.066  -2.191   3.369 -0.7055 -0.1361  0.5148
   25MOL   H186 7914   6.908  -1.946   3.316 -1.2565 -1.1762  0.9580
   25MOL   H187 7915   6.946  -1.958   3.146  1.8410 -2.9512 -2.0720
   25MOL   H188 7916   7.186  -1.994   3.108 -0.0838 -0.0829 -0.1285
   25MOL   H189 7917   7.378  -2.117   3.146  0.2297 -0.3943  0.1971
   25MOL   H190 7918   7.416  -2.385   3.411 -1.3684 -1.3169 -2.5637
   25MOL   H191 7919   7.482  -2.318   3.262  1.1825  0.9277 -0.0397
   25MOL   H192 7920   7.172  -2.328   3.480 -1.1105  0.0643 -0.1748
   25MOL   H193 7921   6.979  -2.204   3.432 -0.8927  0.1686  0.3258
   25MOL   C194 7922   7.518  -2.199   3.451  0.3057 -0.0540  0.6080
   25MOL   C195 7923   7.661  -2.251   3.466 -0.0727 -0.1300  0.0153
   25MOL   C196 7924   7.693  -2.342   3.570  0.7518  0.7345  0.0881
   25MOL   C197 7925   7.827  -2.395   3.587 -0.2144  0.6023  0.1829
   25MOL   C198 7926   7.921  -2.373   3.485 -0.2997  0.4299  0.8528
   25MOL   C199 7927   8.073  -2.428   3.493  0.4990  0.5540 -0.1231
   25MOL   C200 7928   7.890  -2.279   3.381 -0.9029 -0.1658  0.1455
   25MOL   C201 7929   7.763  -2.221   3.369 -0.1836 -0.2488  0.3667
   25MOL   H202 7930   7.462  -2.187   3.543 -0.9826 -3.1947  0.2876
   25MOL   H203 7931   7.531  -2.095   3.418  0.8341  0.6135  2.8237
   25MOL   H204 7932   7.617  -2.359   3.646  1.0278 -0.8871  0.0298
   25MOL   H205 7933   7.847  -2.461   3.671  0.6539 -1.5877 -1.6929
   25MOL   H206 7934   8.077  -2.502   3.573  0.0027  1.7467  1.0312
   25MOL   H207 7935   8.106  -2.481   3.404 -1.3732 -1.6242  0.4023
   25MOL   H208 7936   7.962  -2.262   3.302 -0.6268  0.1216  0.4545
   25MOL   H209 7937   7.737  -2.160   3.284  2.5587  1.7490  0.9226
   25MOL   C210 7938   8.166  -2.311   3.524 -0.4958  0.8496 -0.6042
   25MOL   C211 7939   8.310  -2.355   3.535  0.4323 -0.1943  0.0561
   25MOL   C212 7940   8.354  -2.445   3.632  0.2145  0.3067  0.7449
   25MOL   C213 7941   8.493  -2.470   3.644 -0.0177  0.1937 -0.5284
   25MOL   C214 7942   8.588  -2.415   3.553 -0.2634  0.0867  0.2139
   25MOL   C215 7943   8.737  -2.449   3.559  0.2794 -0.6065 -0.0857
   25MOL   C216 7944   8.539  -2.326   3.462 -0.1777 -0.0324  0.1444
   25MOL   C217 7945   8.401  -2.298   3.447 -1.0592  0.2557  0.2695
   25MOL   H218 7946   8.136  -2.267   3.619  2.0750  0.0136  0.6517
   25MOL   H219 7947   8.153  -2.226   3.458  1.0957 -1.3248 -3.8302
   25MOL   H220 7948   8.277  -2.494   3.690  0.1217 -0.7255 -0.2451
   25MOL   H221 7949   8.529  -2.544   3.715  0.0651 -0.3509 -1.1299
   25MOL   H222 7950   8.759  -2.527   3.631 -1.1856 -2.3714 -1.4776
   25MOL   H223 7951   8.765  -2.504   3.469  1.8102 -3.0476  1.8442
   25MOL   H224 7952   8.604  -2.266   3.399 -2.6816  1.9143 -0.6583
   25MOL   H225 7953   8.376  -2.238   3.361 -1.3846  0.2191  0.3396
   25MOL   C226 7954   8.835  -2.332   3.579  0.2497 -0.6530 -0.6193
   25MOL   C227 7955   8.979  -2.377   3.564  0.7788 -0.6020 -0.1510
   25MOL   C228 7956   9.045  -2.367   3.440 -0.8825 -0.1830 -0.6201
   25MOL   C229 7957   9.187  -2.397   3.429 -0.3706  0.2406  0.0296
   25MOL   C230 7958   9.250  -2.443   3.546  0.5486  0.6673 -0.1816
   25MOL   C231 7959   9.392  -2.479   3.522  0.4428 -0.5234  0.4495
   25MOL   C232 7960   9.184  -2.459   3.670  0.6543 -1.2790 -0.0251
   25MOL   C233 7961   9.054  -2.418   3.671 -0.3899 -0.1110 -0.3758
   25MOL   H234 7962   8.827  -2.293   3.681  0.1312 -0.1429 -0.8235
   25MOL   H235 7963   8.813  -2.247   3.515 -1.1119 -0.5666 -0.0537
   25MOL   H236 7964   8.992  -2.311   3.365 -1.0042  0.3754 -0.1201
   25MOL   H237 7965   9.243  -2.373   3.340 -2.8921  0.2024 -1.6219
   25MOL   H238 7966   9.427  -2.565   3.581  1.4121 -0.5847 -0.2064
   25MOL   H239 7967   9.406  -2.512   3.419  0.7187 -0.6285  0.5216
   25MOL   H240 7968   9.232  -2.489   3.762  1.0475 -0.1834  0.1306
   25MOL   H241 7969   8.998  -2.417   3.764 -0.3329  1.1819 -0.3509
   25MOL   C242 7970   9.480  -2.347   3.528 -0.2708 -0.0349  0.1816
   25MOL   C243 7971   9.630  -2.373   3.522  0.1924  0.4254 -0.0598
   25MOL   C244 7972   9.722  -2.296   3.599 -0.5008  0.0432 -0.1322
   25MOL   C245 7973   9.864  -2.319   3.598  0.1276  0.1032  0.5807
   25MOL   C246 7974   9.915  -2.414   3.509  0.6425  0.3708  0.3050
   25MOL   C247 7975  10.066  -2.423   3.491  0.2139 -0.2390 -0.6014
   25MOL   C248 7976   9.828  -2.491   3.430  0.0743 -0.3920  0.4079
   25MOL   C249 7977   9.685  -2.470   3.437 -0.2676  0.1336  0.2277
   25MOL   H250 7978   9.454  -2.276   3.449  2.1660  0.1272 -0.5075
   25MOL   H251 7979   9.458  -2.300   3.624 -0.7297 -2.4481  1.2938
   25MOL   H252 7980   9.682  -2.221   3.667 -3.0413 -1.3500 -0.0279
   25MOL   H253 7981   9.930  -2.254   3.652 -0.0621  0.5886  0.2310
   25MOL   H254 7982  10.098  -2.427   3.387 -1.8022  2.8898 -1.3958
   25MOL   H255 7983  10.119  -2.337   3.533  1.4577 -0.3061 -1.9849
   25MOL   H256 7984   9.868  -2.565   3.362 -0.3396 -0.0378 -0.2233
   25MOL   H257 7985   9.624  -2.522   3.365 -0.1287 -1.1867  1.0542
   25MOL   C258 7986  10.129  -2.547   3.568 -0.4440 -0.4500 -0.2120
   25MOL   C259 7987  10.279  -2.544   3.562 -0.2653 -0.6228 -0.1781
   25MOL   C260 7988  10.361  -2.606   3.462 -0.9373 -0.0253  0.3962
   25MOL   C261 7989  10.497  -2.622   3.481  0.2466  0.4532 -0.1357
   25MOL   C262 7990  10.565  -2.566   3.596 -0.6324 -0.1457 -0.4083
   25MOL   C263 7991  10.714  -2.581   3.617 -0.1610  0.1221  0.0309
   25MOL   C264 7992  10.484  -2.495   3.684  0.2436  0.5025 -0.9348
   25MOL   C265 7993  10.345  -2.476   3.665 -0.5702  0.2002  0.3324
   25MOL   H266 7994  10.083  -2.639   3.530 -0.0587  0.4235 -2.8705
   25MOL   H267 7995  10.104  -2.546   3.674  0.2870  0.2324 -0.0399
   25MOL   H268 7996  10.314  -2.655   3.378 -0.5516  0.5924 -0.1887
   25MOL   H269 7997  10.553  -2.665   3.399 -0.1454 -2.2674  0.9791
   25MOL   H270 7998  10.773  -2.577   3.526 -1.4785 -0.8365 -0.8724
   25MOL   H271 7999  10.744  -2.496   3.678 -0.0058 -0.2323  0.4502
   25MOL   H272 8000  10.526  -2.449   3.772  1.3769  0.1423 -1.2732
   25MOL   H273 8001  10.290  -2.417   3.737  0.3314  2.3188 -0.6732
   25MOL   C274 8002  10.757  -2.713   3.702  0.2803  0.3632 -0.1603
   25MOL   C275 8003  10.903  -2.716   3.745  0.2602 -0.0002 -0.0538
   25MOL   C276 8004  10.992  -2.820   3.697 -0.2535 -1.0051  0.0383
   25MOL   C277 8005  11.128  -2.821   3.749 -0.0690 -0.0574  0.1838
   25MOL   C278 8006  11.167  -2.726   3.841 -0.1887  0.0440 -0.8103
   25MOL   C279 8007  11.302  -2.734   3.909  0.0640 -0.7004 -1.0035
   25MOL   C280 8008  11.074  -2.638   3.892  0.1638  0.0490 -0.1737
   25MOL   C281 8009  10.941  -2.637   3.849 -0.4235  0.1609 -0.6309
   25MOL   H282 8010  10.692  -2.728   3.788 -1.9928  2.2296 -1.4929
   25MOL   H283 8011  10.738  -2.805   3.646  1.9019  0.1750 -0.4221
   25MOL   H284 8012  10.955  -2.894   3.627  0.3072 -0.1136 -1.2196
   25MOL   H285 8013  11.198  -2.893   3.709  0.1662  0.7358 -0.8509
   25MOL   H286 8014  11.368  -2.718   3.824 -1.3532  0.0883 -1.9786
   25MOL   H287 8015  11.331  -2.661   3.985  1.6355  0.7995 -2.9991
   25MOL   H288 8016  11.108  -2.582   3.978  0.8725  0.3285 -0.6294
   25MOL   H289 8017  10.875  -2.567   3.898 -1.0906 -0.5679 -0.4717
   25MOL   C290 8018  11.335  -2.863   3.984 -0.2554  0.4489  0.4231
   25MOL   C291 8019  11.483  -2.886   4.018 -0.0025  0.3851 -0.4292
   25MOL   C292 8020  11.535  -2.843   4.140 -0.1329 -0.0043  0.5068
   25MOL   C293 8021  11.669  -2.857   4.167  0.1778  0.1218 -0.6956
   25MOL   C294 8022  11.755  -2.912   4.082  0.0909 -0.5503 -0.3886
   25MOL   C295 8023  11.901  -2.935   4.106 -0.2517 -0.3908 -0.0321
   25MOL   C296 8024  11.704  -2.954   3.957 -0.2284 -0.0699  0.3101
   25MOL   C297 8025  11.566  -2.947   3.925  0.2376 -0.4266 -0.2175
   25MOL   H298 8026  11.311  -2.950   3.923 -1.5124 -0.1310  1.7164
   25MOL   H299 8027  11.271  -2.874   4.072  0.1624  0.6452  0.7560
   25MOL   H300 8028  11.471  -2.803   4.217 -0.1994 -0.7895  0.8605
   25MOL   H301 8029  11.706  -2.814   4.259  0.8602 -0.4024 -0.7177
   25MOL   H302 8030  11.937  -2.984   4.016 -2.5263 -0.7085 -0.7833
   25MOL   H303 8031  11.960  -2.843   4.109  1.6140 -1.5822  2.4045
   25MOL   H304 8032  11.774  -2.995   3.885 -0.2743 -1.0308  0.8176
   25MOL   H305 8033  11.538  -2.979   3.825 -0.5646 -2.2728  0.5790
   25MOL   C306 8034  11.936  -3.017   4.232 -0.8258 -0.4167  0.3680
   25MOL   C307 8035  12.088  -3.055   4.242  0.0791 -0.3293  0.6409
   25MOL   C308 8036  12.124  -3.189   4.219  0.4309  0.3368  0.6867
   25MOL   C309 8037  12.258  -3.218   4.197  1.1690 -0.2452  0.1734
   25MOL   C310 8038  12.358  -3.115   4.208 -0.1964  0.1704  0.4618
   25MOL   C311 8039  12.499  -3.153   4.161  0.2444  0.7981 -0.4086
   25MOL   C312 8040  12.321  -2.978   4.229 -0.3115  0.0159 -0.3463
   25MOL   C313 8041  12.186  -2.953   4.250  0.0867  0.1943 -0.3999
   25MOL   H314 8042  11.877  -3.108   4.224  0.1465 -0.9322 -1.2723
   25MOL   H315 8043  11.901  -2.965   4.322  1.2156 -0.5974  1.2944
   25MOL   H316 8044  12.043  -3.259   4.207 -0.8056  2.3641 -3.7306
   25MOL   H317 8045  12.289  -3.312   4.154  1.8392  0.1934 -0.3223
   25MOL   H318 8046  12.507  -3.155   4.052 -2.7755  0.8643 -0.6763
   25MOL   H319 8047  12.567  -3.078   4.202  0.6273 -1.0736  2.5174
   25MOL   H320 8048  12.392  -2.897   4.235 -0.2508  0.0060 -0.9056
   25MOL   H321 8049  12.140  -2.856   4.267  0.9126  0.4886  0.2029
   25MOL   H322 8050  12.527  -3.252   4.197  1.3790  0.2212 -2.7418
   26MOL     C1 8051   5.945   4.643   0.648 -0.4880  0.4732  0.1983
   26MOL     C2 8052   6.085   4.590   0.635  0.1781  0.5119  0.3498
   26MOL     C3 8053   6.115   4.456   0.608  0.2769 -0.3607 -0.3326
   26MOL     C4 8054   6.249   4.412   0.602  0.3443  0.2201 -0.4434
   26MOL     C5 8055   6.355   4.504   0.628  0.4429 -0.4982 -0.6043
   26MOL     C6 8056   6.505   4.469   0.623  0.1691  0.2245 -0.4134
   26MOL     C7 8057   6.327   4.640   0.664 -0.1047 -0.2188  1.3337
   26MOL     C8 8058   6.192   4.680   0.666  0.7625 -0.2267 -0.6658
   26MOL     H9 8059   5.883   4.632   0.559 -0.5823  2.1930  0.0345
   26MOL    H10 8060   5.898   4.585   0.728  0.2374 -0.6704 -0.2091
   26MOL    H11 8061   6.031   4.389   0.599  0.9904 -1.1400 -1.2682
   26MOL    H12 8062   6.279   4.311   0.581  0.6676 -0.2009  1.9358
   26MOL    H13 8063   6.567   4.530   0.688 -1.8815  0.7966  1.0942
   26MOL    H14 8064   6.516   4.372   0.671  1.2281 -0.2313 -1.5667
   26MOL    H15 8065   6.408   4.710   0.677  1.2656 -2.2737  4.3333
   26MOL    H16 8066   6.178   4.782   0.698  0.7464 -0.2284 -0.6685
   26MOL    H17 8067   5.950   4.752   0.656 -1.2037  0.5823 -0.7274
   26MOL    C18 8068   6.566   4.464   0.484  0.7685  0.3608  0.1235
   26MOL    C19 8069   6.707   4.415   0.479  0.8840 -0.7988  0.2370
   26MOL    C20 8070   6.818   4.503   0.508 -0.5301  0.6181  0.0248
   26MOL    C21 8071   6.949   4.450   0.512  0.3759 -0.1859  0.6632
   26MOL    C22 8072   6.962   4.312   0.478  0.2471  0.5489  0.2116
   26MOL    C23 8073   7.101   4.248   0.467  1.0229 -0.1294  0.2280
   26MOL    C24 8074   6.852   4.227   0.454 -0.6734 -0.6201  0.5736
   26MOL    C25 8075   6.724   4.279   0.453 -0.6774  0.3054 -0.0839
   26MOL    H26 8076   6.509   4.402   0.415  0.0919  1.2624 -0.1363
   26MOL    H27 8077   6.575   4.559   0.430 -0.4555  0.3077 -0.1817
   26MOL    H28 8078   6.800   4.607   0.530  0.4447  0.6192  0.8836
   26MOL    H29 8079   7.038   4.508   0.532 -0.2586 -0.4609  4.7589
   26MOL    H30 8080   7.098   4.140   0.451  0.1761  0.2362 -2.4156
   26MOL    H31 8081   7.158   4.267   0.557  0.3466 -2.4787  1.1819
   26MOL    H32 8082   6.882   4.125   0.435  0.3519 -0.1633 -0.2644
   26MOL    H33 8083   6.645   4.208   0.435  0.2264 -1.0172  1.0673
   26MOL    C34 8084   7.181   4.307   0.349  0.0569 -0.4105 -0.0804
   26MOL    C35 8085   7.324   4.251   0.333  0.3087  0.4771  1.6983
   26MOL    C36 8086   7.428   4.347   0.347 -0.2402 -0.1974  0.0642
   26MOL    C37 8087   7.559   4.295   0.329  0.1587  0.1010  0.1644
   26MOL    C38 8088   7.578   4.162   0.303 -0.1056  0.0030  0.1818
   26MOL    C39 8089   7.722   4.113   0.290  0.5873  0.1708 -0.4810
   26MOL    C40 8090   7.476   4.070   0.294 -0.0247  0.4067 -0.5575
   26MOL    C41 8091   7.345   4.114   0.318 -0.5189  0.6880 -0.1473
   26MOL    H42 8092   7.193   4.414   0.370 -4.2174  0.8754 -3.4852
   26MOL    H43 8093   7.129   4.300   0.254  0.4596 -3.2229 -0.1381
   26MOL    H44 8094   7.417   4.453   0.367  0.4524 -0.3367  1.2902
   26MOL    H45 8095   7.647   4.357   0.338  0.4780 -0.5771  1.8963
   26MOL    H46 8096   7.776   4.193   0.341 -0.9217 -0.2761  1.9188
   26MOL    H47 8097   7.740   4.018   0.341  1.0217  0.3907 -0.2277
   26MOL    H48 8098   7.486   3.962   0.287 -2.8935  0.0709 -0.1406
   26MOL    H49 8099   7.259   4.049   0.322 -0.3054  0.3357 -1.1278
   26MOL    C50 8100   7.779   4.106   0.147  0.2878 -0.0801 -0.1490
   26MOL    C51 8101   7.921   4.059   0.143 -0.5801 -1.2788 -0.3188
   26MOL    C52 8102   8.030   4.153   0.124  0.5544  0.3100 -0.5462
   26MOL    C53 8103   8.168   4.112   0.132  0.7528  0.6746 -0.0094
   26MOL    C54 8104   8.187   3.977   0.145 -0.5672  0.5439  0.7650
   26MOL    C55 8105   8.336   3.926   0.138 -0.4705 -0.1249 -0.9231
   26MOL    C56 8106   8.088   3.881   0.155  0.3557  0.2714 -0.4201
   26MOL    C57 8107   7.951   3.922   0.150  0.6026  0.1497 -0.4006
   26MOL    H58 8108   7.769   4.201   0.093  0.6762 -0.9306 -1.7643
   26MOL    H59 8109   7.716   4.043   0.084 -1.0994  1.6860 -0.5704
   26MOL    H60 8110   8.000   4.256   0.128  0.6708  0.2954  0.9412
   26MOL    H61 8111   8.253   4.176   0.143  1.2228  0.1980 -0.8354
   26MOL    H62 8112   8.403   3.995   0.189 -2.5572  0.1588  1.5531
   26MOL    H63 8113   8.339   3.826   0.183  0.0266 -0.6900 -2.2153
   26MOL    H64 8114   8.116   3.777   0.168  0.5575  0.2460 -1.0234
   26MOL    H65 8115   7.882   3.840   0.161  2.0921 -1.0530  0.1320
   26MOL    C66 8116   8.395   3.916  -0.008 -0.4207  0.4944 -0.0015
   26MOL    C67 8117   8.542   3.875  -0.003  0.6534  0.2903 -0.1602
   26MOL    C68 8118   8.582   3.744  -0.022 -0.4371 -0.6444 -0.1494
   26MOL    C69 8119   8.717   3.710  -0.014 -0.6143  0.5439  0.1234
   26MOL    C70 8120   8.811   3.809   0.016 -0.0514  0.2654  0.3099
   26MOL    C71 8121   8.957   3.770   0.029  0.1638 -0.6645  0.0277
   26MOL    C72 8122   8.768   3.946   0.046 -0.4664 -1.0076 -0.0812
   26MOL    C73 8123   8.633   3.977   0.034  0.0433  0.2111  0.2279
   26MOL    H74 8124   8.384   4.008  -0.066 -2.4789  0.3193  0.0829
   26MOL    H75 8125   8.337   3.851  -0.074 -2.3121  1.7908  0.3189
   26MOL    H76 8126   8.507   3.667  -0.030  0.5714 -1.6290 -0.3839
   26MOL    H77 8127   8.756   3.610  -0.027  0.1177  0.9473 -0.7830
   26MOL    H78 8128   8.969   3.674   0.080 -1.8699 -1.3546 -0.7710
   26MOL    H79 8129   9.005   3.850   0.084 -0.8052  0.6709 -1.0391
   26MOL    H80 8130   8.837   4.028   0.063 -0.8388 -0.8104  0.4780
   26MOL    H81 8131   8.609   4.081   0.048  0.0542  0.5142 -1.8753
   26MOL    C82 8132   9.016   3.770  -0.114  0.1618  0.6668  1.5355
   26MOL    C83 8133   9.162   3.737  -0.119 -0.0556  0.5237  0.1632
   26MOL    C84 8134   9.202   3.605  -0.111 -0.6089 -0.4295  0.2587
   26MOL    C85 8135   9.342   3.577  -0.120  0.0318  0.4202 -0.5644
   26MOL    C86 8136   9.433   3.680  -0.135 -0.1733  0.0076 -0.5364
   26MOL    C87 8137   9.582   3.648  -0.141  0.1152  0.1205  0.4461
   26MOL    C88 8138   9.394   3.815  -0.153 -0.1485 -0.4930 -0.7870
   26MOL    C89 8139   9.259   3.838  -0.139  0.4177  0.1688 -0.0459
   26MOL    H90 8140   9.014   3.870  -0.156 -0.4221 -0.0893 -0.2919
   26MOL    H91 8141   8.956   3.712  -0.184 -0.4042  1.3320  1.4696
   26MOL    H92 8142   9.129   3.526  -0.104  1.5372 -2.5605 -0.8715
   26MOL    H93 8143   9.381   3.476  -0.114  0.6687  0.6998  0.1987
   26MOL    H94 8144   9.590   3.581  -0.056 -0.0957 -0.6579 -0.1487
   26MOL    H95 8145   9.641   3.738  -0.120 -0.0263  0.4834 -0.7061
   26MOL    H96 8146   9.465   3.896  -0.159 -0.5568 -0.0399  0.3640
   26MOL    H97 8147   9.222   3.939  -0.143  1.1152  0.3500 -3.1357
   26MOL    C98 8148   9.623   3.586  -0.277 -0.0022 -0.3717  0.6464
   26MOL    C99 8149   9.772   3.556  -0.275  0.5513  0.0836  0.1186
   26MOL   C100 8150   9.807   3.421  -0.280 -0.0590 -0.2829 -0.5650
   26MOL   C101 8151   9.942   3.387  -0.305  0.8087 -0.9592 -0.7772
   26MOL   C102 8152  10.037   3.490  -0.321 -0.2070 -0.3006  0.0320
   26MOL   C103 8153  10.186   3.462  -0.334  0.4979  0.3955  0.0996
   26MOL   C104 8154  10.002   3.627  -0.303  0.4164 -0.3534  0.0986
   26MOL   C105 8155   9.867   3.656  -0.278  0.2101  0.0055 -0.4631
   26MOL   H106 8156   9.594   3.652  -0.358  0.4042 -1.5148 -0.4563
   26MOL   H107 8157   9.558   3.499  -0.287  0.0950 -0.7297  2.7414
   26MOL   H108 8158   9.725   3.351  -0.275  1.0434 -1.5094  0.3061
   26MOL   H109 8159   9.969   3.282  -0.299  2.1465 -0.5261  1.5145
   26MOL   H110 8160  10.230   3.529  -0.407  1.5838 -0.6503 -0.2334
   26MOL   H111 8161  10.231   3.494  -0.240  2.0511  1.3245 -0.9324
   26MOL   H112 8162  10.073   3.708  -0.313  0.2935 -0.2018  0.4396
   26MOL   H113 8163   9.825   3.755  -0.277 -1.1013 -0.5352 -1.0558
   26MOL   C114 8164  10.229   3.324  -0.382 -0.5084 -0.1375 -0.6199
   26MOL   C115 8165  10.380   3.319  -0.383 -0.2821 -0.2660  0.3792
   26MOL   C116 8166  10.446   3.278  -0.264 -0.5366  0.1320 -0.4628
   26MOL   C117 8167  10.584   3.281  -0.262 -0.0408  0.0078  0.1723
   26MOL   C118 8168  10.661   3.316  -0.371 -0.8147  0.2863  0.2776
   26MOL   C119 8169  10.814   3.305  -0.371  0.3786 -0.1836 -0.6791
   26MOL   C120 8170  10.597   3.354  -0.493  1.2559  0.5275  0.7792
   26MOL   C121 8171  10.456   3.362  -0.496  0.1701 -0.7201 -0.2470
   26MOL   H122 8172  10.181   3.304  -0.478 -0.7574 -1.4010 -0.2370
   26MOL   H123 8173  10.188   3.252  -0.312 -0.3679  1.1682  0.8306
   26MOL   H124 8174  10.381   3.267  -0.179 -3.7655 -2.0443 -3.0319
   26MOL   H125 8175  10.635   3.257  -0.170 -1.3792 -0.5597  0.7828
   26MOL   H126 8176  10.841   3.404  -0.406 -2.0999  0.6035 -0.4558
   26MOL   H127 8177  10.863   3.284  -0.276 -1.4422 -1.8047 -0.0591
   26MOL   H128 8178  10.657   3.369  -0.582 -0.2432  1.5483 -0.0879
   26MOL   H129 8179  10.408   3.394  -0.587 -0.6985  0.7647  0.6972
   26MOL   C130 8180  10.865   3.189  -0.458 -0.2881  0.0517 -0.0437
   26MOL   C131 8181  11.013   3.181  -0.461  0.0447 -0.2068 -0.3027
   26MOL   C132 8182  11.077   3.242  -0.563  0.6156 -0.2873  0.0908
   26MOL   C133 8183  11.219   3.227  -0.581  1.2209  0.3968 -0.4745
   26MOL   C134 8184  11.285   3.155  -0.485 -0.3307  0.2645  1.0477
   26MOL   C135 8185  11.437   3.149  -0.509  0.1521  0.3051  0.0788
   26MOL   C136 8186  11.224   3.084  -0.376  0.2588 -0.5075 -0.5561
   26MOL   C137 8187  11.081   3.095  -0.372  0.2032  0.4809  0.1831
   26MOL   H138 8188  10.830   3.207  -0.560 -2.2348  0.5684  0.6915
   26MOL   H139 8189  10.823   3.095  -0.424  1.5728 -0.9048 -0.3170
   26MOL   H140 8190  11.035   3.313  -0.632  0.2406 -0.8301 -0.2400
   26MOL   H141 8191  11.267   3.289  -0.655  0.4703  2.1973  0.5228
   26MOL   H142 8192  11.474   3.054  -0.470  1.3894  0.4096 -0.7987
   26MOL   H143 8193  11.449   3.155  -0.618  0.0977  1.7209  0.1392
   26MOL   H144 8194  11.274   3.027  -0.298 -0.5079  0.2959  0.5293
   26MOL   H145 8195  11.035   3.029  -0.300  0.2795 -0.0970 -0.2978
   26MOL   C146 8196  11.521   3.264  -0.469  0.4094 -0.1008 -0.1342
   26MOL   C147 8197  11.669   3.234  -0.507 -0.1391 -0.2466  0.0139
   26MOL   C148 8198  11.711   3.229  -0.639 -0.1000 -0.8121  0.3782
   26MOL   C149 8199  11.846   3.202  -0.674  0.5624  0.4150  0.0014
   26MOL   C150 8200  11.944   3.187  -0.571  0.5440  0.3159  0.4957
   26MOL   C151 8201  12.085   3.163  -0.616 -1.2171 -0.6806  0.1858
   26MOL   C152 8202  11.898   3.191  -0.435  0.3786 -0.4532 -0.3471
   26MOL   C153 8203  11.765   3.218  -0.406  0.0255  0.0863  0.1362
   26MOL   H154 8204  11.510   3.273  -0.361  0.6732  0.3150 -0.1398
   26MOL   H155 8205  11.490   3.360  -0.512 -1.8549 -1.0345 -0.6872
   26MOL   H156 8206  11.642   3.246  -0.720  1.8218 -1.0268 -1.3325
   26MOL   H157 8207  11.872   3.207  -0.779  1.4030  0.8248  0.2238
   26MOL   H158 8208  12.122   3.261  -0.648 -0.7814 -0.7759  0.3913
   26MOL   H159 8209  12.150   3.145  -0.530  0.1969  0.4893 -0.6057
   26MOL   H160 8210  11.963   3.168  -0.351 -0.9848  0.2779  0.9291
   26MOL   H161 8211  11.729   3.209  -0.304 -0.2971  0.5082  0.0627
   26MOL   C162 8212  12.115   3.055  -0.718  0.0428  0.0292  0.1020
   26MOL   C163 8213  12.266   3.036  -0.759  0.0941 -0.7363  0.2631
   26MOL   C164 8214  12.359   2.978  -0.676 -0.6799  0.0362 -0.3273
   26MOL   C165 8215  12.499   2.979  -0.710 -0.3672 -0.0237 -0.1059
   26MOL   C166 8216  12.540   3.043  -0.831  0.2921 -0.3270  0.0148
   26MOL   C167 8217  12.685   3.039  -0.875 -0.5121  0.3044  1.6055
   26MOL   C168 8218  12.442   3.100  -0.918 -1.0529  0.2907  0.1548
   26MOL   C169 8219  12.304   3.096  -0.884 -0.1036  0.2120 -1.0455
   26MOL   H170 8220  12.046   3.050  -0.803 -1.4059  0.2156  1.2526
   26MOL   H171 8221  12.085   2.964  -0.665 -1.1374  1.1285  1.3641
   26MOL   H172 8222  12.330   2.936  -0.581 -0.5597  0.4652 -0.0989
   26MOL   H173 8223  12.579   2.938  -0.650 -2.8230 -2.2039  1.7763
   26MOL   H174 8224  12.691   3.119  -0.949 -1.0176 -0.7731  0.3583
   26MOL   H175 8225  12.751   3.063  -0.793  0.4608  1.5928  0.4644
   26MOL   H176 8226  12.486   3.144  -1.006  0.4275  3.6785  2.5096
   26MOL   H177 8227  12.230   3.148  -0.943 -3.0645 -2.9296 -0.2856
   26MOL   C178 8228  12.730   2.903  -0.942 -0.2454 -0.0368  0.1768
   26MOL   C179 8229  12.881   2.912  -0.990 -0.1794  0.2945  0.6926
   26MOL   C180 8230  12.986   2.893  -0.894  0.9125  0.2168 -0.4736
   26MOL   C181 8231  13.118   2.873  -0.940 -0.4726  0.1167 -0.2235
   26MOL   C182 8232  13.153   2.907  -1.072  0.8731  0.3539  0.1616
   26MOL   C183 8233  13.306   2.894  -1.118  0.1676  0.0373 -0.2829
   26MOL   C184 8234  13.050   2.939  -1.168  0.2629  0.0682  0.5086
   26MOL   C185 8235  12.915   2.943  -1.120  0.1853  0.0116 -0.4570
   26MOL   H186 8236  12.657   2.887  -1.021 -0.6616  3.1003 -0.1271
   26MOL   H187 8237  12.721   2.826  -0.866 -0.7561 -0.9349 -0.7902
   26MOL   H188 8238  12.954   2.859  -0.796 -0.1032 -0.2432 -0.9609
   26MOL   H189 8239  13.196   2.838  -0.875  1.8838 -0.7689 -3.3861
   26MOL   H190 8240  13.311   2.900  -1.227 -3.5214  2.7429 -0.3913
   26MOL   H191 8241  13.359   2.981  -1.079 -1.8291  0.4555  1.5415
   26MOL   H192 8242  13.074   2.943  -1.273 -1.9934 -1.8435 -0.1285
   26MOL   H193 8243  12.837   2.966  -1.191 -0.2450 -0.5990 -0.1893
   26MOL   C194 8244  13.362   2.756  -1.103  0.7074 -0.2933 -0.2363
   26MOL   C195 8245  13.506   2.733  -1.140 -0.0544 -0.2367  0.0476
   26MOL   C196 8246  13.548   2.747  -1.270  0.3282 -0.7256 -0.3102
   26MOL   C197 8247  13.679   2.721  -1.315  1.4527  0.7621 -0.5897
   26MOL   C198 8248  13.778   2.708  -1.210 -0.1480 -0.2394 -0.1295
   26MOL   C199 8249  13.924   2.679  -1.245 -0.1190 -0.1721  0.1712
   26MOL   C200 8250  13.743   2.707  -1.073  0.0087 -0.3689  0.2395
   26MOL   C201 8251  13.605   2.709  -1.042 -0.0456  0.1104 -0.2252
   26MOL   H202 8252  13.301   2.685  -1.159  0.2400 -1.0020  1.1512
   26MOL   H203 8253  13.354   2.735  -0.996  1.9195  1.6664  0.2604
   26MOL   H204 8254  13.484   2.779  -1.351  0.5824 -1.5144 -0.8312
   26MOL   H205 8255  13.702   2.713  -1.421  1.6341  1.3767 -0.6011
   26MOL   H206 8256  13.993   2.686  -1.161 -1.5431 -0.9546  1.4303
   26MOL   H207 8257  13.926   2.579  -1.288  0.0084  1.1329 -2.9540
   26MOL   H208 8258  13.811   2.711  -0.989 -0.2044  3.3544  0.3125
   26MOL   H209 8259  13.576   2.701  -0.938  0.1676  0.2392 -0.1546
   26MOL   C210 8260  13.973   2.784  -1.348 -0.4028  0.3885 -0.0946
   26MOL   C211 8261  14.129   2.770  -1.375  0.6494  0.2534  0.2985
   26MOL   C212 8262  14.214   2.879  -1.396 -0.2388  0.7683 -0.2580
   26MOL   C213 8263  14.354   2.861  -1.438  0.9361 -0.0207 -0.0157
   26MOL   C214 8264  14.398   2.729  -1.468  0.3249 -0.1385  0.0251
   26MOL   C215 8265  14.534   2.696  -1.532 -0.8690  0.3184  0.2596
   26MOL   C216 8266  14.308   2.620  -1.441  0.3133  0.6230  0.6576
   26MOL   C217 8267  14.176   2.634  -1.391 -0.1108  0.5279  0.1882
   26MOL   H218 8268  13.952   2.886  -1.316 -1.8803  0.4286 -1.1414
   26MOL   H219 8269  13.923   2.792  -1.444 -0.0550  3.0085 -0.0832
   26MOL   H220 8270  14.168   2.977  -1.384 -0.8494  0.1564  3.1082
   26MOL   H221 8271  14.415   2.948  -1.459 -1.8144  1.4732 -2.3962
   26MOL   H222 8272  14.527   2.595  -1.573 -0.0335  0.5932 -0.5743
   26MOL   H223 8273  14.571   2.748  -1.621 -2.1215  1.4310  0.3836
   26MOL   H224 8274  14.339   2.521  -1.472  0.2494  0.0868  2.2677
   26MOL   H225 8275  14.126   2.539  -1.379  1.5812 -0.5763 -1.3843
   26MOL   C226 8276  14.655   2.718  -1.435  0.5194 -0.1446  0.0854
   26MOL   C227 8277  14.786   2.681  -1.493  0.4936  0.2543  0.0204
   26MOL   C228 8278  14.803   2.546  -1.531 -0.0901  0.7575  0.0945
   26MOL   C229 8279  14.930   2.497  -1.576  0.3595 -0.1165 -0.1602
   26MOL   C230 8280  15.038   2.585  -1.593  0.6888  0.5910 -0.7791
   26MOL   C231 8281  15.171   2.519  -1.635 -0.3005 -0.7196  0.1198
   26MOL   C232 8282  15.017   2.723  -1.558  0.1163 -0.2524 -0.2806
   26MOL   C233 8283  14.895   2.767  -1.507 -0.1113  0.3074 -0.5967
   26MOL   H234 8284  14.644   2.650  -1.351  0.8129 -1.6387 -1.0404
   26MOL   H235 8285  14.668   2.817  -1.392  2.5817 -1.5347  2.8145
   26MOL   H236 8286  14.716   2.486  -1.509  1.3467 -1.5687 -0.3954
   26MOL   H237 8287  14.945   2.390  -1.587  0.8314 -0.5922  4.1501
   26MOL   H238 8288  15.162   2.416  -1.668 -2.3338 -0.3808 -0.4205
   26MOL   H239 8289  15.222   2.577  -1.711  1.5295  0.3237  2.0729
   26MOL   H240 8290  15.095   2.794  -1.583 -0.0569 -0.2873 -0.9515
   26MOL   H241 8291  14.887   2.871  -1.480 -0.2608 -0.0995  0.9700
   26MOL   C242 8292  15.277   2.522  -1.517  0.4756 -0.4074  0.2640
   26MOL   C243 8293  15.405   2.474  -1.576 -0.5616  0.2391  0.0512
   26MOL   C244 8294  15.491   2.566  -1.635  0.3717 -0.5444 -0.9050
   26MOL   C245 8295  15.606   2.518  -1.688  0.3954  0.1751  0.6192
   26MOL   C246 8296  15.640   2.384  -1.696 -0.4982 -0.2905 -0.0678
   26MOL   C247 8297  15.772   2.344  -1.751 -0.3464 -0.3794  0.2736
   26MOL   C248 8298  15.553   2.288  -1.634 -0.0513 -0.2525 -0.2364
   26MOL   C249 8299  15.430   2.331  -1.583 -0.2335  0.3074 -0.0962
   26MOL   H250 8300  15.286   2.619  -1.467 -2.1670  0.7367 -1.3875
   26MOL   H251 8301  15.245   2.449  -1.443  0.8710 -0.3528  0.4897
   26MOL   H252 8302  15.474   2.672  -1.641 -1.9943 -0.9680 -2.2951
   26MOL   H253 8303  15.659   2.598  -1.736  2.7104 -0.8415  1.4263
   26MOL   H254 8304  15.769   2.238  -1.777  0.4192 -0.3495  0.0356
   26MOL   H255 8305  15.784   2.411  -1.837  0.1189 -0.3917  0.3253
   26MOL   H256 8306  15.588   2.188  -1.615  0.9669  0.2903  0.8185
   26MOL   H257 8307  15.359   2.269  -1.530  0.5665 -1.2275 -0.8214
   26MOL   C258 8308  15.885   2.363  -1.645 -0.4344 -0.3604 -0.1798
   26MOL   C259 8309  16.015   2.313  -1.694 -0.0991  0.1253  0.5732
   26MOL   C260 8310  16.096   2.401  -1.759  0.4748 -0.5000  0.1984
   26MOL   C261 8311  16.215   2.352  -1.827 -0.4083 -0.0643  0.0378
   26MOL   C262 8312  16.249   2.220  -1.811  0.4066 -0.2452  0.2463
   26MOL   C263 8313  16.377   2.171  -1.871 -0.3333  0.0135  0.2114
   26MOL   C264 8314  16.162   2.133  -1.740  0.1533 -0.3781 -0.1655
   26MOL   C265 8315  16.046   2.176  -1.685 -0.5474 -0.6145 -0.7324
   26MOL   H266 8316  15.876   2.308  -1.551  0.7685 -0.7509 -0.2745
   26MOL   H267 8317  15.895   2.466  -1.613 -1.0384 -1.2668  3.1278
   26MOL   H268 8318  16.060   2.502  -1.775  0.2567 -0.4739  0.8510
   26MOL   H269 8319  16.276   2.412  -1.892  0.5311  0.6722  1.5753
   26MOL   H270 8320  16.364   2.063  -1.873 -1.0148  0.0994 -0.6162
   26MOL   H271 8321  16.386   2.194  -1.977  1.1156  1.5403  0.6435
   26MOL   H272 8322  16.171   2.025  -1.749  0.1202 -0.2583 -1.6867
   26MOL   H273 8323  15.975   2.107  -1.641  0.2571 -0.4182  0.9182
   26MOL   C274 8324  16.501   2.214  -1.786  0.1098  0.3253  1.0626
   26MOL   C275 8325  16.627   2.158  -1.840  0.2083  0.7116  0.5767
   26MOL   C276 8326  16.723   2.227  -1.904  0.3262 -0.5410 -0.2971
   26MOL   C277 8327  16.842   2.172  -1.947  0.7958  0.5752 -0.8719
   26MOL   C278 8328  16.864   2.035  -1.923 -0.4211 -0.0567 -0.0365
   26MOL   C279 8329  16.986   1.972  -1.984 -0.2914  0.0147 -0.7372
   26MOL   C280 8330  16.772   1.958  -1.864  0.9873  0.0423  0.1520
   26MOL   C281 8331  16.650   2.018  -1.816  0.1615  0.7801 -0.0122
   26MOL   H282 8332  16.510   2.321  -1.764 -1.9951  0.6421  0.5298
   26MOL   H283 8333  16.483   2.174  -1.686 -1.7449  3.0008  1.8529
   26MOL   H284 8334  16.700   2.328  -1.937 -0.6768 -0.7412 -0.2455
   26MOL   H285 8335  16.910   2.229  -2.009  1.0127  1.4067  0.1149
   26MOL   H286 8336  16.973   1.866  -2.007  1.5978 -1.1921  3.3200
   26MOL   H287 8337  17.014   2.032  -2.071  1.7948  0.3160  0.0947
   26MOL   H288 8338  16.792   1.853  -1.846  0.6674  0.3293  2.2357
   26MOL   H289 8339  16.566   1.967  -1.770 -1.3844  1.6189 -1.8650
   26MOL   C290 8340  17.102   1.993  -1.892  0.2737 -0.3728 -0.2524
   26MOL   C291 8341  17.230   1.959  -1.961  0.1061  0.3162  0.3388
   26MOL   C292 8342  17.320   2.049  -2.025 -0.1685 -0.0161 -0.4995
   26MOL   C293 8343  17.434   2.002  -2.097  0.1470  0.0192  0.3494
   26MOL   C294 8344  17.471   1.867  -2.094  0.2189  0.2541 -0.3905
   26MOL   C295 8345  17.600   1.822  -2.162  0.4468  0.3212  0.1446
   26MOL   C296 8346  17.383   1.773  -2.032 -0.0192 -0.1485  0.4404
   26MOL   C297 8347  17.268   1.822  -1.968  0.1742 -0.2081 -0.6870
   26MOL   H298 8348  17.089   1.933  -1.802 -0.3732  0.1494  0.0080
   26MOL   H299 8349  17.108   2.095  -1.853  0.6410 -1.1121  1.6570
   26MOL   H300 8350  17.304   2.155  -2.036  1.7160  0.2781 -0.5967
   26MOL   H301 8351  17.506   2.067  -2.144  0.1678 -0.4357 -0.2596
   26MOL   H302 8352  17.575   1.729  -2.212 -1.5719  1.7299 -1.5539
   26MOL   H303 8353  17.626   1.900  -2.235  0.0560 -1.2616 -1.7308
   26MOL   H304 8354  17.402   1.667  -2.031  1.9482  0.1726 -1.0080
   26MOL   H305 8355  17.208   1.751  -1.913 -0.5444  1.2489  0.4526
   26MOL   C306 8356  17.706   1.802  -2.054 -0.0547  0.4697  0.0084
   26MOL   C307 8357  17.840   1.762  -2.112 -0.1455 -0.6465 -0.2070
   26MOL   C308 8358  17.906   1.644  -2.079  0.5928 -0.3658 -0.7867
   26MOL   C309 8359  18.042   1.615  -2.115 -0.6903  0.3473  0.5512
   26MOL   C310 8360  18.111   1.708  -2.194  0.8526 -0.0877 -0.1867
   26MOL   C311 8361  18.256   1.674  -2.220 -0.4283  0.1654  0.1448
   26MOL   C312 8362  18.051   1.826  -2.228  0.0033 -0.4982  0.0128
   26MOL   C313 8363  17.917   1.851  -2.185  0.1615 -0.5948  0.4830
   26MOL   H314 8364  17.684   1.724  -1.981  2.4966  0.5004  0.8750
   26MOL   H315 8365  17.723   1.890  -1.992 -1.7770  1.6416 -1.1325
   26MOL   H316 8366  17.861   1.587  -1.999  1.4219  0.5968  0.3783
   26MOL   H317 8367  18.090   1.530  -2.069  0.2601 -0.3317 -1.6522
   26MOL   H318 8368  18.262   1.606  -2.305  1.3152 -0.7831  1.0179
   26MOL   H319 8369  18.307   1.765  -2.252  1.3228  0.0742  2.5131
   26MOL   H320 8370  18.117   1.892  -2.283 -2.4671  0.8352 -1.4762
   26MOL   H321 8371  17.877   1.945  -2.220  1.7849 -0.6271 -1.5789
   26MOL   H322 8372  18.308   1.633  -2.133 -3.4160  0.4152  2.1428
   27MOL     C1 8373   2.538   0.698   2.900  0.1949 -0.8539 -0.6833
   27MOL     C2 8374   2.438   0.798   2.844 -0.4770  0.2543 -0.2695
   27MOL     C3 8375   2.329   0.842   2.929 -0.6425 -0.1331  0.3567
   27MOL     C4 8376   2.225   0.920   2.873  0.6541  0.0597 -0.1298
   27MOL     C5 8377   2.232   0.960   2.736 -0.5769  0.6031 -0.7480
   27MOL     C6 8378   2.127   1.047   2.668 -0.6070  0.0082  0.5575
   27MOL     C7 8379   2.346   0.922   2.653 -0.6313  0.0970 -0.6316
   27MOL     C8 8380   2.444   0.844   2.712  0.1497  0.0603  0.0352
   27MOL     H9 8381   2.486   0.628   2.966 -1.2060  0.8823  0.1147
   27MOL    H10 8382   2.594   0.641   2.825 -0.1049  1.6201 -2.8731
   27MOL    H11 8383   2.326   0.821   3.034  2.1969 -1.9485  0.1270
   27MOL    H12 8384   2.141   0.952   2.934  0.8293 -1.4222  0.9208
   27MOL    H13 8385   2.115   1.139   2.725  1.4556  0.7805 -0.2408
   27MOL    H14 8386   2.174   1.076   2.574  0.9600 -0.8682  1.0514
   27MOL    H15 8387   2.364   0.953   2.551 -0.5964  2.7856  0.1496
   27MOL    H16 8388   2.532   0.812   2.657 -0.1501 -0.2888 -0.2453
   27MOL    H17 8389   2.618   0.744   2.958  0.0130 -1.1442 -0.2018
   27MOL    C18 8390   1.999   0.968   2.662  0.7545 -0.0683  0.1019
   27MOL    C19 8391   1.865   1.038   2.633 -0.1041  0.9589  0.1769
   27MOL    C20 8392   1.822   1.127   2.734  0.9496  0.1261 -0.2686
   27MOL    C21 8393   1.687   1.176   2.720 -0.4943 -0.1166 -0.3393
   27MOL    C22 8394   1.605   1.147   2.608  0.0240 -0.4270 -0.1577
   27MOL    C23 8395   1.460   1.196   2.602  0.4300 -0.1443 -0.4486
   27MOL    C24 8396   1.660   1.066   2.506  0.0091  0.6322 -0.1945
   27MOL    C25 8397   1.789   1.008   2.516  0.0317 -0.1556 -0.8605
   27MOL    H26 8398   2.023   0.894   2.586  0.9535  0.4451 -0.3397
   27MOL    H27 8399   1.988   0.909   2.753  1.2002  0.4455  0.4924
   27MOL    H28 8400   1.876   1.147   2.825 -0.5332  0.0109  0.6688
   27MOL    H29 8401   1.650   1.248   2.791  0.2300  0.4468 -0.5276
   27MOL    H30 8402   1.443   1.240   2.504 -1.1123 -3.0261 -1.5514
   27MOL    H31 8403   1.444   1.285   2.663 -0.2151 -0.0353 -0.7733
   27MOL    H32 8404   1.597   1.055   2.420  1.9979  1.9247 -1.8695
   27MOL    H33 8405   1.831   0.946   2.438  2.5238  0.0722  0.2468
   27MOL    C34 8406   1.358   1.090   2.639 -0.2289  1.0412  0.2788
   27MOL    C35 8407   1.213   1.133   2.630 -0.4002  0.0133  0.1380
   27MOL    C36 8408   1.148   1.099   2.512  0.3390  0.3160 -0.8528
   27MOL    C37 8409   1.006   1.122   2.505  0.0081 -0.2671  0.8215
   27MOL    C38 8410   0.936   1.196   2.604 -0.1970  0.2558 -0.4008
   27MOL    C39 8411   0.788   1.211   2.587 -0.2220 -0.9740 -0.7805
   27MOL    C40 8412   1.012   1.232   2.718 -0.6136 -0.1422 -0.0766
   27MOL    C41 8413   1.148   1.195   2.736 -0.3683 -0.0568 -0.5027
   27MOL    H42 8414   1.391   1.058   2.738 -0.5246 -3.3415 -0.9461
   27MOL    H43 8415   1.365   0.999   2.578 -0.4322 -1.6412  4.0819
   27MOL    H44 8416   1.196   1.040   2.435  2.0930  1.1455 -0.4057
   27MOL    H45 8417   0.947   1.090   2.419 -0.9293 -2.1908  2.1553
   27MOL    H46 8418   0.753   1.110   2.611 -2.2850 -0.0246  0.2947
   27MOL    H47 8419   0.750   1.289   2.653  0.6613 -0.7849 -0.4855
   27MOL    H48 8420   0.974   1.274   2.810  2.2109  1.5874  0.3807
   27MOL    H49 8421   1.203   1.221   2.825  0.3101  1.4237 -1.3327
   27MOL    C50 8422   0.750   1.254   2.445 -0.0033 -0.3529  0.8449
   27MOL    C51 8423   0.598   1.285   2.431  0.0862 -0.1474 -0.5575
   27MOL    C52 8424   0.500   1.209   2.507  0.7557  0.1888 -0.3884
   27MOL    C53 8425   0.364   1.233   2.488 -0.2956  0.0998  0.5778
   27MOL    C54 8426   0.323   1.336   2.400  0.1266 -0.2362 -0.2280
   27MOL    C55 8427   0.173   1.359   2.382  0.0368  0.1583 -0.2238
   27MOL    C56 8428   0.419   1.423   2.343  0.1281  0.0103 -0.4195
   27MOL    C57 8429   0.557   1.389   2.346  0.1424  0.2815 -0.0871
   27MOL    H58 8430   0.769   1.180   2.367 -0.0114  0.1781  0.3389
   27MOL    H59 8431   0.796   1.351   2.427 -0.8611 -0.2804 -1.1069
   27MOL    H60 8432   0.525   1.131   2.577 -0.9738  0.2472  0.3054
   27MOL    H61 8433   0.291   1.170   2.537 -0.5386  1.0985  1.5030
   27MOL    H62 8434   0.159   1.412   2.287 -1.6519  1.7327  0.8820
   27MOL    H63 8435   0.134   1.259   2.366  0.1387 -0.4221  2.9064
   27MOL    H64 8436   0.396   1.506   2.279  1.0276  0.9294  0.4426
   27MOL    H65 8437   0.629   1.450   2.294  1.1241 -1.6132 -1.0335
   27MOL    C66 8438   0.103   1.445   2.488 -0.1302 -0.3517  0.2307
   27MOL    C67 8439  -0.051   1.444   2.462  0.3687 -1.0247  0.4674
   27MOL    C68 8440  -0.129   1.395   2.570 -0.0150  0.0069  0.3565
   27MOL    C69 8441  -0.266   1.416   2.560  0.2869 -0.1465  0.1018
   27MOL    C70 8442  -0.324   1.462   2.441 -0.1673 -0.5164  0.3620
   27MOL    C71 8443  -0.470   1.463   2.426  0.1334 -0.2533 -0.4121
   27MOL    C72 8444  -0.247   1.502   2.333 -0.2531 -0.8526  0.2441
   27MOL    C73 8445  -0.108   1.493   2.344 -0.2035  0.1412 -0.2776
   27MOL    H74 8446   0.151   1.542   2.472  1.0958 -0.7028  1.7156
   27MOL    H75 8447   0.131   1.421   2.590  0.4135  1.2148  0.4718
   27MOL    H76 8448  -0.086   1.345   2.656 -1.4713  0.8120  1.5566
   27MOL    H77 8449  -0.329   1.374   2.636  1.2998  1.4244  1.8554
   27MOL    H78 8450  -0.514   1.425   2.518  1.8851  0.1207  0.6142
   27MOL    H79 8451  -0.502   1.388   2.353  0.8418 -0.7516 -0.2178
   27MOL    H80 8452  -0.294   1.536   2.241 -0.3459  1.8985  1.2415
   27MOL    H81 8453  -0.047   1.527   2.262 -1.2596 -1.0013 -1.5556
   27MOL    C82 8454  -0.533   1.597   2.394 -0.6352  0.2239  0.4790
   27MOL    C83 8455  -0.682   1.596   2.393  0.6442 -0.2980 -0.2024
   27MOL    C84 8456  -0.754   1.621   2.517 -1.1144  0.8416 -0.4101
   27MOL    C85 8457  -0.894   1.625   2.520  0.1938  0.2597  0.0972
   27MOL    C86 8458  -0.971   1.600   2.399 -0.3164 -0.6525 -0.1777
   27MOL    C87 8459  -1.127   1.597   2.383 -1.1803  0.2048 -0.1716
   27MOL    C88 8460  -0.900   1.568   2.275 -0.5130 -0.1263 -0.5795
   27MOL    C89 8461  -0.758   1.573   2.276 -0.1947  0.1704  0.4942
   27MOL    H90 8462  -0.515   1.632   2.292 -2.5889 -0.2230 -0.0421
   27MOL    H91 8463  -0.504   1.672   2.467 -2.3300  1.2605  0.1224
   27MOL    H92 8464  -0.691   1.639   2.603  0.2073 -1.3891 -0.8696
   27MOL    H93 8465  -0.943   1.642   2.615 -1.1704 -1.4611 -0.2610
   27MOL    H94 8466  -1.163   1.615   2.484 -0.9164 -1.4107  0.2323
   27MOL    H95 8467  -1.142   1.490   2.366  0.8870 -0.2598  0.7412
   27MOL    H96 8468  -0.960   1.542   2.189 -4.3594  2.8566  1.0408
   27MOL    H97 8469  -0.706   1.546   2.185 -2.0251 -2.0426  0.0656
   27MOL    C98 8470  -1.181   1.692   2.275  0.3592 -0.4588 -0.7670
   27MOL    C99 8471  -1.334   1.693   2.270  0.5855  0.7673  0.8642
   27MOL   C100 8472  -1.403   1.811   2.243  0.3163 -0.7238 -0.3595
   27MOL   C101 8473  -1.542   1.806   2.225  0.6588 -0.2555  0.2557
   27MOL   C102 8474  -1.610   1.682   2.225  0.2020 -0.4127 -0.0713
   27MOL   C103 8475  -1.765   1.676   2.207  0.2496 -0.2514 -0.4727
   27MOL   C104 8476  -1.540   1.565   2.258 -0.0499 -0.5408 -0.2942
   27MOL   C105 8477  -1.401   1.572   2.274 -0.4828 -0.7947  0.6245
   27MOL   H106 8478  -1.152   1.650   2.178  1.0574  3.6604 -2.4112
   27MOL   H107 8479  -1.154   1.797   2.283  0.2384 -0.3996 -1.1377
   27MOL   H108 8480  -1.345   1.902   2.245  0.9158 -1.0799 -1.3155
   27MOL   H109 8481  -1.591   1.897   2.196  0.6379  0.1305  1.4815
   27MOL   H110 8482  -1.793   1.743   2.125  2.7447  0.8364 -0.4600
   27MOL   H111 8483  -1.803   1.578   2.180  2.5319 -1.3698  0.3307
   27MOL   H112 8484  -1.590   1.471   2.270  1.7082 -1.2608  1.6349
   27MOL   H113 8485  -1.345   1.480   2.277  1.6841  0.4245 -1.2615
   27MOL   C114 8486  -1.830   1.735   2.336  0.4416 -0.6100  0.0590
   27MOL   C115 8487  -1.977   1.782   2.317 -0.2321  0.1131 -0.0968
   27MOL   C116 8488  -2.004   1.915   2.289 -0.3444  0.1733 -0.0850
   27MOL   C117 8489  -2.140   1.945   2.271  0.1029  0.3638  0.3800
   27MOL   C118 8490  -2.239   1.847   2.265  0.6462  0.0736 -0.0861
   27MOL   C119 8491  -2.385   1.900   2.244 -0.4947  0.7153 -0.2621
   27MOL   C120 8492  -2.208   1.714   2.278  0.1690  0.6642 -0.3646
   27MOL   C121 8493  -2.073   1.678   2.300  0.1854  0.0500 -0.0486
   27MOL   H122 8494  -1.767   1.818   2.368  0.0153 -0.8752  1.6430
   27MOL   H123 8495  -1.835   1.655   2.410 -0.2119  1.6584  2.5415
   27MOL   H124 8496  -1.925   1.989   2.285 -0.9595  0.7824 -1.3594
   27MOL   H125 8497  -2.178   2.045   2.263 -0.2575  0.2301  0.3983
   27MOL   H126 8498  -2.381   2.001   2.204  1.4706  1.5927  2.0220
   27MOL   H127 8499  -2.436   1.827   2.181 -0.3335 -1.6918  2.2702
   27MOL   H128 8500  -2.283   1.637   2.273  1.5125 -0.7937  1.2321
   27MOL   H129 8501  -2.050   1.577   2.331  1.0088  0.5047  0.8636
   27MOL   C130 8502  -2.453   1.916   2.383 -0.4159  0.0290  0.2920
   27MOL   C131 8503  -2.598   1.968   2.375 -0.4406 -0.4541 -0.2974
   27MOL   C132 8504  -2.627   2.101   2.408  0.3463 -0.3693  0.6543
   27MOL   C133 8505  -2.760   2.150   2.402 -0.0155 -0.2152  0.1993
   27MOL   C134 8506  -2.862   2.054   2.374 -0.0048  0.1624 -0.1854
   27MOL   C135 8507  -3.003   2.104   2.357  0.0338  0.1032 -0.7870
   27MOL   C136 8508  -2.833   1.920   2.356 -0.3312  0.9666 -0.0834
   27MOL   C137 8509  -2.699   1.874   2.353  0.3790  0.5035 -0.3778
   27MOL   H138 8510  -2.394   1.978   2.450  1.4435 -0.0203 -1.2664
   27MOL   H139 8511  -2.447   1.813   2.420 -1.2557 -0.1899 -0.1553
   27MOL   H140 8512  -2.555   2.173   2.444 -1.4384  0.6029  2.4441
   27MOL   H141 8513  -2.784   2.253   2.419  0.0325 -0.1999  0.1744
   27MOL   H142 8514  -3.001   2.183   2.282 -0.0390  0.9288  0.0778
   27MOL   H143 8515  -3.057   2.023   2.308 -0.3533  0.9461 -1.7579
   27MOL   H144 8516  -2.891   1.832   2.331 -0.4579  1.5715 -1.9879
   27MOL   H145 8517  -2.682   1.768   2.342 -3.4248  0.0498 -3.2981
   27MOL   C146 8518  -3.062   2.152   2.484  0.1927  0.0529 -0.3665
   27MOL   C147 8519  -3.206   2.198   2.469 -0.7752 -0.3280  1.0399
   27MOL   C148 8520  -3.239   2.329   2.507 -0.5919  0.6780 -0.4940
   27MOL   C149 8521  -3.370   2.380   2.486  0.0185  0.5827  0.1409
   27MOL   C150 8522  -3.471   2.295   2.438  0.3456 -0.0128 -0.0788
   27MOL   C151 8523  -3.611   2.350   2.417 -0.1297  0.5856  0.2965
   27MOL   C152 8524  -3.438   2.167   2.400  0.0315 -1.2441 -0.5709
   27MOL   C153 8525  -3.312   2.114   2.411 -0.5691 -0.1956  0.1648
   27MOL   H154 8526  -3.001   2.234   2.523 -1.1136  0.2314  1.3646
   27MOL   H155 8527  -3.051   2.070   2.555 -1.2017 -0.1737 -0.3993
   27MOL   H156 8528  -3.166   2.399   2.544  0.1104 -1.1714  1.7123
   27MOL   H157 8529  -3.393   2.481   2.515  2.1179  1.5040 -1.2792
   27MOL   H158 8530  -3.603   2.440   2.355 -0.9629  0.9692  0.7283
   27MOL   H159 8531  -3.669   2.277   2.361  2.5842 -1.7233  0.3982
   27MOL   H160 8532  -3.513   2.108   2.348  1.1815 -1.9883 -1.4152
   27MOL   H161 8533  -3.294   2.011   2.383 -0.9372 -0.0513 -0.6207
   27MOL   C162 8534  -3.681   2.382   2.552 -0.5082  0.0249 -0.3676
   27MOL   C163 8535  -3.780   2.497   2.534 -0.7361 -0.2378  0.2937
   27MOL   C164 8536  -3.908   2.475   2.480  0.5338  0.0347  0.1014
   27MOL   C165 8537  -3.988   2.586   2.439 -0.8069 -0.3171 -0.5067
   27MOL   C166 8538  -3.948   2.716   2.460 -0.2278 -0.0180 -0.3474
   27MOL   C167 8539  -4.033   2.837   2.412  0.2097 -0.4753  0.1820
   27MOL   C168 8540  -3.818   2.743   2.510  0.0357  0.0020 -0.3404
   27MOL   C169 8541  -3.736   2.633   2.555  0.2568 -0.0390  0.2486
   27MOL   H170 8542  -3.609   2.420   2.624 -0.5269 -0.4874 -0.0761
   27MOL   H171 8543  -3.734   2.295   2.589 -1.0328  0.2517 -0.5738
   27MOL   H172 8544  -3.943   2.375   2.461  1.7802 -0.2874 -0.5784
   27MOL   H173 8545  -4.082   2.576   2.386  0.0857 -2.2296 -1.8010
   27MOL   H174 8546  -3.975   2.870   2.326  1.4342 -2.0438  0.3954
   27MOL   H175 8547  -4.134   2.805   2.387 -0.4441  0.3873  1.6687
   27MOL   H176 8548  -3.785   2.844   2.532 -0.1136 -0.1669  0.6621
   27MOL   H177 8549  -3.635   2.642   2.591  0.1141 -1.6270  1.0933
   27MOL   C178 8550  -4.059   2.952   2.509 -0.6574  0.0320 -0.3330
   27MOL   C179 8551  -4.093   3.072   2.418 -0.2086 -0.7925 -0.6675
   27MOL   C180 8552  -4.009   3.185   2.409 -0.3184 -0.1798  0.4758
   27MOL   C181 8553  -4.030   3.279   2.305 -0.1012  0.1261  0.1157
   27MOL   C182 8554  -4.146   3.273   2.226  0.2528  0.4784 -0.3243
   27MOL   C183 8555  -4.168   3.378   2.126 -0.1068 -0.3715 -0.1056
   27MOL   C184 8556  -4.234   3.167   2.240  0.7304  0.4240  1.0560
   27MOL   C185 8557  -4.209   3.066   2.338  0.0963  0.3995 -0.0414
   27MOL   H186 8558  -3.977   2.978   2.575  1.3097  0.1853 -2.7755
   27MOL   H187 8559  -4.150   2.922   2.561 -0.7680 -0.6151 -0.8954
   27MOL   H188 8560  -3.922   3.190   2.472 -1.2496  0.1858  1.7547
   27MOL   H189 8561  -3.964   3.362   2.284 -2.1043  1.1784 -2.2850
   27MOL   H190 8562  -4.260   3.428   2.154 -0.0171 -0.0030 -0.4652
   27MOL   H191 8563  -4.097   3.460   2.122 -0.3434 -0.2458 -2.3123
   27MOL   H192 8564  -4.322   3.149   2.181  0.4015  1.1306  1.3218
   27MOL   H193 8565  -4.273   2.978   2.340 -0.5371  0.8781  0.6994
   27MOL   C194 8566  -4.182   3.315   1.984  0.6900 -0.3088  0.2531
   27MOL   C195 8567  -4.052   3.245   1.942  0.2294 -0.1545  0.5575
   27MOL   C196 8568  -3.931   3.313   1.915 -0.4568  1.0467 -0.0971
   27MOL   C197 8569  -3.813   3.251   1.863  0.8418  0.1020 -0.1175
   27MOL   C198 8570  -3.826   3.124   1.812  0.0162  0.1036  0.6025
   27MOL   C199 8571  -3.704   3.067   1.742 -0.1440  0.7480  0.1383
   27MOL   C200 8572  -3.946   3.050   1.829 -0.6556 -0.2329  0.1866
   27MOL   C201 8573  -4.061   3.109   1.896 -0.6917 -0.4474 -0.6217
   27MOL   H202 8574  -4.206   3.383   1.902  0.2158  0.3025  0.8974
   27MOL   H203 8575  -4.267   3.247   1.985  0.8284 -0.4764  1.0209
   27MOL   H204 8576  -3.935   3.418   1.938 -0.0334  0.8775  0.7798
   27MOL   H205 8577  -3.719   3.304   1.857  1.1267 -0.1998  1.5343
   27MOL   H206 8578  -3.742   2.976   1.696 -0.9315  1.1166  0.0460
   27MOL   H207 8579  -3.689   3.145   1.668 -0.7797  0.9636  0.2312
   27MOL   H208 8580  -3.956   2.952   1.784  2.6139 -0.4372 -0.2178
   27MOL   H209 8581  -4.155   3.057   1.908 -1.8378  2.1689  2.2691
   27MOL   C210 8582  -3.581   3.043   1.832  0.5535 -0.1907 -0.8630
   27MOL   C211 8583  -3.464   2.973   1.771 -0.2223 -0.5518  0.8390
   27MOL   C212 8584  -3.372   3.035   1.685  0.6477 -0.4312  1.1423
   27MOL   C213 8585  -3.261   2.965   1.640  0.2194 -0.4398  0.4885
   27MOL   C214 8586  -3.239   2.833   1.674  0.5092  0.3248 -0.3821
   27MOL   C215 8587  -3.117   2.753   1.642 -1.2300 -0.2692  0.3160
   27MOL   C216 8588  -3.334   2.768   1.753 -0.1884 -0.0581  0.8465
   27MOL   C217 8589  -3.448   2.834   1.798 -0.4254  0.7806  0.0676
   27MOL   H218 8590  -3.609   2.969   1.907  1.2637 -0.6307 -1.0365
   27MOL   H219 8591  -3.550   3.134   1.882  1.4063 -1.6732  1.3814
   27MOL   H220 8592  -3.386   3.138   1.659 -2.1845 -1.4226 -1.5129
   27MOL   H221 8593  -3.185   3.025   1.592  0.3079 -0.3052  0.7938
   27MOL   H222 8594  -3.141   2.652   1.609 -1.6666 -0.0888  0.0637
   27MOL   H223 8595  -3.082   2.806   1.554 -1.1858 -1.3918 -0.3476
   27MOL   H224 8596  -3.313   2.664   1.774  1.1986 -0.1219 -0.7445
   27MOL   H225 8597  -3.529   2.783   1.848  0.2366  1.3493  1.7413
   27MOL   C226 8598  -3.005   2.762   1.742 -0.0781  1.1269  0.4158
   27MOL   C227 8599  -2.890   2.669   1.698  0.6308 -0.2288 -0.3184
   27MOL   C228 8600  -2.796   2.703   1.607 -0.8096  0.1607 -0.4442
   27MOL   C229 8601  -2.686   2.621   1.576 -0.1415  0.3933 -0.8831
   27MOL   C230 8602  -2.677   2.494   1.639  0.0189  0.0200 -0.2289
   27MOL   C231 8603  -2.563   2.405   1.614 -0.2515  0.8382 -0.0099
   27MOL   C232 8604  -2.782   2.451   1.728 -0.2086  0.1941  0.1683
   27MOL   C233 8605  -2.891   2.540   1.752  0.0237  0.7800 -0.4953
   27MOL   H234 8606  -3.051   2.737   1.838 -0.4409  0.8650  0.1782
   27MOL   H235 8607  -2.976   2.867   1.739  0.4454  0.9690  0.1018
   27MOL   H236 8608  -2.781   2.803   1.567  1.6351 -0.4825 -1.2300
   27MOL   H237 8609  -2.604   2.659   1.517  0.7613  0.3382  0.3071
   27MOL   H238 8610  -2.581   2.299   1.632  1.2696  0.9120  2.1995
   27MOL   H239 8611  -2.527   2.421   1.512 -0.8871 -1.9030 -0.7157
   27MOL   H240 8612  -2.776   2.348   1.761 -0.1411  0.0390 -0.3083
   27MOL   H241 8613  -2.975   2.506   1.810  1.0447 -2.3329 -0.7683
   27MOL   C242 8614  -2.444   2.452   1.703  0.3395  0.9394  0.9128
   27MOL   C243 8615  -2.312   2.402   1.654  0.2172  0.5388  0.2600
   27MOL   C244 8616  -2.272   2.271   1.682  0.6606 -0.1391  0.2845
   27MOL   C245 8617  -2.144   2.230   1.654 -0.5031 -0.7007  0.0444
   27MOL   C246 8618  -2.052   2.323   1.600 -0.7563 -0.4655 -0.3661
   27MOL   C247 8619  -1.901   2.282   1.595  0.3760 -0.6735 -0.0476
   27MOL   C248 8620  -2.093   2.454   1.572  0.7540  0.7719 -0.2684
   27MOL   C249 8621  -2.225   2.496   1.597 -0.0827 -0.0601 -0.1440
   27MOL   H250 8622  -2.446   2.561   1.699 -0.8503  0.9418  1.2015
   27MOL   H251 8623  -2.444   2.415   1.805 -1.1431  1.4943  1.1318
   27MOL   H252 8624  -2.344   2.204   1.727 -2.8170  2.3111 -1.3534
   27MOL   H253 8625  -2.110   2.130   1.675  1.1922 -0.0475  0.4981
   27MOL   H254 8626  -1.843   2.365   1.555  0.0860 -0.9585 -1.0878
   27MOL   H255 8627  -1.865   2.252   1.693  0.7937 -0.1070 -0.0236
   27MOL   H256 8628  -2.026   2.529   1.532  0.9332  1.7838  1.8582
   27MOL   H257 8629  -2.263   2.594   1.574 -0.7956  0.2325  2.1297
   27MOL   C258 8630  -1.884   2.165   1.492 -0.6715 -0.1938 -0.1131
   27MOL   C259 8631  -1.745   2.130   1.438  0.4159 -0.1248 -0.7307
   27MOL   C260 8632  -1.731   2.088   1.305  0.2233 -0.0383  0.5214
   27MOL   C261 8633  -1.603   2.069   1.239  0.4347 -0.6792 -0.1513
   27MOL   C262 8634  -1.491   2.063   1.322  0.1476 -0.3471  0.2298
   27MOL   C263 8635  -1.362   2.022   1.258 -0.1109  0.4559 -0.3943
   27MOL   C264 8636  -1.502   2.086   1.458  0.8378  0.9432  0.3791
   27MOL   C265 8637  -1.630   2.111   1.518 -0.5051  0.1923 -0.2953
   27MOL   H266 8638  -1.957   2.174   1.411 -1.1891 -0.5447  0.3118
   27MOL   H267 8639  -1.914   2.071   1.538  0.1500 -0.6592 -0.5252
   27MOL   H268 8640  -1.812   2.097   1.234 -1.0429  0.5125  2.0027
   27MOL   H269 8641  -1.597   2.055   1.132 -2.6786 -1.1368 -0.2890
   27MOL   H270 8642  -1.352   2.045   1.152  2.8175  2.6796  0.3348
   27MOL   H271 8643  -1.284   2.081   1.305  2.0579 -0.2015 -3.0424
   27MOL   H272 8644  -1.419   2.086   1.527  0.7847 -0.9986  0.4721
   27MOL   H273 8645  -1.636   2.117   1.625  2.0946 -0.5410 -0.0771
   27MOL   C274 8646  -1.337   1.872   1.276 -0.5695  0.6257  0.6631
   27MOL   C275 8647  -1.202   1.836   1.210 -0.3218  0.7503 -0.4447
   27MOL   C276 8648  -1.078   1.849   1.277  0.6489  0.0553 -0.3328
   27MOL   C277 8649  -0.957   1.798   1.223  0.1220 -0.1280 -0.2468
   27MOL   C278 8650  -0.951   1.752   1.092  0.0764  0.3700 -0.2572
   27MOL   C279 8651  -0.825   1.718   1.025 -0.1164 -0.4583  0.5276
   27MOL   C280 8652  -1.070   1.734   1.025  0.4545  0.0021 -0.0230
   27MOL   C281 8653  -1.195   1.766   1.085  0.2881 -0.4829  0.2290
   27MOL   H282 8654  -1.336   1.847   1.382  1.9599 -0.3289  0.4504
   27MOL   H283 8655  -1.418   1.824   1.221  1.3657 -2.1765  0.1688
   27MOL   H284 8656  -1.081   1.883   1.379 -1.9454 -1.7155  0.2270
   27MOL   H285 8657  -0.869   1.825   1.279 -1.1341  1.0990  1.1884
   27MOL   H286 8658  -0.857   1.677   0.929  1.2035 -2.0912  0.7550
   27MOL   H287 8659  -0.764   1.808   1.014 -3.2975  2.0040  2.0645
   27MOL   H288 8660  -1.072   1.690   0.926  0.0445 -1.4468  0.6221
   27MOL   H289 8661  -1.286   1.742   1.032  0.8384 -2.5903  0.2167
   27MOL   C290 8662  -0.737   1.619   1.105  0.3399 -0.9644  0.3931
   27MOL   C291 8663  -0.595   1.643   1.059 -0.1851 -0.1135  0.6369
   27MOL   C292 8664  -0.511   1.711   1.142  0.2682 -0.1409  0.3573
   27MOL   C293 8665  -0.376   1.722   1.105  0.3553 -0.0212  0.2167
   27MOL   C294 8666  -0.329   1.663   0.987  0.1138 -0.0061 -0.9048
   27MOL   C295 8667  -0.175   1.677   0.962  0.3884 -0.3406  0.0901
   27MOL   C296 8668  -0.416   1.594   0.903 -0.3009 -0.2288 -0.5613
   27MOL   C297 8669  -0.548   1.586   0.943  0.2517 -0.0759  0.1696
   27MOL   H298 8670  -0.770   1.516   1.095  0.4734 -1.0222  0.5373
   27MOL   H299 8671  -0.734   1.645   1.211  0.5930  2.0243 -0.2945
   27MOL   H300 8672  -0.548   1.761   1.231 -0.1248  0.2131 -0.0012
   27MOL   H301 8673  -0.309   1.778   1.168  0.5209 -0.7673  0.7026
   27MOL   H302 8674  -0.162   1.624   0.868  0.9439  0.4755 -0.3000
   27MOL   H303 8675  -0.149   1.781   0.942 -1.1879 -0.1595 -1.0487
   27MOL   H304 8676  -0.386   1.554   0.807 -2.2038 -0.9782 -0.8602
   27MOL   H305 8677  -0.620   1.541   0.878 -2.1606  3.2155  0.4143
   27MOL   C306 8678  -0.082   1.612   1.074  0.5948  0.0642 -0.6172
   27MOL   C307 8679   0.062   1.587   1.019  0.0962  0.1597  0.0776
   27MOL   C308 8680   0.140   1.681   0.947 -0.1163  0.4123  0.2864
   27MOL   C309 8681   0.266   1.638   0.890 -0.7468 -0.2917  0.0340
   27MOL   C310 8682   0.310   1.507   0.908 -0.5497 -0.5149 -0.0191
   27MOL   C311 8683   0.442   1.462   0.846  0.2940 -0.1382  1.1324
   27MOL   C312 8684   0.229   1.422   0.985  0.2082  0.7104 -0.2284
   27MOL   C313 8685   0.107   1.454   1.037  0.1695  0.2715 -0.7453
   27MOL   H314 8686  -0.122   1.529   1.132 -1.0974  1.9136  0.9375
   27MOL   H315 8687  -0.074   1.684   1.156  2.9958 -0.2164 -0.5768
   27MOL   H316 8688   0.107   1.782   0.931  1.6178  1.0904  0.8754
   27MOL   H317 8689   0.336   1.704   0.842 -1.4055 -0.2314 -0.8477
   27MOL   H318 8690   0.435   1.379   0.775  1.5210 -0.2035  1.0720
   27MOL   H319 8691   0.512   1.541   0.817 -1.6539  1.3907  0.5232
   27MOL   H320 8692   0.263   1.319   0.989  1.7517  1.2065 -0.2379
   27MOL   H321 8693   0.055   1.383   1.100 -1.8419  2.8385  0.6122
   27MOL   H322 8694   0.488   1.425   0.938  1.1139  1.4120  1.3744
   28MOL     C1 8695   5.718   3.243   7.636  0.3545 -0.5430  0.0905
   28MOL     C2 8696   5.862   3.220   7.596 -0.2107  0.3897  0.5794
   28MOL     C3 8697   5.960   3.180   7.690 -0.6875 -0.1790  0.0821
   28MOL     C4 8698   6.094   3.183   7.658 -0.4913 -0.8127 -0.0513
   28MOL     C5 8699   6.133   3.228   7.532  0.4309  0.7388 -0.1418
   28MOL     C6 8700   6.280   3.237   7.492 -0.1899 -0.0699  0.5651
   28MOL     C7 8701   6.038   3.263   7.432 -0.4398  0.2794 -0.4528
   28MOL     C8 8702   5.899   3.260   7.466  0.4326  0.5730  0.3717
   28MOL     H9 8703   5.725   3.295   7.732  1.8629 -1.5697  0.5680
   28MOL    H10 8704   5.648   3.290   7.567  0.6871  0.8574  0.6892
   28MOL    H11 8705   5.935   3.164   7.794  0.9955  1.8167  0.8463
   28MOL    H12 8706   6.167   3.158   7.733  1.0834  0.6838 -1.0545
   28MOL    H13 8707   6.300   3.329   7.436  0.4093 -1.6906 -1.9828
   28MOL    H14 8708   6.336   3.247   7.585  1.8980  0.9863 -0.7552
   28MOL    H15 8709   6.077   3.300   7.339 -0.2200 -2.2214 -1.3958
   28MOL    H16 8710   5.825   3.284   7.391 -0.5874 -1.9156  0.5021
   28MOL    H17 8711   5.681   3.145   7.665  0.9396 -0.4967  1.0404
   28MOL    C18 8712   6.341   3.122   7.401  0.1720 -0.3881 -0.3883
   28MOL    C19 8713   6.489   3.126   7.376  0.0871  0.1960  0.4948
   28MOL    C20 8714   6.592   3.140   7.474  0.5219  0.1227  0.8286
   28MOL    C21 8715   6.722   3.120   7.446  0.1867 -0.0294 -0.1590
   28MOL    C22 8716   6.766   3.113   7.314  0.0287 -0.2212  0.1641
   28MOL    C23 8717   6.913   3.104   7.276 -0.0232  0.1019  0.0990
   28MOL    C24 8718   6.671   3.103   7.214 -0.7695  0.7857 -0.3713
   28MOL    C25 8719   6.535   3.100   7.246 -0.2487 -0.0805 -0.0859
   28MOL    H26 8720   6.318   3.037   7.465 -0.6532  0.8139  0.9264
   28MOL    H27 8721   6.285   3.099   7.310 -2.0589 -0.4248  0.9694
   28MOL    H28 8722   6.558   3.162   7.574 -0.4793  0.9061  0.3311
   28MOL    H29 8723   6.782   3.120   7.535  2.2367 -0.4389 -1.5053
   28MOL    H30 8724   6.954   3.151   7.365  1.3981 -0.8753 -0.0170
   28MOL    H31 8725   6.936   3.157   7.183  0.3195 -1.3474 -0.6582
   28MOL    H32 8726   6.701   3.089   7.111  1.0471 -1.7906  0.4430
   28MOL    H33 8727   6.465   3.088   7.165 -0.7209  0.6751  0.2039
   28MOL    C34 8728   6.949   2.953   7.254  0.4324 -0.0372 -0.7235
   28MOL    C35 8729   7.097   2.950   7.227  0.6643  0.6546 -0.0710
   28MOL    C36 8730   7.146   2.953   7.094 -0.8950  0.8161 -0.4492
   28MOL    C37 8731   7.285   2.962   7.064  0.0240  0.1500 -0.0987
   28MOL    C38 8732   7.380   2.944   7.159  0.4651  0.3495  0.6199
   28MOL    C39 8733   7.528   2.924   7.139  0.3752 -0.3910  0.1021
   28MOL    C40 8734   7.336   2.932   7.289  0.3682 -0.0809 -0.3521
   28MOL    C41 8735   7.199   2.934   7.323  0.2854  0.6049  1.1197
   28MOL    H42 8736   6.897   2.900   7.174  2.2090 -1.8125 -0.7342
   28MOL    H43 8737   6.932   2.893   7.344  3.0106  1.6615  0.9809
   28MOL    H44 8738   7.071   2.946   7.017 -0.4958 -0.6916 -0.7382
   28MOL    H45 8739   7.304   2.962   6.957 -0.1868 -1.1208 -0.1414
   28MOL    H46 8740   7.571   2.999   7.073 -1.6494  0.4561 -0.2961
   28MOL    H47 8741   7.582   2.944   7.231  0.1080 -1.1568  0.4319
   28MOL    H48 8742   7.413   2.926   7.364  0.6004  1.7546 -0.4265
   28MOL    H49 8743   7.157   2.920   7.421 -0.2781 -1.5392  0.6076
   28MOL    C50 8744   7.568   2.790   7.076 -0.4062 -0.4274  0.1239
   28MOL    C51 8745   7.717   2.789   7.049  0.1165  0.5580  0.6271
   28MOL    C52 8746   7.766   2.805   6.922 -0.7115  0.0227 -0.5221
   28MOL    C53 8747   7.902   2.801   6.904  0.4174  0.0912  0.4668
   28MOL    C54 8748   7.988   2.792   7.011  0.7138 -1.0654 -0.4537
   28MOL    C55 8749   8.138   2.782   6.980  0.1166  0.5837 -0.7789
   28MOL    C56 8750   7.934   2.779   7.144  0.1180 -0.5137 -0.0307
   28MOL    C57 8751   7.797   2.789   7.160 -0.3002  0.9681  0.2191
   28MOL    H58 8752   7.505   2.772   6.989 -0.4017 -0.9655  0.2288
   28MOL    H59 8753   7.546   2.706   7.142 -0.4873 -2.8604 -2.8876
   28MOL    H60 8754   7.700   2.818   6.838  2.0185 -0.4376 -2.7870
   28MOL    H61 8755   7.936   2.811   6.802 -1.4377 -2.8584 -0.5088
   28MOL    H62 8756   8.161   2.836   6.888  1.6397  0.8725 -0.2440
   28MOL    H63 8757   8.211   2.818   7.053  0.1006  0.4710 -0.7088
   28MOL    H64 8758   8.006   2.774   7.224  0.6243  3.3289 -0.1760
   28MOL    H65 8759   7.749   2.799   7.256 -0.8291  0.7570 -0.0193
   28MOL    C66 8760   8.165   2.628   6.968 -0.8181  0.2521 -0.2768
   28MOL    C67 8761   8.312   2.609   6.945 -0.4394  0.8709  0.2118
   28MOL    C68 8762   8.363   2.623   6.814  0.0688 -0.4386 -0.7013
   28MOL    C69 8763   8.496   2.604   6.781 -0.4876 -0.8859  0.1053
   28MOL    C70 8764   8.587   2.575   6.889 -0.8399 -0.6066  0.0993
   28MOL    C71 8765   8.739   2.568   6.863  0.1744 -0.7371  0.2796
   28MOL    C72 8766   8.539   2.552   7.016  0.1154 -0.7583 -0.6749
   28MOL    C73 8767   8.400   2.566   7.042  0.3560  0.1014  0.0432
   28MOL    H74 8768   8.105   2.592   6.884  0.3866  0.9950 -1.4768
   28MOL    H75 8769   8.130   2.578   7.058  1.4324 -1.6715 -0.4038
   28MOL    H76 8770   8.293   2.640   6.734  0.0145 -1.9711 -1.0073
   28MOL    H77 8771   8.534   2.610   6.680 -1.4732 -2.4960 -0.3762
   28MOL    H78 8772   8.790   2.614   6.947 -2.1940  1.4486  0.5893
   28MOL    H79 8773   8.761   2.622   6.772 -4.2484  2.1347  0.7762
   28MOL    H80 8774   8.612   2.531   7.093  0.2306  0.5368 -0.4196
   28MOL    H81 8775   8.377   2.552   7.147  1.5562  1.3828  0.4797
   28MOL    C82 8776   8.793   2.427   6.842  0.5804  0.0482 -0.4985
   28MOL    C83 8777   8.940   2.421   6.821 -1.0089 -0.0518  0.3689
   28MOL    C84 8778   9.027   2.424   6.933 -0.2731  0.2600  0.0042
   28MOL    C85 8779   9.166   2.416   6.912  0.4057 -0.1154 -0.3301
   28MOL    C86 8780   9.222   2.398   6.780  0.4764 -0.2430 -0.0763
   28MOL    C87 8781   9.371   2.375   6.751  0.9202  0.5835 -0.2293
   28MOL    C88 8782   9.131   2.401   6.669 -0.1885  0.2599 -0.0403
   28MOL    C89 8783   8.997   2.405   6.690 -0.5443  0.0368 -1.0468
   28MOL    H90 8784   8.744   2.379   6.758  0.8873  0.4492 -0.9081
   28MOL    H91 8785   8.774   2.364   6.929  0.5050  0.8258  0.0491
   28MOL    H92 8786   8.990   2.440   7.033 -2.9376 -2.0801 -0.5667
   28MOL    H93 8787   9.235   2.413   6.995  1.3579  1.5246 -1.0181
   28MOL    H94 8788   9.418   2.397   6.847 -1.0432 -0.0721  0.9185
   28MOL    H95 8789   9.401   2.453   6.681 -0.1590 -0.3828 -1.8065
   28MOL    H96 8790   9.163   2.394   6.566 -0.2434 -1.3689  0.0360
   28MOL    H97 8791   8.922   2.412   6.613 -0.0376  1.7863 -1.4267
   28MOL    C98 8792   9.406   2.230   6.721 -0.1281  0.0438  0.4598
   28MOL    C99 8793   9.554   2.199   6.681 -0.8443 -0.0035 -0.5957
   28MOL   C100 8794   9.598   2.225   6.550  0.2552 -0.0262  0.1252
   28MOL   C101 8795   9.729   2.185   6.512 -0.3629 -0.0845 -0.3305
   28MOL   C102 8796   9.818   2.122   6.601  0.1925 -0.0404 -0.3359
   28MOL   C103 8797   9.950   2.076   6.561  0.1522 -0.5012 -0.1384
   28MOL   C104 8798   9.775   2.106   6.734  0.4764 -0.1512 -0.3145
   28MOL   C105 8799   9.638   2.134   6.770 -0.5983 -0.2186 -0.3599
   28MOL   H106 8800   9.357   2.188   6.633  1.6471 -1.7024  0.2803
   28MOL   H107 8801   9.365   2.158   6.792 -0.1320  1.2056  1.6424
   28MOL   H108 8802   9.531   2.267   6.478  1.2378  1.9018  0.2980
   28MOL   H109 8803   9.749   2.195   6.407  0.9920  0.1885 -0.0567
   28MOL   H110 8804   9.958   1.980   6.611 -3.3384 -2.4325 -3.0641
   28MOL   H111 8805   9.950   2.055   6.454 -0.2143  2.6934 -0.8175
   28MOL   H112 8806   9.830   2.050   6.808 -0.0541  1.0957  1.0265
   28MOL   H113 8807   9.608   2.130   6.873 -1.6717  0.9966 -0.6144
   28MOL   C114 8808  10.061   2.176   6.593 -0.1896  0.3502 -0.4422
   28MOL   C115 8809  10.207   2.128   6.570  0.5989 -0.6503  0.1134
   28MOL   C116 8810  10.258   2.114   6.439  0.4558 -0.1291 -0.0936
   28MOL   C117 8811  10.388   2.068   6.410 -0.4629  0.1747  0.8318
   28MOL   C118 8812  10.470   2.028   6.520 -0.5378 -0.3687  0.1954
   28MOL   C119 8813  10.612   1.992   6.491 -0.4118  0.2805  0.0141
   28MOL   C120 8814  10.418   2.046   6.650  0.0638 -0.0271  0.6067
   28MOL   C121 8815  10.293   2.096   6.675  0.3857  0.5434 -0.3855
   28MOL   H122 8816  10.046   2.210   6.695  0.7378  0.7271 -0.4188
   28MOL   H123 8817  10.050   2.268   6.535 -2.6151 -0.5411 -1.4348
   28MOL   H124 8818  10.194   2.150   6.360 -0.0349 -2.0150 -0.5906
   28MOL   H125 8819  10.429   2.064   6.311  1.9584  0.1319  1.8082
   28MOL   H126 8820  10.652   2.038   6.401  0.7323 -0.3891  0.1761
   28MOL   H127 8821  10.678   2.015   6.574  0.9091 -2.3897 -0.2407
   28MOL   H128 8822  10.489   2.037   6.731  1.6283 -2.1406 -0.9483
   28MOL   H129 8823  10.255   2.101   6.776 -2.7733 -1.4540 -1.3908
   28MOL   C130 8824  10.657   1.842   6.500 -0.1775  0.6415 -0.2827
   28MOL   C131 8825  10.806   1.827   6.500 -0.6646  0.1643 -0.8680
   28MOL   C132 8826  10.882   1.836   6.613 -0.2038 -0.1622 -0.0047
   28MOL   C133 8827  11.023   1.820   6.604  0.5320 -0.6257  0.1385
   28MOL   C134 8828  11.082   1.796   6.484 -0.5568 -0.4321  0.4297
   28MOL   C135 8829  11.230   1.764   6.491  0.8177  0.0985 -0.4809
   28MOL   C136 8830  11.005   1.786   6.372 -0.3712  0.4379  0.2422
   28MOL   C137 8831  10.870   1.815   6.369 -0.1136 -0.7416 -0.2723
   28MOL   H138 8832  10.620   1.777   6.421 -0.3613 -3.6084  3.0987
   28MOL   H139 8833  10.616   1.795   6.590 -0.4324 -0.6209 -1.0492
   28MOL   H140 8834  10.829   1.856   6.705  0.2327  1.5475 -0.0986
   28MOL   H141 8835  11.068   1.820   6.703  0.2580 -2.5598  0.2798
   28MOL   H142 8836  11.247   1.795   6.595  1.5510  1.4533 -0.9949
   28MOL   H143 8837  11.258   1.659   6.480  2.2171  0.4463 -0.3414
   28MOL   H144 8838  11.045   1.761   6.274  1.0869  0.0417  0.9173
   28MOL   H145 8839  10.815   1.808   6.276  2.7270 -0.4424 -2.0161
   28MOL   C146 8840  11.319   1.842   6.397 -0.5410  0.4486 -0.1907
   28MOL   C147 8841  11.450   1.767   6.391 -0.4985 -0.8708 -0.1036
   28MOL   C148 8842  11.494   1.712   6.268 -0.4301  0.3422 -0.2281
   28MOL   C149 8843  11.622   1.658   6.257 -0.5601 -0.0539 -0.2636
   28MOL   C150 8844  11.705   1.649   6.373 -0.4130 -0.4759 -0.1202
   28MOL   C151 8845  11.847   1.592   6.359 -0.5592  0.0661 -0.3926
   28MOL   C152 8846  11.657   1.693   6.501  0.5804 -0.2672 -0.3427
   28MOL   C153 8847  11.529   1.755   6.507 -0.2350  0.1758 -0.3971
   28MOL   H154 8848  11.322   1.946   6.428 -1.4294  0.8828 -1.5000
   28MOL   H155 8849  11.281   1.844   6.294 -0.0537 -2.4699 -0.4882
   28MOL   H156 8850  11.429   1.725   6.182 -0.0978 -0.9658 -0.6939
   28MOL   H157 8851  11.661   1.614   6.166  0.7072 -1.2040  0.8008
   28MOL   H158 8852  11.833   1.485   6.376 -1.8786  0.0532 -1.4933
   28MOL   H159 8853  11.890   1.601   6.259  1.4761 -0.3892  0.4053
   28MOL   H160 8854  11.723   1.699   6.586  2.0357  2.5184 -1.6074
   28MOL   H161 8855  11.494   1.811   6.593  4.1397  0.1138  1.5780
   28MOL   C162 8856  11.947   1.649   6.465 -0.1489  0.3798  0.0475
   28MOL   C163 8857  12.090   1.592   6.461 -0.1657  0.0634  0.0057
   28MOL   C164 8858  12.143   1.515   6.349  0.2095 -0.7328 -0.6719
   28MOL   C165 8859  12.283   1.490   6.346  0.0741  0.9186  0.3079
   28MOL   C166 8860  12.367   1.522   6.458  0.5655  0.2616  0.2651
   28MOL   C167 8861  12.518   1.506   6.440 -0.2584  0.0501  0.4826
   28MOL   C168 8862  12.307   1.581   6.572 -0.1186  0.1744  0.3977
   28MOL   C169 8863  12.170   1.616   6.576  0.2013 -0.7284 -0.7238
   28MOL   H170 8864  11.914   1.622   6.565  3.0923 -2.5770  0.4123
   28MOL   H171 8865  11.975   1.753   6.449 -0.1624  0.4004  0.1638
   28MOL   H172 8866  12.079   1.488   6.266  0.6397  0.3461 -1.3610
   28MOL   H173 8867  12.324   1.449   6.255  0.5760  0.8773  0.5503
   28MOL   H174 8868  12.538   1.455   6.345 -4.6657  1.2745 -1.2528
   28MOL   H175 8869  12.584   1.593   6.434 -1.3782  0.7761 -2.6789
   28MOL   H176 8870  12.367   1.607   6.658  0.0356 -2.0959  1.0083
   28MOL   H177 8871  12.132   1.658   6.668  1.5070 -0.3473 -0.3454
   28MOL   C178 8872  12.565   1.434   6.563  0.8232  0.7393  0.1312
   28MOL   C179 8873  12.718   1.415   6.556 -0.4912 -0.1173 -0.0787
   28MOL   C180 8874  12.761   1.319   6.467 -1.2511  0.6086 -0.2366
   28MOL   C181 8875  12.894   1.272   6.491  0.1890 -0.0509  0.1431
   28MOL   C182 8876  12.983   1.329   6.584 -0.4308  0.7043  0.4605
   28MOL   C183 8877  13.125   1.286   6.598 -0.0731  0.1177 -0.0336
   28MOL   C184 8878  12.934   1.431   6.667 -0.2199 -0.1289 -0.0416
   28MOL   C185 8879  12.802   1.470   6.653  0.1315  0.0079  0.6346
   28MOL   H186 8880  12.526   1.333   6.573 -1.1094  1.2461 -1.8949
   28MOL   H187 8881  12.530   1.479   6.656  1.2516  0.8578  0.2387
   28MOL   H188 8882  12.690   1.274   6.399  1.4304 -1.5650 -1.6782
   28MOL   H189 8883  12.928   1.201   6.417  1.0765  0.9850 -0.4483
   28MOL   H190 8884  13.169   1.279   6.697 -2.4133  2.6714  1.2219
   28MOL   H191 8885  13.139   1.185   6.560 -1.9141  0.1291 -0.7599
   28MOL   H192 8886  12.996   1.475   6.743 -0.1422  3.3122 -2.0059
   28MOL   H193 8887  12.759   1.547   6.715 -1.0169  1.6849 -2.1454
   28MOL   C194 8888  13.218   1.375   6.520  0.6405 -0.3091 -0.9296
   28MOL   C195 8889  13.357   1.323   6.503 -0.6582 -0.1026 -0.7789
   28MOL   C196 8890  13.387   1.231   6.405  0.3822 -0.0285  0.1835
   28MOL   C197 8891  13.519   1.179   6.388  0.3349 -0.1911 -0.1219
   28MOL   C198 8892  13.627   1.234   6.463  0.3245  0.1977 -0.2090
   28MOL   C199 8893  13.767   1.183   6.436  0.2111 -0.2366 -0.1432
   28MOL   C200 8894  13.597   1.320   6.568 -0.5251  0.9998 -0.8594
   28MOL   C201 8895  13.463   1.357   6.593  0.7082 -0.0743  0.0513
   28MOL   H202 8896  13.212   1.470   6.573  0.6963 -0.7303 -0.1593
   28MOL   H203 8897  13.183   1.396   6.418 -0.3818 -0.2134 -0.5633
   28MOL   H204 8898  13.307   1.189   6.346  0.0586  1.5880 -0.5681
   28MOL   H205 8899  13.525   1.103   6.312  0.1327 -0.4670  0.1343
   28MOL   H206 8900  13.804   1.145   6.532  0.5532  0.4810  0.0100
   28MOL   H207 8901  13.758   1.094   6.374 -2.4389 -0.7901  0.9795
   28MOL   H208 8902  13.674   1.347   6.639 -1.6950  0.5717  0.6097
   28MOL   H209 8903  13.437   1.407   6.685  1.0446  1.7354 -0.7932
   28MOL   C210 8904  13.855   1.297   6.378 -0.2900  0.0036  0.6777
   28MOL   C211 8905  14.009   1.260   6.388 -0.1817 -0.2765 -0.0300
   28MOL   C212 8906  14.086   1.213   6.280 -0.1701  0.2191  0.0267
   28MOL   C213 8907  14.226   1.187   6.302 -0.0997 -0.4813  0.1640
   28MOL   C214 8908  14.277   1.206   6.432 -0.3514  0.1907 -0.3942
   28MOL   C215 8909  14.418   1.163   6.459  0.1701 -0.3595  0.1880
   28MOL   C216 8910  14.207   1.268   6.535  0.3752  0.3830 -0.7999
   28MOL   C217 8911  14.071   1.292   6.515 -0.2835 -0.0823 -0.3436
   28MOL   H218 8912  13.832   1.393   6.426  1.5435  0.8282 -0.0755
   28MOL   H219 8913  13.835   1.317   6.273  0.5189 -1.6563  0.1952
   28MOL   H220 8914  14.037   1.200   6.185  1.6262  0.8575 -0.9940
   28MOL   H221 8915  14.283   1.152   6.217  1.5208  1.5749  0.3756
   28MOL   H222 8916  14.431   1.147   6.566 -0.3103  2.3509  0.6905
   28MOL   H223 8917  14.438   1.073   6.401  2.5149 -0.8869  1.7613
   28MOL   H224 8918  14.256   1.305   6.624 -1.4672 -0.6019  0.6826
   28MOL   H225 8919  14.005   1.328   6.592 -0.1193 -0.7370  0.1038
   28MOL   C226 8920  14.523   1.275   6.412 -0.0176  0.0489  0.0668
   28MOL   C227 8921  14.662   1.215   6.401 -0.8112 -0.6936 -0.1115
   28MOL   C228 8922  14.752   1.201   6.509 -0.0411  0.6208  0.0424
   28MOL   C229 8923  14.878   1.143   6.492  0.0668 -0.1413  0.1410
   28MOL   C230 8924  14.922   1.109   6.361  0.3962 -0.2390 -0.4558
   28MOL   C231 8925  15.057   1.038   6.336 -0.2383  0.0582  0.0606
   28MOL   C232 8926  14.841   1.135   6.250  0.9942 -0.4088  0.7914
   28MOL   C233 8927  14.710   1.187   6.270 -0.0045  0.5222 -0.1275
   28MOL   H234 8928  14.522   1.362   6.476 -1.5359  0.2597 -0.2219
   28MOL   H235 8929  14.485   1.308   6.315  2.2613  0.5439 -0.6823
   28MOL   H236 8930  14.713   1.208   6.609  1.6973 -0.0091  0.7895
   28MOL   H237 8931  14.930   1.111   6.580  1.0745 -0.5654 -0.5984
   28MOL   H238 8932  15.058   0.940   6.384  0.2888 -0.1502 -0.3578
   28MOL   H239 8933  15.069   1.020   6.229  0.4153 -0.4042  0.2072
   28MOL   H240 8934  14.884   1.119   6.152 -0.0689 -0.3221  0.3093
   28MOL   H241 8935  14.650   1.209   6.183  1.7569  1.2520 -1.1842
   28MOL   C242 8936  15.173   1.131   6.393  0.3845  0.0379  0.0505
   28MOL   C243 8937  15.314   1.083   6.371  1.1583 -0.1406 -0.4193
   28MOL   C244 8938  15.422   1.174   6.373 -0.0590  0.1492 -0.0037
   28MOL   C245 8939  15.552   1.138   6.352  0.2575  0.9763 -0.0608
   28MOL   C246 8940  15.581   1.000   6.334 -0.5832 -1.1561  0.2326
   28MOL   C247 8941  15.725   0.953   6.331 -0.6392  0.5382  0.2455
   28MOL   C248 8942  15.477   0.910   6.324 -0.8583  0.0109 -0.7705
   28MOL   C249 8943  15.342   0.948   6.353 -0.3616 -0.3759 -0.4323
   28MOL   H250 8944  15.168   1.232   6.353  2.6103  1.0765  2.2188
   28MOL   H251 8945  15.154   1.151   6.499  1.0233  1.1119 -0.0245
   28MOL   H252 8946  15.401   1.277   6.402  1.0390  0.6135 -0.8605
   28MOL   H253 8947  15.639   1.201   6.367  3.5073 -3.4139  0.6892
   28MOL   H254 8948  15.801   1.026   6.361  1.4705 -0.8971 -1.4184
   28MOL   H255 8949  15.743   0.869   6.397  2.2594 -0.8258 -2.1216
   28MOL   H256 8950  15.499   0.809   6.294  2.5942 -0.1777  2.1094
   28MOL   H257 8951  15.263   0.875   6.350  0.1997 -0.9804 -0.6581
   28MOL   C258 8952  15.753   0.902   6.188 -0.1151 -0.2726  0.4511
   28MOL   C259 8953  15.899   0.848   6.178  0.1208  0.1962 -0.2995
   28MOL   C260 8954  15.921   0.710   6.164  0.3421 -0.4866 -0.3967
   28MOL   C261 8955  16.051   0.656   6.171 -0.4692 -0.3255 -0.5588
   28MOL   C262 8956  16.160   0.745   6.181  0.7311 -0.0943  0.9651
   28MOL   C263 8957  16.303   0.690   6.177  0.3348 -0.1324 -0.4545
   28MOL   C264 8958  16.136   0.881   6.194 -0.3400  0.2443 -0.0163
   28MOL   C265 8959  16.008   0.938   6.190 -0.5537 -0.1815  0.1722
   28MOL   H266 8960  15.741   0.978   6.111  0.6126  0.8505  1.4127
   28MOL   H267 8961  15.681   0.823   6.168 -1.4181  1.0953 -0.3838
   28MOL   H268 8962  15.840   0.639   6.166  0.5831 -0.7537  0.0711
   28MOL   H269 8963  16.076   0.551   6.170 -0.6367 -0.3728 -0.0525
   28MOL   H270 8964  16.371   0.750   6.237 -0.6179 -0.6807  1.2124
   28MOL   H271 8965  16.304   0.591   6.222  0.2030  0.1738  0.2228
   28MOL   H272 8966  16.219   0.949   6.201 -0.8066  0.6504  1.9561
   28MOL   H273 8967  15.991   1.044   6.201  3.1662  0.4367  0.5586
   28MOL   C274 8968  16.355   0.684   6.034 -0.6347 -0.4136  0.2352
   28MOL   C275 8969  16.496   0.645   6.030  0.8356 -0.4674 -0.2410
   28MOL   C276 8970  16.537   0.512   6.008 -0.0315 -0.9778  0.0527
   28MOL   C277 8971  16.671   0.474   6.009 -0.3815 -0.5832  0.3651
   28MOL   C278 8972  16.768   0.568   6.037  0.9628 -0.5076 -0.2681
   28MOL   C279 8973  16.911   0.527   6.038  0.3606 -0.5430 -0.2954
   28MOL   C280 8974  16.732   0.700   6.084  0.7909 -0.0266  0.1872
   28MOL   C281 8975  16.596   0.739   6.074 -1.2242 -0.0462 -0.6264
   28MOL   H282 8976  16.293   0.633   5.961  1.0009 -1.6945 -0.2856
   28MOL   H283 8977  16.349   0.788   6.002 -0.1675 -1.0708 -2.0760
   28MOL   H284 8978  16.468   0.438   5.970 -1.9129 -0.0252  1.5195
   28MOL   H285 8979  16.709   0.381   5.969  2.0939  0.2320  0.7583
   28MOL   H286 8980  16.971   0.612   6.071  1.4376 -1.5727  0.4174
   28MOL   H287 8981  16.927   0.452   6.115 -0.9133 -0.6443 -0.1183
   28MOL   H288 8982  16.806   0.768   6.124 -0.6446  1.3462  0.5440
   28MOL   H289 8983  16.575   0.839   6.110 -2.1537 -1.0634  1.7839
   28MOL   C290 8984  16.955   0.489   5.895 -0.3764  0.6458 -0.2917
   28MOL   C291 8985  17.102   0.460   5.887  0.2512 -0.5034 -0.3910
   28MOL   C292 8986  17.141   0.324   5.865  0.7406 -0.4605 -0.3893
   28MOL   C293 8987  17.277   0.291   5.875  0.1166 -0.2482 -0.2921
   28MOL   C294 8988  17.373   0.389   5.892 -0.0766  0.8829  0.3108
   28MOL   C295 8989  17.518   0.365   5.884 -0.4953 -0.4579  0.6153
   28MOL   C296 8990  17.333   0.521   5.913  0.6416  0.1633 -0.1550
   28MOL   C297 8991  17.200   0.559   5.918  0.0859 -0.4383  0.0752
   28MOL   H298 8992  16.940   0.579   5.835 -1.5090  0.8086  0.2321
   28MOL   H299 8993  16.902   0.405   5.852 -0.1308  0.1960  0.2833
   28MOL   H300 8994  17.069   0.244   5.852 -2.1511  1.7577  1.3308
   28MOL   H301 8995  17.309   0.188   5.866  0.1892 -0.4208  1.6765
   28MOL   H302 8996  17.579   0.453   5.903  0.8677 -0.9395 -1.2729
   28MOL   H303 8997  17.556   0.288   5.951  1.2940  1.1952  1.5668
   28MOL   H304 8998  17.402   0.604   5.921 -1.4703  2.1735 -1.9661
   28MOL   H305 8999  17.169   0.661   5.938 -0.0063 -0.4453 -0.0338
   28MOL   C306 9000  17.559   0.303   5.747  0.5032  0.7976 -0.1870
   28MOL   C307 9001  17.709   0.289   5.744  0.2922 -0.1767  0.0918
   28MOL   C308 9002  17.763   0.160   5.753  0.6295  0.0024 -0.2012
   28MOL   C309 9003  17.904   0.132   5.754 -0.8267  0.0156 -0.9541
   28MOL   C310 9004  17.989   0.243   5.752 -0.1335 -0.4237  0.6150
   28MOL   C311 9005  18.133   0.211   5.758  0.0919 -0.2299 -0.9183
   28MOL   C312 9006  17.938   0.371   5.746  0.3492  0.1038 -0.0524
   28MOL   C313 9007  17.799   0.392   5.742 -0.0659 -0.1632  0.0627
   28MOL   H314 9008  17.526   0.370   5.667 -2.7452  2.5709  2.5102
   28MOL   H315 9009  17.517   0.205   5.726  2.5193 -0.2337  0.6035
   28MOL   H316 9010  17.697   0.075   5.758  0.8193 -0.1687 -0.6161
   28MOL   H317 9011  17.930   0.028   5.755 -1.2026 -0.0706 -0.2292
   28MOL   H318 9012  18.182   0.201   5.661  0.1760 -0.4436 -0.8524
   28MOL   H319 9013  18.191   0.282   5.818 -2.3515  0.6024  0.5081
   28MOL   H320 9014  18.002   0.458   5.748  1.1970 -0.2747 -4.2177
   28MOL   H321 9015  17.751   0.487   5.727 -2.0787 -1.0933  0.5070
   28MOL   H322 9016  18.135   0.118   5.815 -2.1998  0.7564  0.8423
   29MOL     C1 9017   2.278   2.633   2.856  0.0372 -0.4581  0.4531
   29MOL     C2 9018   2.418   2.568   2.850 -0.4320 -0.3830  0.2126
   29MOL     C3 9019   2.529   2.653   2.850  0.1473 -0.5948  0.4759
   29MOL     C4 9020   2.660   2.609   2.842  0.4347  0.0926  0.5189
   29MOL     C5 9021   2.676   2.468   2.845  0.7366  0.1581  0.5467
   29MOL     C6 9022   2.810   2.412   2.855 -0.2496 -0.5885 -0.3723
   29MOL     C7 9023   2.569   2.384   2.829 -0.6012 -1.1788 -0.2139
   29MOL     C8 9024   2.435   2.431   2.833 -0.2532 -0.3668 -0.3197
   29MOL     H9 9025   2.222   2.610   2.764 -0.9860  0.4362  0.8451
   29MOL    H10 9026   2.215   2.581   2.929 -1.3117 -0.0536 -0.3908
   29MOL    H11 9027   2.518   2.760   2.860  0.9838 -0.4839  0.2534
   29MOL    H12 9028   2.746   2.671   2.861  0.3121  0.6625 -0.7050
   29MOL    H13 9029   2.857   2.465   2.938  0.3245 -0.0266 -1.0496
   29MOL    H14 9030   2.815   2.308   2.886 -0.2755 -0.3917  0.2981
   29MOL    H15 9031   2.599   2.281   2.818  0.8871 -0.7265 -0.4685
   29MOL    H16 9032   2.355   2.359   2.824  0.0602 -0.4564 -2.6289
   29MOL    H17 9033   2.273   2.740   2.876  1.3271  0.0248 -1.6667
   29MOL    C18 9034   2.892   2.444   2.727  0.2161 -0.4610  0.3706
   29MOL    C19 9035   3.035   2.398   2.734 -0.2049  0.3610  0.7178
   29MOL    C20 9036   3.064   2.260   2.723 -0.7154 -0.1504  0.2718
   29MOL    C21 9037   3.201   2.227   2.727  0.2659  0.1533  0.0652
   29MOL    C22 9038   3.299   2.320   2.756 -0.3773  1.3054  0.8341
   29MOL    C23 9039   3.444   2.282   2.791 -0.5193  0.1609  0.7172
   29MOL    C24 9040   3.269   2.453   2.764  0.7102  0.1049  0.3921
   29MOL    C25 9041   3.136   2.493   2.753 -0.1780 -0.5300 -0.0352
   29MOL    H26 9042   2.834   2.401   2.645  1.4936 -1.6970  0.0910
   29MOL    H27 9043   2.897   2.550   2.701  2.5700 -0.4410  0.8054
   29MOL    H28 9044   2.989   2.186   2.700  0.1883 -0.6222 -1.2437
   29MOL    H29 9045   3.231   2.126   2.705  0.3534  0.1479  0.2093
   29MOL    H30 9046   3.447   2.184   2.838  0.2455 -0.5618 -0.7775
   29MOL    H31 9047   3.473   2.362   2.859 -0.1352 -0.1151  0.8752
   29MOL    H32 9048   3.351   2.518   2.793  0.5064  0.5129  0.0628
   29MOL    H33 9049   3.118   2.600   2.761  0.5196 -0.4374  0.3386
   29MOL    C34 9050   3.532   2.265   2.667 -0.3559  0.5780  0.3369
   29MOL    C35 9051   3.670   2.215   2.696  1.0573  0.3643  0.4193
   29MOL    C36 9052   3.779   2.295   2.674  0.8372 -0.4672 -0.3364
   29MOL    C37 9053   3.907   2.245   2.693 -0.4636 -0.0244 -0.2672
   29MOL    C38 9054   3.926   2.106   2.726 -0.4902  0.5433  0.5919
   29MOL    C39 9055   4.066   2.046   2.750 -0.1139 -0.0030 -0.2573
   29MOL    C40 9056   3.810   2.026   2.742  0.1317  0.4402  0.4985
   29MOL    C41 9057   3.680   2.083   2.742  0.1812 -0.0165 -0.7147
   29MOL    H42 9058   3.547   2.362   2.619  0.4118  0.3129  0.0319
   29MOL    H43 9059   3.479   2.193   2.605  0.9280 -0.0927 -0.0157
   29MOL    H44 9060   3.779   2.393   2.628  1.3174  0.1545  0.9777
   29MOL    H45 9061   3.991   2.312   2.682 -0.1783 -0.1173  1.2591
   29MOL    H46 9062   4.133   2.130   2.766 -1.6279  1.2807 -0.6004
   29MOL    H47 9063   4.074   1.986   2.841  0.1535 -0.9321 -0.8846
   29MOL    H48 9064   3.808   1.920   2.763  0.9722 -0.0086 -1.5542
   29MOL    H49 9065   3.592   2.020   2.743 -0.5368  0.9822 -0.0513
   29MOL    C50 9066   4.110   1.959   2.632  0.1043 -0.4276  0.0766
   29MOL    C51 9067   4.250   1.898   2.656  0.0638  0.3550  0.0232
   29MOL    C52 9068   4.267   1.760   2.673 -0.5256  0.2876  0.2682
   29MOL    C53 9069   4.395   1.703   2.688 -0.2387 -0.3037  0.6340
   29MOL    C54 9070   4.509   1.792   2.687 -0.1113  0.0244  0.3947
   29MOL    C55 9071   4.651   1.738   2.713 -0.0130 -0.0687  0.1569
   29MOL    C56 9072   4.492   1.932   2.682  0.3176  0.0659 -0.4665
   29MOL    C57 9073   4.360   1.985   2.661 -0.7033  0.3394  0.3166
   29MOL    H58 9074   4.118   2.018   2.541  2.9576 -0.1621  0.4566
   29MOL    H59 9075   4.034   1.884   2.613 -0.1152 -0.4062  0.8496
   29MOL    H60 9076   4.189   1.686   2.660  0.9475 -1.3682  0.6346
   29MOL    H61 9077   4.406   1.598   2.714  0.0321 -0.2420  0.7681
   29MOL    H62 9078   4.717   1.793   2.780 -3.1609 -0.1962  3.5252
   29MOL    H63 9079   4.643   1.638   2.757  0.4631 -0.0092  0.3797
   29MOL    H64 9080   4.575   2.001   2.692  2.0976 -1.9385 -1.0780
   29MOL    H65 9081   4.360   2.093   2.661 -2.6839  0.3995  3.0207
   29MOL    C66 9082   4.728   1.721   2.580  0.1373  0.3151  0.5840
   29MOL    C67 9083   4.866   1.657   2.603  0.3009 -0.2772 -0.6307
   29MOL    C68 9084   4.983   1.734   2.587  0.1636 -0.1673 -0.5160
   29MOL    C69 9085   5.111   1.678   2.624 -0.5887 -0.3022  0.4520
   29MOL    C70 9086   5.122   1.538   2.659  0.0732 -0.2250  0.4801
   29MOL    C71 9087   5.265   1.479   2.662  0.1812 -0.0278 -0.4063
   29MOL    C72 9088   5.005   1.457   2.657  0.2832 -0.5662  0.5167
   29MOL    C73 9089   4.881   1.520   2.635 -0.1895  0.2635 -0.0328
   29MOL    H74 9090   4.744   1.816   2.529 -0.3553  1.0952  1.8656
   29MOL    H75 9091   4.665   1.665   2.510  1.2704  0.3556 -0.4888
   29MOL    H76 9092   4.974   1.838   2.559 -0.7963 -0.0587  0.1594
   29MOL    H77 9093   5.197   1.742   2.610  0.6472 -1.5761  1.9831
   29MOL    H78 9094   5.252   1.373   2.688  2.9427 -0.6424 -1.3719
   29MOL    H79 9095   5.321   1.533   2.738  0.3307 -0.6063 -0.0963
   29MOL    H80 9096   5.017   1.349   2.655  1.8507 -0.3993 -0.4709
   29MOL    H81 9097   4.794   1.457   2.648  0.5125 -0.6361  0.3806
   29MOL    C82 9098   5.333   1.473   2.523 -0.3631 -0.8930  0.4986
   29MOL    C83 9099   5.476   1.421   2.532  0.3203 -0.3897  0.1606
   29MOL    C84 9100   5.581   1.512   2.531  0.2021 -0.2190 -0.2477
   29MOL    C85 9101   5.711   1.461   2.549  0.7033 -0.5577 -0.0499
   29MOL    C86 9102   5.739   1.329   2.563 -0.0139  0.7812  0.5252
   29MOL    C87 9103   5.880   1.274   2.591 -0.4652  0.7087  0.6032
   29MOL    C88 9104   5.630   1.239   2.567  0.2517  0.3698 -0.1984
   29MOL    C89 9105   5.498   1.281   2.551  0.4312 -1.0277  0.3547
   29MOL    H90 9106   5.336   1.571   2.474  1.5485 -0.9985  0.3298
   29MOL    H91 9107   5.273   1.420   2.449  0.7109 -2.9342  1.0498
   29MOL    H92 9108   5.562   1.617   2.513 -0.7698 -0.0801  1.4464
   29MOL    H93 9109   5.798   1.525   2.545 -0.0682  0.6017  1.4881
   29MOL    H94 9110   5.868   1.179   2.643 -0.0256 -0.9225 -2.2233
   29MOL    H95 9111   5.919   1.346   2.664 -1.3849  0.0365  1.7810
   29MOL    H96 9112   5.651   1.139   2.602  1.8893  0.4146 -0.9971
   29MOL    H97 9113   5.416   1.211   2.559 -0.4622  0.2169  2.5661
   29MOL    C98 9114   5.961   1.251   2.468  0.3861 -0.0916  0.4042
   29MOL    C99 9115   6.100   1.212   2.487 -0.2922 -0.9458  0.1864
   29MOL   C100 9116   6.135   1.083   2.518 -0.4922  0.0463 -0.0092
   29MOL   C101 9117   6.270   1.039   2.513  0.8577  0.0152  0.5100
   29MOL   C102 9118   6.367   1.142   2.511  0.1597  0.4467 -0.3344
   29MOL   C103 9119   6.517   1.112   2.533 -0.4404  0.1702 -0.7263
   29MOL   C104 9120   6.332   1.277   2.481 -0.4320 -0.1954 -0.2546
   29MOL   C105 9121   6.197   1.312   2.461 -0.1275 -0.2625  0.1811
   29MOL   H106 9122   5.950   1.337   2.401 -0.4394  0.4842  1.2493
   29MOL   H107 9123   5.905   1.176   2.413  2.4542 -1.0808 -0.3770
   29MOL   H108 9124   6.063   1.003   2.517 -1.0565  0.5539 -0.6534
   29MOL   H109 9125   6.296   0.934   2.512  0.7024 -0.0165 -0.5716
   29MOL   H110 9126   6.565   1.200   2.577 -1.8021  0.6474 -0.1405
   29MOL   H111 9127   6.530   1.036   2.610 -2.3184 -1.9604 -2.4340
   29MOL   H112 9128   6.400   1.361   2.478  0.4183 -0.8393  0.5760
   29MOL   H113 9129   6.167   1.413   2.436  3.6077  1.2454  1.4216
   29MOL   C114 9130   6.590   1.053   2.411 -0.6298  0.4709  0.2330
   29MOL   C115 9131   6.729   1.007   2.438 -0.2159 -0.2481  0.2813
   29MOL   C116 9132   6.839   1.097   2.434  1.0159  0.5601 -0.4900
   29MOL   C117 9133   6.971   1.047   2.443 -0.5195 -0.3090 -0.5999
   29MOL   C118 9134   6.998   0.910   2.476  0.1652  0.7777  0.6043
   29MOL   C119 9135   7.141   0.852   2.494 -0.3283 -0.3961 -0.4788
   29MOL   C120 9136   6.887   0.826   2.492  0.6682  0.2843  0.2688
   29MOL   C121 9137   6.752   0.872   2.472 -0.2237  0.1354 -0.6551
   29MOL   H122 9138   6.604   1.134   2.338 -2.1415 -0.4237 -1.0690
   29MOL   H123 9139   6.531   0.971   2.371 -0.5319  0.3213  0.3971
   29MOL   H124 9140   6.811   1.200   2.416 -3.1427 -0.4674 -0.4136
   29MOL   H125 9141   7.060   1.102   2.417 -1.1598  0.6129 -0.8548
   29MOL   H126 9142   7.217   0.930   2.502 -0.8453  0.2404 -1.6500
   29MOL   H127 9143   7.136   0.803   2.591 -3.2391  1.7109  0.5379
   29MOL   H128 9144   6.896   0.724   2.524  0.6676 -0.3707 -1.7608
   29MOL   H129 9145   6.679   0.794   2.485  1.3316 -1.1839  0.5224
   29MOL   C130 9146   7.185   0.772   2.370  0.2347 -0.1250  0.2712
   29MOL   C131 9147   7.325   0.716   2.376  0.1519 -0.8656  0.2410
   29MOL   C132 9148   7.406   0.724   2.265 -0.2800 -0.0157  0.0082
   29MOL   C133 9149   7.529   0.663   2.272  0.7239  0.4769 -0.3576
   29MOL   C134 9150   7.578   0.588   2.384 -0.1732  0.8640 -0.0771
   29MOL   C135 9151   7.702   0.505   2.380 -0.4763 -0.3698 -1.3948
   29MOL   C136 9152   7.494   0.597   2.495 -0.6836 -0.4810 -0.9273
   29MOL   C137 9153   7.366   0.650   2.496 -0.6558 -0.1793  0.7546
   29MOL   H138 9154   7.185   0.835   2.281  0.4946 -0.6291 -0.0843
   29MOL   H139 9155   7.116   0.689   2.358 -0.5264  0.7995 -2.0762
   29MOL   H140 9156   7.360   0.770   2.178 -0.5266 -3.5145 -1.8371
   29MOL   H141 9157   7.584   0.659   2.179  2.1213  3.4622  0.2916
   29MOL   H142 9158   7.685   0.433   2.460  1.8351 -0.9039 -1.3409
   29MOL   H143 9159   7.704   0.454   2.284  0.1533  1.9006 -2.6279
   29MOL   H144 9160   7.534   0.548   2.582 -0.0145  2.5906  0.5519
   29MOL   H145 9161   7.310   0.650   2.589 -0.8015  1.2898  0.6683
   29MOL   C146 9162   7.829   0.589   2.379  0.1370  0.3574 -0.2757
   29MOL   C147 9163   7.961   0.508   2.355  0.6240  0.4057 -0.1903
   29MOL   C148 9164   7.999   0.398   2.440 -0.3644 -0.1247 -0.1050
   29MOL   C149 9165   8.129   0.335   2.427 -0.1855 -0.5777 -0.1822
   29MOL   C150 9166   8.207   0.375   2.316 -0.6077 -0.4020 -0.0184
   29MOL   C151 9167   8.335   0.307   2.288  0.4997  0.1465 -0.0318
   29MOL   C152 9168   8.164   0.475   2.224 -0.6707 -0.0093 -0.3391
   29MOL   C153 9169   8.039   0.542   2.247 -0.1552 -0.6185 -0.3568
   29MOL   H154 9170   7.836   0.657   2.464  0.6145  0.2312 -0.2125
   29MOL   H155 9171   7.823   0.668   2.303  3.3764 -1.4687 -2.5669
   29MOL   H156 9172   7.938   0.371   2.525 -1.6942 -0.2508 -1.0845
   29MOL   H157 9173   8.157   0.255   2.494  1.8460  0.5592  0.3580
   29MOL   H158 9174   8.306   0.203   2.308  0.4437  0.3123  0.7693
   29MOL   H159 9175   8.362   0.315   2.183 -0.3270 -0.5215 -0.3042
   29MOL   H160 9176   8.219   0.498   2.134  0.6487  1.1970  0.7499
   29MOL   H161 9177   8.004   0.615   2.176 -0.9470  0.8170  1.4544
   29MOL   C162 9178   8.451   0.353   2.386 -0.4508 -0.0762  0.0106
   29MOL   C163 9179   8.590   0.285   2.362 -0.5882  0.4211  0.3994
   29MOL   C164 9180   8.608   0.152   2.406  0.0261  0.0828  0.3725
   29MOL   C165 9181   8.731   0.089   2.385 -0.1651  0.2031 -0.6798
   29MOL   C166 9182   8.841   0.152   2.325 -0.0870  0.4801 -0.1898
   29MOL   C167 9183   8.968   0.072   2.306  0.5939  0.4655  0.1602
   29MOL   C168 9184   8.823   0.287   2.280 -0.6608  0.2204  0.4119
   29MOL   C169 9185   8.697   0.350   2.297 -0.2792  0.2227  0.2571
   29MOL   H170 9186   8.405   0.345   2.484  0.5475 -1.0900  0.3999
   29MOL   H171 9187   8.447   0.460   2.366  2.6921 -0.1150 -1.1635
   29MOL   H172 9188   8.527   0.096   2.449 -1.5772  2.4132  0.5102
   29MOL   H173 9189   8.735  -0.014   2.415  0.1693  0.4324  0.0943
   29MOL   H174 9190   8.941  -0.031   2.282 -1.6937  1.0664 -0.0117
   29MOL   H175 9191   9.015   0.108   2.215  0.0955 -2.1281 -1.1788
   29MOL   H176 9192   8.904   0.338   2.229 -1.2476 -0.3166 -1.0567
   29MOL   H177 9193   8.682   0.450   2.259 -1.6901  0.1249  0.5092
   29MOL   C178 9194   9.056   0.075   2.436  0.2473  0.0846 -0.2534
   29MOL   C179 9195   9.188   0.011   2.404  0.0244 -0.1360  0.7819
   29MOL   C180 9196   9.199  -0.131   2.402 -0.5232 -0.1854 -0.0084
   29MOL   C181 9197   9.321  -0.186   2.362 -0.7485  0.3597 -1.0350
   29MOL   C182 9198   9.426  -0.103   2.322 -0.2523  0.3319 -0.2751
   29MOL   C183 9199   9.559  -0.168   2.289  0.3975 -0.3296  0.1195
   29MOL   C184 9200   9.409   0.036   2.313 -0.3902  0.1925  0.0501
   29MOL   C185 9201   9.290   0.100   2.359  0.4100  0.6511 -0.8677
   29MOL   H186 9202   9.017   0.030   2.527 -0.9524  1.1179 -0.2539
   29MOL   H187 9203   9.070   0.182   2.451 -2.6655  0.7256 -1.8583
   29MOL   H188 9204   9.117  -0.193   2.435  0.3881 -0.4762  1.7660
   29MOL   H189 9205   9.341  -0.292   2.368 -1.6033  0.0426 -3.1632
   29MOL   H190 9206   9.533  -0.259   2.235 -1.1307  0.5447 -0.6492
   29MOL   H191 9207   9.613  -0.116   2.211 -0.1399  0.9041  0.5660
   29MOL   H192 9208   9.492   0.093   2.274 -1.3399 -0.8489 -3.6783
   29MOL   H193 9209   9.262   0.204   2.369  0.2077  0.3704  1.8860
   29MOL   C194 9210   9.643  -0.185   2.416  0.4623  0.4058 -0.6094
   29MOL   C195 9211   9.788  -0.222   2.397 -0.1332  0.0744 -0.0940
   29MOL   C196 9212   9.830  -0.263   2.274  0.4798  0.7008  0.5921
   29MOL   C197 9213   9.953  -0.327   2.255  0.7472 -0.5444  0.4342
   29MOL   C198 9214  10.042  -0.332   2.364  0.2970  0.1654  0.6637
   29MOL   C199 9215  10.181  -0.390   2.361  0.6954  0.2848 -0.4268
   29MOL   C200 9216  10.003  -0.279   2.490 -0.4469 -0.7744  0.6639
   29MOL   C201 9217   9.881  -0.221   2.506  0.7835  0.1352 -0.2742
   29MOL   H202 9218   9.597  -0.271   2.465 -2.8523  2.8226  0.7353
   29MOL   H203 9219   9.621  -0.093   2.469 -0.9731 -0.5478  0.5041
   29MOL   H204 9220   9.761  -0.260   2.191 -0.6117 -0.9538  1.4160
   29MOL   H205 9221   9.973  -0.373   2.159 -0.0748 -0.2434  0.1150
   29MOL   H206 9222  10.210  -0.416   2.463  1.0350 -1.5588 -0.9756
   29MOL   H207 9223  10.180  -0.486   2.310  0.3587 -0.7235  1.4408
   29MOL   H208 9224  10.068  -0.281   2.577  0.1882  0.0719  0.2112
   29MOL   H209 9225   9.837  -0.179   2.595 -1.0059 -0.0371 -1.0518
   29MOL   C210 9226  10.291  -0.300   2.301  0.5375  0.4578  0.6010
   29MOL   C211 9227  10.433  -0.356   2.313  0.0969  0.3556  0.0251
   29MOL   C212 9228  10.496  -0.386   2.433 -0.0205  0.1943 -0.5038
   29MOL   C213 9229  10.624  -0.444   2.443 -0.4057  0.6425  0.0920
   29MOL   C214 9230  10.693  -0.465   2.321  0.4648 -0.0527 -0.2877
   29MOL   C215 9231  10.828  -0.538   2.331  0.8404 -0.0901  0.0015
   29MOL   C216 9232  10.625  -0.452   2.195 -0.1718  0.5105  0.1630
   29MOL   C217 9233  10.497  -0.399   2.191  0.3761  0.4814 -0.2525
   29MOL   H218 9234  10.288  -0.199   2.344  1.4348  0.3867  0.8424
   29MOL   H219 9235  10.272  -0.275   2.197 -0.9952  3.0135  1.4251
   29MOL   H220 9236  10.455  -0.364   2.531  0.8093 -1.4866  0.2555
   29MOL   H221 9237  10.661  -0.451   2.544 -1.8128 -1.0414  0.5172
   29MOL   H222 9238  10.844  -0.555   2.438 -3.1081  0.4073  0.7511
   29MOL   H223 9239  10.832  -0.634   2.281  2.0062  0.8075 -1.6618
   29MOL   H224 9240  10.672  -0.482   2.103 -0.9299 -0.8427  0.2028
   29MOL   H225 9241  10.447  -0.385   2.096 -0.9865  2.9359  0.7621
   29MOL   C226 9242  10.944  -0.446   2.286  0.8779 -0.4785  0.2476
   29MOL   C227 9243  11.082  -0.518   2.302 -0.2928  0.3619  0.7667
   29MOL   C228 9244  11.153  -0.523   2.424  0.3898 -0.1642  1.0789
   29MOL   C229 9245  11.266  -0.595   2.439 -0.7750  0.0635 -0.3082
   29MOL   C230 9246  11.328  -0.653   2.323  0.0484 -0.1107 -0.0741
   29MOL   C231 9247  11.450  -0.743   2.344  0.0865 -0.5232 -0.1790
   29MOL   C232 9248  11.262  -0.641   2.198 -0.5329  0.2890 -0.4912
   29MOL   C233 9249  11.137  -0.580   2.191  0.0092  0.5421 -0.0961
   29MOL   H234 9250  10.948  -0.349   2.335  0.8904 -0.0803 -0.5331
   29MOL   H235 9251  10.924  -0.428   2.180  0.6724 -1.2663  0.1469
   29MOL   H236 9252  11.104  -0.479   2.509  2.8314  3.1756  0.8264
   29MOL   H237 9253  11.316  -0.604   2.535 -0.7363 -0.7168 -0.3966
   29MOL   H238 9254  11.457  -0.771   2.449 -0.1293 -0.6336 -0.1923
   29MOL   H239 9255  11.433  -0.834   2.286  0.4282 -0.9040  0.3176
   29MOL   H240 9256  11.289  -0.689   2.105  0.8847 -3.6405  1.8716
   29MOL   H241 9257  11.071  -0.593   2.107 -0.6931 -1.7693  0.7479
   29MOL   C242 9258  11.575  -0.671   2.293 -0.0535 -0.5473 -0.4002
   29MOL   C243 9259  11.697  -0.753   2.319  0.2862  0.1150  0.5815
   29MOL   C244 9260  11.749  -0.831   2.222 -0.2224 -0.0101  0.0330
   29MOL   C245 9261  11.866  -0.903   2.236 -0.2671  0.1063 -0.7665
   29MOL   C246 9262  11.925  -0.911   2.366  0.8556 -1.2433  0.3683
   29MOL   C247 9263  12.051  -0.995   2.380  0.0722  0.7879 -0.9916
   29MOL   C248 9264  11.869  -0.836   2.472 -0.7507  0.3386  0.6068
   29MOL   C249 9265  11.761  -0.752   2.447  0.3770  0.3806 -0.7612
   29MOL   H250 9266  11.578  -0.647   2.187  1.4271 -1.6801 -0.6306
   29MOL   H251 9267  11.593  -0.574   2.340 -0.5018 -0.8371  0.3730
   29MOL   H252 9268  11.707  -0.821   2.123 -0.1605  0.1270  0.0206
   29MOL   H253 9269  11.917  -0.962   2.161  0.6791 -1.1172  0.8114
   29MOL   H254 9270  12.062  -1.004   2.488 -2.5912 -0.7547 -0.8181
   29MOL   H255 9271  12.019  -1.095   2.353 -0.0620  0.0772  1.6472
   29MOL   H256 9272  11.915  -0.838   2.570  0.3386 -2.7047  0.0792
   29MOL   H257 9273  11.720  -0.684   2.521  0.1451 -0.2097 -0.3502
   29MOL   C258 9274  12.165  -0.941   2.302 -0.0453 -0.0833  0.6812
   29MOL   C259 9275  12.298  -1.004   2.332  0.5320  0.0144 -0.2288
   29MOL   C260 9276  12.355  -1.083   2.229  0.3844  0.3442 -0.3712
   29MOL   C261 9277  12.481  -1.139   2.245  0.2718 -0.0322 -0.1598
   29MOL   C262 9278  12.552  -1.126   2.365  0.8255  0.2582 -0.3376
   29MOL   C263 9279  12.678  -1.207   2.395  0.2154  0.7804 -0.7171
   29MOL   C264 9280  12.497  -1.051   2.467 -0.3323 -0.1201  0.8223
   29MOL   C265 9281  12.373  -0.984   2.453 -0.0309  0.0151  0.1160
   29MOL   H266 9282  12.175  -0.835   2.324 -0.9035 -0.0198  0.7878
   29MOL   H267 9283  12.143  -0.954   2.196 -0.1520 -1.0497  0.8151
   29MOL   H268 9284  12.303  -1.089   2.134 -0.3346 -0.1426  0.0512
   29MOL   H269 9285  12.512  -1.205   2.166 -0.4125 -0.0985 -0.3774
   29MOL   H270 9286  12.712  -1.201   2.498 -1.3808 -1.3365 -0.0302
   29MOL   H271 9287  12.655  -1.309   2.365  0.7278 -0.0666  1.6527
   29MOL   H272 9288  12.548  -1.049   2.563  2.5705  1.8409 -0.6938
   29MOL   H273 9289  12.338  -0.923   2.535 -0.3675  1.8189 -1.3223
   29MOL   C274 9290  12.785  -1.155   2.302 -0.0274 -0.0466 -0.5401
   29MOL   C275 9291  12.904  -1.245   2.327  0.2158  0.3810 -0.7343
   29MOL   C276 9292  12.937  -1.338   2.229  0.5898  0.2286 -0.1159
   29MOL   C277 9293  13.046  -1.423   2.247  0.0510 -0.5204  0.0020
   29MOL   C278 9294  13.116  -1.414   2.367 -0.8147  0.4165  0.2954
   29MOL   C279 9295  13.242  -1.512   2.381  0.5265 -0.3225  0.1814
   29MOL   C280 9296  13.086  -1.323   2.469 -0.0406 -0.3290 -0.4104
   29MOL   C281 9297  12.984  -1.228   2.443  0.2656 -1.0065  0.2656
   29MOL   H282 9298  12.754  -1.164   2.198 -2.4038 -2.4033  0.3171
   29MOL   H283 9299  12.812  -1.052   2.325  1.0952  0.1591 -2.6362
   29MOL   H284 9300  12.873  -1.343   2.142  1.0418 -0.2830 -0.4165
   29MOL   H285 9301  13.081  -1.495   2.174 -0.6232  1.0143 -1.9005
   29MOL   H286 9302  13.254  -1.530   2.488 -0.4555 -1.0028  0.1887
   29MOL   H287 9303  13.209  -1.613   2.353  3.1940 -1.1386 -0.1203
   29MOL   H288 9304  13.146  -1.308   2.558 -1.3413  0.6870  0.3304
   29MOL   H289 9305  12.974  -1.145   2.511  0.1054  1.1332 -2.2794
   29MOL   C290 9306  13.371  -1.464   2.319  0.3734  0.0549 -0.6189
   29MOL   C291 9307  13.486  -1.566   2.348  0.1824 -0.4706 -0.4892
   29MOL   C292 9308  13.541  -1.574   2.477  0.2342 -0.4129 -0.3168
   29MOL   C293 9309  13.647  -1.665   2.495 -0.3270 -0.0938 -0.5241
   29MOL   C294 9310  13.700  -1.741   2.392 -0.3929  0.1566 -0.4294
   29MOL   C295 9311  13.834  -1.809   2.412 -0.3682  0.2138 -1.3025
   29MOL   C296 9312  13.644  -1.726   2.262 -0.4289  0.4869 -0.4052
   29MOL   C297 9313  13.543  -1.632   2.240  0.3719  0.2538  0.2799
   29MOL   H298 9314  13.398  -1.364   2.352  0.4365  0.7610 -2.7651
   29MOL   H299 9315  13.361  -1.472   2.211  0.9340 -2.1494 -0.5400
   29MOL   H300 9316  13.502  -1.513   2.558  2.1553  1.5267 -0.7975
   29MOL   H301 9317  13.686  -1.658   2.595  0.8964  1.3996 -1.0914
   29MOL   H302 9318  13.829  -1.834   2.518 -0.4594  3.0963 -0.5898
   29MOL   H303 9319  13.835  -1.904   2.358 -2.8378 -0.9001  0.5261
   29MOL   H304 9320  13.686  -1.785   2.182 -0.2254  1.2064 -0.8344
   29MOL   H305 9321  13.502  -1.622   2.141 -0.5832 -1.6357  0.4787
   29MOL   C306 9322  13.943  -1.711   2.360 -0.1624 -0.3622 -0.4635
   29MOL   C307 9323  14.088  -1.753   2.398  0.2309  0.3238  0.0165
   29MOL   C308 9324  14.127  -1.766   2.531 -0.0735 -0.7495  0.3623
   29MOL   C309 9325  14.257  -1.797   2.569 -1.0084 -0.0555  0.5276
   29MOL   C310 9326  14.350  -1.818   2.473  0.2795 -0.4793 -0.2967
   29MOL   C311 9327  14.492  -1.847   2.510 -0.0948 -0.6662  0.6427
   29MOL   C312 9328  14.314  -1.807   2.337  0.0029 -0.0392  0.5203
   29MOL   C313 9329  14.182  -1.777   2.296 -0.3465  0.1900 -0.3787
   29MOL   H314 9330  13.920  -1.612   2.400 -1.1204 -0.4213 -0.8706
   29MOL   H315 9331  13.935  -1.688   2.254 -2.3532  3.6048  0.4700
   29MOL   H316 9332  14.053  -1.766   2.610 -0.7357  2.8258 -0.1710
   29MOL   H317 9333  14.272  -1.819   2.674  0.9585 -0.7094  0.1219
   29MOL   H318 9334  14.513  -1.834   2.616  1.5214  1.8546  0.0509
   29MOL   H319 9335  14.526  -1.947   2.483  1.3765 -0.4451  1.6080
   29MOL   H320 9336  14.379  -1.817   2.251 -0.1071  1.3577  0.2648
   29MOL   H321 9337  14.158  -1.772   2.191  0.3016 -1.4087 -0.6213
   29MOL   H322 9338  14.551  -1.775   2.453 -0.0116 -2.3902 -1.4978
   30MOL     C1 9339   1.352   1.358   1.881 -0.6428  0.1101 -0.1713
   30MOL     C2 9340   1.485   1.295   1.844  0.5523 -0.0835 -0.4354
   30MOL     C3 9341   1.589   1.379   1.805  0.3006 -0.4959 -0.6942
   30MOL     C4 9342   1.718   1.323   1.786  0.3227  0.0919 -0.2536
   30MOL     C5 9343   1.741   1.185   1.802  0.3342  0.8475  0.3775
   30MOL     C6 9344   1.870   1.122   1.763  0.9681 -0.0682 -0.9445
   30MOL     C7 9345   1.639   1.103   1.857  0.2129  0.4418  0.4391
   30MOL     C8 9346   1.517   1.159   1.883  0.5887 -0.2121 -0.4150
   30MOL     H9 9347   1.320   1.321   1.979  2.1062  0.4993  0.8937
   30MOL    H10 9348   1.356   1.467   1.887  0.7468  0.1516 -1.6258
   30MOL    H11 9349   1.572   1.485   1.793  0.8034 -0.5540 -2.0118
   30MOL    H12 9350   1.794   1.392   1.752 -0.7077  0.6865 -1.3651
   30MOL    H13 9351   1.858   1.022   1.722 -0.2641 -0.6813  0.8498
   30MOL    H14 9352   1.916   1.183   1.685 -1.9853  1.8085 -1.3266
   30MOL    H15 9353   1.669   1.001   1.873  0.4151 -0.0281 -2.6466
   30MOL    H16 9354   1.433   1.107   1.929  0.1675  0.4842 -0.3886
   30MOL    H17 9355   1.278   1.336   1.803  0.8669  0.7912 -1.8399
   30MOL    C18 9356   1.968   1.123   1.885  0.0400 -0.3363 -0.0951
   30MOL    C19 9357   2.111   1.077   1.847  0.5768 -0.3357  0.4272
   30MOL    C20 9358   2.200   1.170   1.792 -0.1051 -0.1984  0.3850
   30MOL    C21 9359   2.329   1.130   1.757 -0.3383 -0.8463  0.3124
   30MOL    C22 9360   2.371   0.992   1.765  0.2900  0.3966  0.1256
   30MOL    C23 9361   2.511   0.951   1.726  0.2770  0.2040 -0.5496
   30MOL    C24 9362   2.280   0.898   1.821  0.4650 -0.5748  0.3260
   30MOL    C25 9363   2.152   0.941   1.863 -0.6588  0.1082 -0.1880
   30MOL    H26 9364   1.984   1.223   1.923  0.5754 -0.7652  0.8425
   30MOL    H27 9365   1.930   1.069   1.972  1.2934  0.4931  0.9928
   30MOL    H28 9366   2.176   1.273   1.773  1.0884  0.0106 -0.1018
   30MOL    H29 9367   2.388   1.204   1.704 -0.5059 -1.2841 -0.5006
   30MOL    H30 9368   2.562   1.023   1.662  2.5281 -0.0097  0.9595
   30MOL    H31 9369   2.499   0.858   1.669  2.8075 -1.3297  1.3165
   30MOL    H32 9370   2.300   0.792   1.826 -1.6191 -1.0593 -0.7253
   30MOL    H33 9371   2.081   0.866   1.896  0.1354 -0.6029 -0.0681
   30MOL    C34 9372   2.593   0.913   1.853  0.2103 -0.3827  0.6786
   30MOL    C35 9373   2.723   0.870   1.813 -0.4764 -0.4388  1.2608
   30MOL    C36 9374   2.740   0.729   1.790  0.2677 -0.6630  0.1489
   30MOL    C37 9375   2.869   0.675   1.755  0.4048  0.1785  0.0695
   30MOL    C38 9376   2.976   0.763   1.741 -0.6223  0.2598 -0.2235
   30MOL    C39 9377   3.111   0.708   1.701  0.0322 -0.0032  0.0226
   30MOL    C40 9378   2.956   0.904   1.745  0.0472 -0.7714 -0.0260
   30MOL    C41 9379   2.830   0.959   1.782 -0.4376  0.1229 -0.5523
   30MOL    H42 9380   2.540   0.839   1.913  0.9464 -0.1518  1.6384
   30MOL    H43 9381   2.598   1.000   1.919 -3.4285 -0.9670  1.7972
   30MOL    H44 9382   2.660   0.659   1.807 -1.5019  1.3637  0.2824
   30MOL    H45 9383   2.872   0.567   1.747 -2.2922 -0.0495  1.4532
   30MOL    H46 9384   3.096   0.618   1.641  1.1269  0.1445 -0.4795
   30MOL    H47 9385   3.154   0.781   1.632 -2.9285  1.1711 -0.6861
   30MOL    H48 9386   3.045   0.963   1.729 -0.1871 -0.2210  0.7002
   30MOL    H49 9387   2.814   1.066   1.783  2.7417  0.6526  1.5098
   30MOL    C50 9388   3.213   0.689   1.810  0.6197 -0.3388  0.5591
   30MOL    C51 9389   3.341   0.625   1.761  0.7092 -0.4352 -0.0363
   30MOL    C52 9390   3.355   0.485   1.764 -0.0690  0.0208 -0.2364
   30MOL    C53 9391   3.481   0.426   1.731  0.2563  0.1879 -0.5768
   30MOL    C54 9392   3.589   0.509   1.683 -0.2512 -0.0664 -0.5080
   30MOL    C55 9393   3.719   0.449   1.636  0.4510  0.3770  0.1765
   30MOL    C56 9394   3.574   0.647   1.673 -0.5192 -0.3151 -0.3285
   30MOL    C57 9395   3.450   0.702   1.712  0.5860 -0.7046  0.1176
   30MOL    H58 9396   3.168   0.625   1.887 -1.2418  0.2910  0.0204
   30MOL    H59 9397   3.225   0.788   1.854  1.2330 -1.1609  2.2969
   30MOL    H60 9398   3.274   0.418   1.791  1.1790 -0.9833  1.1042
   30MOL    H61 9399   3.496   0.319   1.728 -0.8084  0.0223 -0.4098
   30MOL    H62 9400   3.692   0.344   1.619 -0.8272  0.6287  0.6566
   30MOL    H63 9401   3.743   0.493   1.540 -1.6047 -0.1970 -0.6253
   30MOL    H64 9402   3.654   0.713   1.644  0.5994 -0.8999  1.3587
   30MOL    H65 9403   3.447   0.809   1.698 -1.9020 -0.9106 -1.1923
   30MOL    C66 9404   3.836   0.470   1.723  0.3266  0.7329 -0.0578
   30MOL    C67 9405   3.957   0.398   1.669 -0.6898  0.7090  0.0755
   30MOL    C68 9406   4.039   0.458   1.573 -0.8487 -0.1960 -0.5166
   30MOL    C69 9407   4.154   0.392   1.534  0.6945 -0.7767 -0.0674
   30MOL    C70 9408   4.194   0.271   1.594  0.2338  0.2711 -0.4745
   30MOL    C71 9409   4.325   0.212   1.559  0.7041 -0.2386 -0.4025
   30MOL    C72 9410   4.108   0.205   1.688 -0.3989  0.6426 -0.5394
   30MOL    C73 9411   3.995   0.275   1.727  0.1566 -0.5647 -1.2552
   30MOL    H74 9412   3.817   0.425   1.821 -0.1841 -1.8210 -1.2903
   30MOL    H75 9413   3.843   0.578   1.734 -1.5328  0.8926 -0.3114
   30MOL    H76 9414   4.014   0.557   1.537  3.1712  1.0434 -0.2225
   30MOL    H77 9415   4.216   0.441   1.460 -0.7843  2.9482  1.0698
   30MOL    H78 9416   4.340   0.199   1.452 -0.8208 -2.3249 -0.3937
   30MOL    H79 9417   4.320   0.111   1.600  0.2133 -0.0264  0.0699
   30MOL    H80 9418   4.143   0.119   1.743 -1.0683  1.4244  1.1223
   30MOL    H81 9419   3.921   0.234   1.795  0.3058  0.2757 -0.5786
   30MOL    C82 9420   4.442   0.281   1.629 -0.7152  0.0790 -0.3310
   30MOL    C83 9421   4.575   0.204   1.608 -0.0080 -0.8342 -0.3222
   30MOL    C84 9422   4.668   0.249   1.514  0.1167  0.4251  0.2037
   30MOL    C85 9423   4.779   0.168   1.487 -0.1528 -0.1390  0.4700
   30MOL    C86 9424   4.802   0.053   1.557 -0.0414  0.4327  0.2412
   30MOL    C87 9425   4.927  -0.018   1.532  0.3761  0.5270 -0.3049
   30MOL    C88 9426   4.709   0.009   1.645 -0.2157  0.0409  0.4717
   30MOL    C89 9427   4.598   0.086   1.679 -0.7156  0.2975 -0.0163
   30MOL    H90 9428   4.428   0.291   1.737 -0.3840 -0.2721 -0.2563
   30MOL    H91 9429   4.452   0.380   1.583  0.0221 -0.3914 -1.2130
   30MOL    H92 9430   4.647   0.345   1.471  1.3134  1.5884  2.1458
   30MOL    H93 9431   4.851   0.200   1.415 -0.8336 -0.2646 -0.2717
   30MOL    H94 9432   4.956   0.003   1.429 -1.8558  0.8042 -0.9049
   30MOL    H95 9433   4.920  -0.127   1.530  1.2804  0.4175  1.5816
   30MOL    H96 9434   4.729  -0.079   1.704 -0.8457 -0.0541  0.5449
   30MOL    H97 9435   4.525   0.046   1.748 -0.7390  0.0009 -0.2122
   30MOL    C98 9436   5.040   0.018   1.630  1.0858  0.0413  0.0276
   30MOL    C99 9437   5.163  -0.068   1.601  0.5814 -0.0425  0.2466
   30MOL   C100 9438   5.270  -0.022   1.520  0.1872  0.1630  0.2855
   30MOL   C101 9439   5.374  -0.113   1.481  0.1207 -0.0830 -0.4474
   30MOL   C102 9440   5.375  -0.247   1.530  0.3077 -0.5550 -0.5746
   30MOL   C103 9441   5.483  -0.346   1.489  0.1390 -0.5999  0.4997
   30MOL   C104 9442   5.281  -0.286   1.623  0.1106 -0.0266  1.2244
   30MOL   C105 9443   5.173  -0.193   1.661  0.5443 -0.1530 -0.3277
   30MOL   H106 9444   5.010   0.011   1.734 -0.3330  1.8591 -0.2492
   30MOL   H107 9445   5.066   0.123   1.617 -0.3953  0.4249  0.1372
   30MOL   H108 9446   5.272   0.078   1.479  2.2635 -0.4021 -1.0380
   30MOL   H109 9447   5.446  -0.082   1.407 -1.5284  0.6079 -1.7897
   30MOL   H110 9448   5.572  -0.291   1.459  0.2331 -0.7609  0.4849
   30MOL   H111 9449   5.523  -0.405   1.571  3.3152  0.6953 -0.0384
   30MOL   H112 9450   5.271  -0.389   1.655 -2.1701 -0.3998 -0.6013
   30MOL   H113 9451   5.096  -0.226   1.729 -0.9712  1.4495 -1.2300
   30MOL   C114 9452   5.437  -0.450   1.380  0.1663 -0.7710  0.1845
   30MOL   C115 9453   5.547  -0.554   1.340  0.4152 -0.0384 -0.3928
   30MOL   C116 9454   5.511  -0.687   1.312 -0.4283  0.5217 -0.0607
   30MOL   C117 9455   5.610  -0.783   1.282 -0.2975  0.0885 -0.3667
   30MOL   C118 9456   5.746  -0.746   1.288 -0.3384 -0.1356  0.2698
   30MOL   C119 9457   5.858  -0.848   1.274 -0.1834  0.3925 -0.1869
   30MOL   C120 9458   5.780  -0.614   1.314  0.2605 -0.4630 -1.2423
   30MOL   C121 9459   5.683  -0.517   1.337 -0.3079 -0.3242  0.1657
   30MOL   H122 9460   5.394  -0.395   1.296  0.8486 -0.2175  0.1924
   30MOL   H123 9461   5.353  -0.498   1.430 -1.4117  1.5258 -0.1688
   30MOL   H124 9462   5.405  -0.708   1.314 -0.6021  1.4267  0.8022
   30MOL   H125 9463   5.579  -0.887   1.276  0.3598 -0.1527  0.3519
   30MOL   H126 9464   5.923  -0.846   1.361  1.6052  1.3095 -1.5064
   30MOL   H127 9465   5.822  -0.950   1.267  1.2849 -0.2334  1.1077
   30MOL   H128 9466   5.884  -0.584   1.311  0.0336  0.2263 -2.4346
   30MOL   H129 9467   5.717  -0.416   1.351  0.2408 -0.5536  0.4806
   30MOL   C130 9468   5.945  -0.845   1.140 -0.4756  0.1501 -0.7371
   30MOL   C131 9469   6.066  -0.935   1.156  0.1313  0.2082 -0.2123
   30MOL   C132 9470   6.057  -1.073   1.132  0.2449  0.7918  0.8151
   30MOL   C133 9471   6.169  -1.157   1.148  0.5214 -0.3739 -0.0094
   30MOL   C134 9472   6.295  -1.106   1.190 -0.1513 -0.6018  0.6597
   30MOL   C135 9473   6.414  -1.199   1.204 -0.1254  0.0713  0.2212
   30MOL   C136 9474   6.303  -0.967   1.225  0.7048  0.0032  0.6648
   30MOL   C137 9475   6.188  -0.883   1.206 -0.1063 -0.2896 -0.0153
   30MOL   H138 9476   5.967  -0.743   1.112  1.1216  0.0920  0.2326
   30MOL   H139 9477   5.891  -0.890   1.057  0.2444  1.4659 -1.9323
   30MOL   H140 9478   5.964  -1.119   1.102  0.7407  0.9042 -0.9561
   30MOL   H141 9479   6.152  -1.264   1.140 -2.4729 -0.0544  1.2188
   30MOL   H142 9480   6.479  -1.185   1.290 -1.0605  0.8433  0.8175
   30MOL   H143 9481   6.374  -1.300   1.214 -0.1679 -0.0868 -1.4104
   30MOL   H144 9482   6.394  -0.927   1.266  0.5994  0.7955  0.1453
   30MOL   H145 9483   6.196  -0.777   1.227 -1.0394 -0.7575  2.9257
   30MOL   C146 9484   6.496  -1.208   1.072  0.1534 -0.4364 -0.3006
   30MOL   C147 9485   6.623  -1.285   1.088  0.0137 -0.2566  0.3077
   30MOL   C148 9486   6.718  -1.251   1.191 -0.2579  0.0292 -0.6106
   30MOL   C149 9487   6.841  -1.325   1.212 -0.5731 -0.5896 -0.5974
   30MOL   C150 9488   6.872  -1.428   1.125  0.9763  0.5953 -0.0999
   30MOL   C151 9489   7.002  -1.498   1.141  0.5556 -0.3628 -0.1373
   30MOL   C152 9490   6.788  -1.457   1.014  0.1486  1.2318 -0.1096
   30MOL   C153 9491   6.661  -1.387   1.000 -0.0783 -0.2129 -0.9643
   30MOL   H154 9492   6.528  -1.111   1.034 -0.4048 -0.4186 -0.7314
   30MOL   H155 9493   6.437  -1.247   0.989  0.6484 -2.6938  0.3626
   30MOL   H156 9494   6.699  -1.156   1.238  0.0525  0.5807 -1.6120
   30MOL   H157 9495   6.913  -1.290   1.284 -0.6256 -0.7524 -0.4669
   30MOL   H158 9496   7.035  -1.466   1.240  0.1783 -0.4817  0.0255
   30MOL   H159 9497   6.974  -1.603   1.151  0.4461 -0.1248  2.2634
   30MOL   H160 9498   6.813  -1.545   0.956 -1.0161 -0.9154  2.4970
   30MOL   H161 9499   6.587  -1.411   0.924 -1.6476 -1.9419  1.0507
   30MOL   C162 9500   7.108  -1.475   1.034 -0.8264 -0.9115 -0.0179
   30MOL   C163 9501   7.240  -1.535   1.070 -0.2265  0.1044  0.1501
   30MOL   C164 9502   7.299  -1.649   1.005  0.2572  0.2513 -0.1831
   30MOL   C165 9503   7.423  -1.700   1.050 -0.6281 -0.0320  1.3655
   30MOL   C166 9504   7.490  -1.630   1.150  0.2747  0.4013  0.2640
   30MOL   C167 9505   7.631  -1.675   1.190  0.1979 -0.8049 -0.4333
   30MOL   C168 9506   7.438  -1.510   1.204 -0.6415 -0.1502  0.6857
   30MOL   C169 9507   7.307  -1.469   1.170 -0.1817 -0.6889 -0.8182
   30MOL   H170 9508   7.118  -1.369   1.011 -0.3838 -1.1923 -1.1966
   30MOL   H171 9509   7.077  -1.520   0.939  0.8274 -0.6980 -0.6802
   30MOL   H172 9510   7.249  -1.706   0.928 -0.7731 -1.6695  1.8152
   30MOL   H173 9511   7.466  -1.792   1.011 -3.0498 -0.5062 -0.2478
   30MOL   H174 9512   7.689  -1.590   1.224  0.0989 -1.9367  2.7603
   30MOL   H175 9513   7.628  -1.736   1.280  1.8419 -2.3963 -1.4208
   30MOL   H176 9514   7.504  -1.452   1.266  1.2707  2.7318 -3.7829
   30MOL   H177 9515   7.253  -1.389   1.219 -2.1207 -1.8717 -0.9936
   30MOL   C178 9516   7.716  -1.721   1.075  0.3806 -0.7341 -0.3289
   30MOL   C179 9517   7.857  -1.718   1.113 -0.8693 -0.4860 -0.1832
   30MOL   C180 9518   7.940  -1.609   1.089  0.2985  0.5297 -0.7832
   30MOL   C181 9519   8.080  -1.618   1.120 -0.1197  0.1048  0.3056
   30MOL   C182 9520   8.128  -1.735   1.186 -0.6156 -0.1368  0.0919
   30MOL   C183 9521   8.275  -1.743   1.227  0.0517  0.3008  0.9052
   30MOL   C184 9522   8.045  -1.847   1.204 -0.0616 -0.6983 -0.7819
   30MOL   C185 9523   7.911  -1.834   1.170  0.7091 -1.0666 -0.5432
   30MOL   H186 9524   7.699  -1.651   0.993 -1.5866  2.0655  2.3611
   30MOL   H187 9525   7.677  -1.820   1.053  0.3396 -0.6944 -0.4354
   30MOL   H188 9526   7.891  -1.521   1.050 -0.9828  0.4906  0.6510
   30MOL   H189 9527   8.141  -1.530   1.105 -1.9564  1.6269  1.3568
   30MOL   H190 9528   8.304  -1.651   1.278 -1.7473  0.7048  1.2341
   30MOL   H191 9529   8.286  -1.825   1.298 -0.7823 -1.3318 -0.7939
   30MOL   H192 9530   8.088  -1.940   1.238  2.3326  0.9933  0.9687
   30MOL   H193 9531   7.840  -1.915   1.175 -1.1874  0.5948  0.2905
   30MOL   C194 9532   8.373  -1.779   1.106 -0.0017  0.8217 -0.0323
   30MOL   C195 9533   8.520  -1.795   1.121 -0.1023  0.2121  0.7564
   30MOL   C196 9534   8.586  -1.919   1.099 -1.0690 -0.0147 -0.1234
   30MOL   C197 9535   8.725  -1.930   1.126 -0.1319 -0.1488  0.1913
   30MOL   C198 9536   8.797  -1.814   1.152  0.1672 -0.3996 -0.0054
   30MOL   C199 9537   8.951  -1.829   1.193  0.2135 -0.3527  0.0628
   30MOL   C200 9538   8.737  -1.688   1.162  0.7072  0.1779 -0.2197
   30MOL   C201 9539   8.598  -1.684   1.152 -0.0518  0.5162 -0.4030
   30MOL   H202 9540   8.354  -1.706   1.027  1.3882  0.7760 -0.4254
   30MOL   H203 9541   8.348  -1.880   1.072  1.1850  0.5736 -0.2026
   30MOL   H204 9542   8.535  -2.011   1.074 -1.1782 -0.8853  3.0820
   30MOL   H205 9543   8.784  -2.019   1.114  0.0978 -0.0625  0.6550
   30MOL   H206 9544   8.971  -1.801   1.296  0.5180  0.2117 -0.1509
   30MOL   H207 9545   8.973  -1.936   1.193 -0.6672 -0.5494  1.6616
   30MOL   H208 9546   8.795  -1.604   1.195  2.7604 -0.3951 -2.2653
   30MOL   H209 9547   8.544  -1.591   1.159 -0.8256 -0.0541  1.6686
   30MOL   C210 9548   9.047  -1.750   1.102 -0.4020  0.5071 -0.4777
   30MOL   C211 9549   9.182  -1.743   1.167 -0.4027 -0.1606 -0.7860
   30MOL   C212 9550   9.275  -1.845   1.163 -0.2863 -0.3392 -0.0493
   30MOL   C213 9551   9.394  -1.832   1.244  0.0501  0.0507  0.0325
   30MOL   C214 9552   9.430  -1.716   1.304 -0.5692  0.4558 -0.1578
   30MOL   C215 9553   9.556  -1.710   1.387  0.3629 -0.3016  0.3246
   30MOL   C216 9554   9.341  -1.605   1.292  0.3316  0.4205 -0.4423
   30MOL   C217 9555   9.218  -1.624   1.228 -0.4587 -0.4065  1.0655
   30MOL   H218 9556   9.001  -1.652   1.085 -0.2380  0.2893 -2.2339
   30MOL   H219 9557   9.044  -1.795   1.003  0.4605 -0.1630 -0.2012
   30MOL   H220 9558   9.259  -1.941   1.115  0.3495  0.6236 -2.2573
   30MOL   H221 9559   9.466  -1.913   1.243  0.3686  0.3449 -1.0486
   30MOL   H222 9560   9.632  -1.735   1.313 -0.3135 -0.5410 -0.2948
   30MOL   H223 9561   9.582  -1.609   1.419  0.5395 -0.1212 -0.3897
   30MOL   H224 9562   9.356  -1.506   1.335  2.1166 -0.1197  0.2716
   30MOL   H225 9563   9.158  -1.535   1.224  1.7745  1.0908 -0.5625
   30MOL   C226 9564   9.571  -1.818   1.498 -0.2270 -0.3756  0.8027
   30MOL   C227 9565   9.716  -1.842   1.540 -0.2167 -0.4367 -0.1404
   30MOL   C228 9566   9.794  -1.927   1.465 -0.0133 -0.2329  0.1358
   30MOL   C229 9567   9.914  -1.967   1.519 -0.5329  0.1691  0.4877
   30MOL   C230 9568   9.962  -1.923   1.643 -0.3629 -0.1212 -0.0855
   30MOL   C231 9569  10.089  -1.971   1.706  0.3773  0.4294 -0.8719
   30MOL   C232 9570   9.888  -1.823   1.710  0.0944 -0.1403  0.1349
   30MOL   C233 9571   9.770  -1.778   1.651  0.3719  0.6306 -0.6467
   30MOL   H234 9572   9.521  -1.914   1.481 -0.2443 -0.4784  1.4047
   30MOL   H235 9573   9.504  -1.785   1.578  0.4845  0.8001  0.9232
   30MOL   H236 9574   9.743  -1.971   1.381 -0.6755  1.2067 -0.2128
   30MOL   H237 9575   9.961  -2.042   1.458 -2.8151 -0.7912 -0.1402
   30MOL   H238 9576  10.108  -1.942   1.809 -0.5497  0.1205 -0.6041
   30MOL   H239 9577  10.098  -2.079   1.710 -0.9093  0.2902 -1.3737
   30MOL   H240 9578   9.928  -1.768   1.794 -0.6117  1.9061 -0.8356
   30MOL   H241 9579   9.706  -1.709   1.704 -0.3220  0.9874 -1.9289
   30MOL   C242 9580  10.212  -1.930   1.629  0.0244  0.1534  0.0707
   30MOL   C243 9581  10.340  -1.970   1.698 -0.0431 -1.4514 -0.2131
   30MOL   C244 9582  10.432  -1.872   1.743 -0.4012  0.6356 -0.8830
   30MOL   C245 9583  10.561  -1.909   1.788 -0.5514  0.6130  0.2946
   30MOL   C246 9584  10.604  -2.042   1.798  0.3799  0.0372 -0.2255
   30MOL   C247 9585  10.747  -2.077   1.850  0.8162  0.1235  0.6110
   30MOL   C248 9586  10.514  -2.142   1.751  0.1969 -0.6699  0.3097
   30MOL   C249 9587  10.381  -2.105   1.705 -0.0541 -0.1816  0.1030
   30MOL   H250 9588  10.215  -1.986   1.535  2.5091  0.1465  0.1354
   30MOL   H251 9589  10.209  -1.823   1.610  0.7538  0.3521  1.0633
   30MOL   H252 9590  10.391  -1.773   1.742 -1.4745  0.2053 -0.2471
   30MOL   H253 9591  10.632  -1.834   1.821  0.8426 -0.5659  0.0632
   30MOL   H254 9592  10.796  -1.987   1.886 -0.5600  0.5598  1.4070
   30MOL   H255 9593  10.739  -2.150   1.931  1.3357 -0.9313 -0.2689
   30MOL   H256 9594  10.549  -2.244   1.741 -1.0681 -0.9339 -1.8576
   30MOL   H257 9595  10.316  -2.189   1.686  0.9209 -0.7880 -0.5472
   30MOL   C258 9596  10.831  -2.137   1.731  0.9621  0.4513 -0.2072
   30MOL   C259 9597  10.958  -2.204   1.776 -0.6940  0.1199  0.0703
   30MOL   C260 9598  10.945  -2.323   1.850  0.2217 -0.3577 -0.1218
   30MOL   C261 9599  11.059  -2.395   1.894  0.4845 -0.5996 -0.3427
   30MOL   C262 9600  11.185  -2.337   1.871  0.5060 -0.2442 -0.2407
   30MOL   C263 9601  11.313  -2.401   1.929 -0.2167 -0.0693 -0.2277
   30MOL   C264 9602  11.195  -2.218   1.800 -0.0486 -0.4196  1.5254
   30MOL   C265 9603  11.085  -2.152   1.745  0.3058 -0.0427  0.8124
   30MOL   H266 9604  10.852  -2.061   1.655 -2.0096  2.1046  0.5272
   30MOL   H267 9605  10.775  -2.218   1.684 -1.1976  1.9424 -0.2768
   30MOL   H268 9606  10.848  -2.364   1.872  0.1603 -1.4716 -2.3238
   30MOL   H269 9607  11.059  -2.483   1.956 -0.7726 -0.9342 -0.8032
   30MOL   H270 9608  11.374  -2.343   1.998  3.8052  0.3112 -3.9612
   30MOL   H271 9609  11.290  -2.491   1.986  0.4183 -0.3823 -0.4674
   30MOL   H272 9610  11.293  -2.172   1.803 -0.3152  0.3103 -0.4230
   30MOL   H273 9611  11.097  -2.058   1.692 -2.4681 -1.4245 -2.4844
   30MOL   C274 9612  11.409  -2.448   1.815 -0.9443 -0.1704  0.3501
   30MOL   C275 9613  11.532  -2.510   1.875 -0.1225  0.3581  0.1082
   30MOL   C276 9614  11.519  -2.644   1.921 -0.8464  0.0238 -0.1522
   30MOL   C277 9615  11.633  -2.716   1.961  0.7085  0.6156 -0.3205
   30MOL   C278 9616  11.761  -2.659   1.968 -0.0520 -0.1121 -0.4755
   30MOL   C279 9617  11.885  -2.736   2.007 -0.7402 -0.0868  0.0311
   30MOL   C280 9618  11.768  -2.524   1.924  0.3855 -0.3424 -0.0926
   30MOL   C281 9619  11.658  -2.444   1.880 -0.0489  0.0382  0.4799
   30MOL   H282 9620  11.364  -2.523   1.750 -1.3972  1.4460 -1.2425
   30MOL   H283 9621  11.448  -2.364   1.757  0.6598 -0.4232  1.0279
   30MOL   H284 9622  11.424  -2.695   1.931 -1.0794  0.1383 -1.6546
   30MOL   H285 9623  11.621  -2.820   1.990  0.7008  0.4221 -0.9993
   30MOL   H286 9624  11.946  -2.669   2.067  0.3823 -0.4896 -0.6457
   30MOL   H287 9625  11.857  -2.825   2.063  0.0996 -0.1992  0.2798
   30MOL   H288 9626  11.871  -2.491   1.924  0.3661 -0.2532  1.4975
   30MOL   H289 9627  11.661  -2.341   1.848  0.8994  0.1389  0.8659
   30MOL   C290 9628  11.984  -2.760   1.898  0.7349  0.7217  0.2257
   30MOL   C291 9629  12.118  -2.818   1.953  0.0396  0.0639 -0.0768
   30MOL   C292 9630  12.133  -2.955   1.983 -0.1754  0.0136 -0.0600
   30MOL   C293 9631  12.258  -2.998   2.043  0.3746  0.6374 -0.8185
   30MOL   C294 9632  12.361  -2.904   2.072  0.1322 -0.2232 -0.0978
   30MOL   C295 9633  12.490  -2.940   2.140  0.0194 -0.7770 -0.8083
   30MOL   C296 9634  12.337  -2.769   2.036 -0.0946  0.2328  0.1082
   30MOL   C297 9635  12.224  -2.733   1.968 -0.4060 -0.6508 -0.5235
   30MOL   H298 9636  12.003  -2.670   1.839 -1.2857  0.4109 -0.9393
   30MOL   H299 9637  11.948  -2.836   1.830 -0.2985  0.5805  0.9082
   30MOL   H300 9638  12.060  -3.028   1.951  1.8319 -1.2880 -1.8351
   30MOL   H301 9639  12.284  -3.102   2.054  0.6365  0.8921  1.0500
   30MOL   H302 9640  12.550  -2.850   2.127 -1.8868  0.3279 -2.4765
   30MOL   H303 9641  12.483  -2.969   2.244  0.6747  0.0038 -0.5455
   30MOL   H304 9642  12.407  -2.687   2.044  0.0956  0.2278 -1.3705
   30MOL   H305 9643  12.220  -2.629   1.939 -1.0779  0.3118  2.8295
   30MOL   C306 9644  12.561  -3.061   2.068  0.2951 -0.2736  0.5001
   30MOL   C307 9645  12.691  -3.095   2.136 -0.3608  0.0307  0.3228
   30MOL   C308 9646  12.685  -3.170   2.251 -0.3325  0.3836 -0.8202
   30MOL   C309 9647  12.801  -3.214   2.313  0.0905  0.0207 -0.3751
   30MOL   C310 9648  12.925  -3.181   2.256  0.2721 -0.4973 -0.7101
   30MOL   C311 9649  13.051  -3.220   2.334 -1.1009 -0.0795 -0.2583
   30MOL   C312 9650  12.930  -3.100   2.137 -0.7270 -0.5418 -0.8981
   30MOL   C313 9651  12.811  -3.055   2.079 -0.4953  0.5930 -0.2516
   30MOL   H314 9652  12.586  -3.023   1.969 -0.5982 -0.4580  0.1998
   30MOL   H315 9653  12.491  -3.143   2.054 -0.8136  0.7006  0.1880
   30MOL   H316 9654  12.595  -3.207   2.297 -0.2077  0.1729 -0.7433
   30MOL   H317 9655  12.794  -3.269   2.406 -0.3979  0.0966 -0.3695
   30MOL   H318 9656  13.138  -3.202   2.271 -1.2159 -0.2953 -0.4776
   30MOL   H319 9657  13.065  -3.155   2.421  0.9609 -1.2587  0.3371
   30MOL   H320 9658  13.025  -3.081   2.089 -0.4656 -2.6593 -1.2487
   30MOL   H321 9659  12.820  -2.994   1.990 -2.5815 -1.0985 -1.6800
   30MOL   H322 9660  13.050  -3.325   2.364 -0.1335 -0.2838 -0.9372
   31MOL     C1 9661   4.404   5.716   7.343  0.7698  0.5439 -1.3693
   31MOL     C2 9662   4.276   5.782   7.389 -0.3543 -0.3967  0.0383
   31MOL     C3 9663   4.251   5.802   7.524  0.0870  0.5378 -0.3776
   31MOL     C4 9664   4.133   5.870   7.567  0.7087 -0.7980  0.4978
   31MOL     C5 9665   4.047   5.929   7.469 -0.6084  0.1086 -0.3136
   31MOL     C6 9666   3.940   6.028   7.508  0.1856 -0.3508 -0.3567
   31MOL     C7 9667   4.071   5.903   7.335  0.1348 -0.0999 -0.5187
   31MOL     C8 9668   4.183   5.830   7.293  0.1085  0.1391  0.0561
   31MOL     H9 9669   4.483   5.789   7.324  0.7527  0.7128 -0.8225
   31MOL    H10 9670   4.445   5.643   7.413 -1.3206 -0.4598 -1.1671
   31MOL    H11 9671   4.316   5.758   7.598 -0.7534 -2.3151 -1.2443
   31MOL    H12 9672   4.120   5.890   7.673  1.0713 -2.2720  0.8357
   31MOL    H13 9673   3.958   6.081   7.602  1.5853 -1.4408  0.0077
   31MOL    H14 9674   3.950   6.102   7.429 -0.1219 -2.1120 -2.0795
   31MOL    H15 9675   4.004   5.944   7.261 -1.0342  0.3689  0.7727
   31MOL    H16 9676   4.202   5.821   7.187 -1.9157  2.9213 -0.5893
   31MOL    H17 9677   4.378   5.659   7.255 -0.3027  0.1449 -0.7985
   31MOL    C18 9678   3.795   5.966   7.487  1.0349 -0.0170 -0.2479
   31MOL    C19 9679   3.679   6.049   7.549 -0.4384 -0.1916  0.2113
   31MOL    C20 9680   3.585   6.132   7.477  0.5198  0.3995  0.2794
   31MOL    C21 9681   3.483   6.202   7.539  0.1368 -0.0920  0.7518
   31MOL    C22 9682   3.475   6.205   7.681  0.2785 -0.1077 -0.0263
   31MOL    C23 9683   3.363   6.275   7.753  0.1536  0.0048  0.4509
   31MOL    C24 9684   3.562   6.119   7.755 -0.1956  0.5833 -0.1304
   31MOL    C25 9685   3.670   6.053   7.690  0.5303  0.0423  0.1335
   31MOL    H26 9686   3.780   5.935   7.383  0.7420  1.2774 -0.6067
   31MOL    H27 9687   3.791   5.868   7.535 -2.3364 -0.4175 -1.2154
   31MOL    H28 9688   3.594   6.142   7.370 -0.9475  1.2902  0.2265
   31MOL    H29 9689   3.421   6.256   7.470 -2.0519 -1.8569  1.2623
   31MOL    H30 9690   3.401   6.376   7.736 -0.4350  0.1022 -0.3042
   31MOL    H31 9691   3.365   6.260   7.861  1.5353 -0.1471  0.4220
   31MOL    H32 9692   3.557   6.109   7.863 -2.7679  0.3902 -0.2522
   31MOL    H33 9693   3.738   5.991   7.747  0.3707 -2.3093 -2.1302
   31MOL    C34 9694   3.217   6.249   7.697  0.0581 -0.3579  0.0501
   31MOL    C35 9695   3.107   6.336   7.769  0.6060 -0.7527 -0.2090
   31MOL    C36 9696   3.119   6.476   7.743  0.5077  0.5853 -0.8539
   31MOL    C37 9697   3.027   6.560   7.806  0.0462  0.0545  0.1018
   31MOL    C38 9698   2.922   6.519   7.886 -0.3129  0.4984  0.2424
   31MOL    C39 9699   2.822   6.618   7.948 -0.3713 -0.1180  0.0210
   31MOL    C40 9700   2.911   6.378   7.906 -0.1294  0.0236 -0.1230
   31MOL    C41 9701   3.007   6.286   7.852 -0.2499 -0.4752  0.9952
   31MOL    H42 9702   3.194   6.142   7.703 -1.5653 -0.0501 -0.5069
   31MOL    H43 9703   3.224   6.279   7.592  0.7133  1.7907  0.7018
   31MOL    H44 9704   3.197   6.513   7.679 -1.1362  3.0068 -1.5336
   31MOL    H45 9705   3.029   6.667   7.790  0.7436 -0.2763 -2.2050
   31MOL    H46 9706   2.763   6.577   8.030  0.3642 -2.5040 -0.6047
   31MOL    H47 9707   2.886   6.692   7.996  2.5864  0.1131 -4.0873
   31MOL    H48 9708   2.843   6.339   7.980  0.3451 -1.6926 -0.5658
   31MOL    H49 9709   3.006   6.182   7.879  0.3189 -1.3732 -2.2524
   31MOL    C50 9710   2.725   6.682   7.844  0.4414  0.3927 -0.0531
   31MOL    C51 9711   2.618   6.764   7.908 -0.5240  0.1280  0.3852
   31MOL    C52 9712   2.636   6.897   7.934  0.3799 -0.1773 -0.3270
   31MOL    C53 9713   2.543   6.973   8.005  0.2889 -0.3805  0.3698
   31MOL    C54 9714   2.424   6.913   8.045  0.3251 -0.8451  0.3235
   31MOL    C55 9715   2.321   6.998   8.116  0.0774 -0.5422  0.1298
   31MOL    C56 9716   2.397   6.779   8.021 -0.1694 -0.2356  0.9858
   31MOL    C57 9717   2.495   6.700   7.954 -0.1728 -0.1763  0.1545
   31MOL    H58 9718   2.684   6.608   7.775  2.0635  0.2355 -0.8701
   31MOL    H59 9719   2.770   6.747   7.769 -1.8868  0.3745 -1.5016
   31MOL    H60 9720   2.719   6.956   7.898  0.2749  0.5274  0.5526
   31MOL    H61 9721   2.555   7.077   8.031 -2.3301 -0.1731  0.8134
   31MOL    H62 9722   2.282   7.070   8.043  1.6773 -0.9146 -1.1128
   31MOL    H63 9723   2.239   6.929   8.137 -0.3396 -0.9481 -2.6314
   31MOL    H64 9724   2.306   6.729   8.052 -0.8370  0.3807  0.0588
   31MOL    H65 9725   2.497   6.596   7.925 -0.5538 -0.3624  0.7900
   31MOL    C66 9726   2.369   7.063   8.245 -0.3171  0.3422 -0.6356
   31MOL    C67 9727   2.255   7.150   8.295  0.3654  0.4022  0.3617
   31MOL    C68 9728   2.178   7.111   8.401  0.4502  0.0047 -0.4285
   31MOL    C69 9729   2.064   7.183   8.440  0.3855 -0.5976 -0.0904
   31MOL    C70 9730   2.027   7.301   8.377 -0.6809  0.3207 -0.3059
   31MOL    C71 9731   1.903   7.388   8.426 -0.7481  0.1763  0.6948
   31MOL    C72 9732   2.110   7.348   8.273 -0.1241 -0.5400 -0.5303
   31MOL    C73 9733   2.223   7.274   8.237  0.6093  0.0165  0.1236
   31MOL    H74 9734   2.459   7.122   8.224  1.1298 -1.6289 -0.1294
   31MOL    H75 9735   2.392   6.992   8.325  0.0801  1.1982  0.0172
   31MOL    H76 9736   2.190   7.011   8.442 -1.5813  0.2365  0.8207
   31MOL    H77 9737   2.000   7.154   8.522  0.9853 -0.2913  0.4892
   31MOL    H78 9738   1.866   7.435   8.334  0.9317 -1.0235 -0.6307
   31MOL    H79 9739   1.931   7.472   8.490 -3.0504  1.3474  0.2354
   31MOL    H80 9740   2.086   7.440   8.222 -0.0992  0.2686  0.8983
   31MOL    H81 9741   2.281   7.328   8.163  1.4196 -0.1760  0.6093
   31MOL    C82 9742   1.789   7.316   8.497 -0.6448  0.1726 -0.1508
   31MOL    C83 9743   1.664   7.390   8.508  0.7366 -0.2556 -0.5033
   31MOL    C84 9744   1.610   7.444   8.632  0.6472  0.4436 -0.3362
   31MOL    C85 9745   1.475   7.484   8.637 -0.4450  0.4663 -1.2410
   31MOL    C86 9746   1.389   7.481   8.522 -0.8877 -0.4478  1.1309
   31MOL    C87 9747   1.251   7.528   8.543 -0.2298  0.4916  0.2442
   31MOL    C88 9748   1.444   7.444   8.395  0.1141  0.4905 -0.2880
   31MOL    C89 9749   1.580   7.404   8.393 -0.5515  0.5341 -0.3240
   31MOL    H90 9750   1.814   7.279   8.597 -1.4092 -1.5810 -0.5841
   31MOL    H91 9751   1.767   7.230   8.433 -0.0378 -1.1459  1.3562
   31MOL    H92 9752   1.667   7.435   8.723  0.1547  4.4011  0.4066
   31MOL    H93 9753   1.431   7.506   8.733  1.8854 -3.1311  0.7564
   31MOL    H94 9754   1.218   7.580   8.453  2.3393 -0.7769 -1.4768
   31MOL    H95 9755   1.249   7.598   8.627  0.5165 -0.0720  0.7439
   31MOL    H96 9756   1.389   7.440   8.302 -1.5162  0.3337  0.6704
   31MOL    H97 9757   1.621   7.369   8.299  3.7304  2.9333  0.4729
   31MOL    C98 9758   1.147   7.422   8.585 -0.5355  0.0389 -1.1770
   31MOL    C99 9759   1.019   7.496   8.616 -0.2818 -0.2828  0.3778
   31MOL   C100 9760   0.998   7.556   8.747  0.1180  0.0207  0.0725
   31MOL   C101 9761   0.882   7.628   8.764  1.3068  0.1149  0.0228
   31MOL   C102 9762   0.785   7.643   8.667  0.1437 -0.4254  0.3284
   31MOL   C103 9763   0.671   7.742   8.696 -0.0921 -0.3915 -0.1772
   31MOL   C104 9764   0.800   7.573   8.542 -0.3327  0.2424  0.1959
   31MOL   C105 9765   0.919   7.510   8.518 -0.4040  0.3669 -0.2549
   31MOL   H106 9766   1.181   7.370   8.674  0.1735 -2.7206 -2.9863
   31MOL   H107 9767   1.137   7.348   8.506 -1.7658  1.4176 -2.3555
   31MOL   H108 9768   1.064   7.537   8.830 -0.1414 -3.0385 -0.3452
   31MOL   H109 9769   0.861   7.658   8.865  1.8461  0.4228  0.0443
   31MOL   H110 9770   0.714   7.815   8.765 -1.6416  2.5355 -2.1785
   31MOL   H111 9771   0.647   7.792   8.602 -0.9727 -0.7196 -0.1277
   31MOL   H112 9772   0.730   7.579   8.460  1.6230  1.5473 -1.4412
   31MOL   H113 9773   0.925   7.455   8.424 -1.6646 -2.6591  1.3681
   31MOL   C114 9774   0.542   7.674   8.743  0.1958 -0.5600  0.4916
   31MOL   C115 9775   0.435   7.767   8.786 -0.7349  0.0437 -0.3379
   31MOL   C116 9776   0.455   7.905   8.809 -0.4108  0.1698 -0.8233
   31MOL   C117 9777   0.354   7.984   8.856  0.6236 -0.0952 -0.2387
   31MOL   C118 9778   0.229   7.933   8.885 -0.3452 -0.0917 -0.2148
   31MOL   C119 9779   0.119   8.031   8.936 -0.0710 -0.4031 -0.5610
   31MOL   C120 9780   0.201   7.799   8.853  0.4764 -0.7635  0.4327
   31MOL   C121 9781   0.306   7.718   8.804  0.7280  1.0038 -0.5378
   31MOL   H122 9782   0.575   7.604   8.821  1.3061 -2.3272 -1.5047
   31MOL   H123 9783   0.511   7.607   8.663 -1.5153 -0.1954  0.8289
   31MOL   H124 9784   0.549   7.957   8.816  0.5919 -1.7485  0.4497
   31MOL   H125 9785   0.358   8.088   8.884 -2.0858  0.2992 -1.1223
   31MOL   H126 9786   0.156   8.130   8.963  0.2096 -1.1871  2.0368
   31MOL   H127 9787   0.046   8.036   8.855 -0.3917  1.8308 -0.1747
   31MOL   H128 9788   0.107   7.748   8.867 -0.2874  0.8616  1.2694
   31MOL   H129 9789   0.304   7.611   8.794 -1.2046  0.9762 -0.0428
   31MOL   C130 9790   0.047   7.983   9.063 -0.4216 -1.4211  0.3785
   31MOL   C131 9791  -0.061   8.077   9.116  0.2374 -0.3198 -0.3876
   31MOL   C132 9792  -0.160   8.126   9.025 -0.5769  0.3544  0.4245
   31MOL   C133 9793  -0.253   8.226   9.061  0.8616  0.5100  0.6598
   31MOL   C134 9794  -0.258   8.259   9.195  0.3249 -0.2697 -0.5872
   31MOL   C135 9795  -0.350   8.366   9.240  0.2727 -0.5633 -0.5102
   31MOL   C136 9796  -0.169   8.197   9.293 -0.0712  0.2335 -0.3234
   31MOL   C137 9797  -0.072   8.103   9.255 -0.4030 -1.0318  0.3204
   31MOL   H138 9798   0.129   7.972   9.134  0.8352 -2.6286 -1.2245
   31MOL   H139 9799  -0.006   7.889   9.050 -3.1188  0.3065 -1.7194
   31MOL   H140 9800  -0.147   8.093   8.923 -1.4728 -0.9555  0.7109
   31MOL   H141 9801  -0.320   8.268   8.988 -1.4663 -1.6245  1.4745
   31MOL   H142 9802  -0.433   8.373   9.170  0.5018 -1.6290 -0.8845
   31MOL   H143 9803  -0.385   8.343   9.341 -2.1064 -0.0942 -1.2158
   31MOL   H144 9804  -0.167   8.232   9.395  1.0475  0.5483 -0.4492
   31MOL   H145 9805  -0.005   8.065   9.332  0.4783 -2.4792 -1.1214
   31MOL   C146 9806  -0.278   8.504   9.236 -0.2324 -0.2510  0.0858
   31MOL   C147 9807  -0.153   8.512   9.312  0.9142 -0.8065 -0.7439
   31MOL   C148 9808  -0.028   8.508   9.247 -0.4321  0.9397 -0.8694
   31MOL   C149 9809   0.095   8.497   9.316  0.0487  0.2767  0.1202
   31MOL   C150 9810   0.091   8.499   9.455  0.0340 -0.0522 -0.5645
   31MOL   C151 9811   0.214   8.463   9.535 -0.0292 -0.1680  0.2065
   31MOL   C152 9812  -0.033   8.526   9.522 -0.4878 -0.3669 -0.0225
   31MOL   C153 9813  -0.153   8.524   9.450 -0.1045 -0.6524 -0.0536
   31MOL   H154 9814  -0.345   8.587   9.257 -1.0108 -1.3299  2.0767
   31MOL   H155 9815  -0.249   8.506   9.131 -1.2743  0.2017 -0.1927
   31MOL   H156 9816  -0.021   8.487   9.142  0.7741  0.7210 -0.7528
   31MOL   H157 9817   0.189   8.481   9.264  1.0633  0.6591  1.8069
   31MOL   H158 9818   0.296   8.461   9.464  0.4129  1.7537  0.6534
   31MOL   H159 9819   0.230   8.544   9.606  0.0673  1.2852 -1.4432
   31MOL   H160 9820  -0.051   8.535   9.628  1.8968 -3.2120  0.6990
   31MOL   H161 9821  -0.246   8.530   9.506 -0.0536  0.8249 -0.1067
   31MOL   C162 9822   0.192   8.328   9.605 -0.2215  0.2051 -0.2466
   31MOL   C163 9823   0.316   8.280   9.684  0.1667  0.2007 -0.1256
   31MOL   C164 9824   0.303   8.204   9.801  0.3235  0.5562  0.1365
   31MOL   C165 9825   0.412   8.156   9.877  0.5111  0.2882  0.6665
   31MOL   C166 9826   0.548   8.174   9.824  0.0049  0.1271  0.6801
   31MOL   C167 9827   0.674   8.106   9.889  0.4679 -0.0468 -0.4096
   31MOL   C168 9828   0.564   8.256   9.711  0.1590 -0.1154  0.4893
   31MOL   C169 9829   0.448   8.306   9.640 -0.5069  0.5298 -0.3315
   31MOL   H170 9830   0.175   8.251   9.530 -3.0493 -0.2320  0.8120
   31MOL   H171 9831   0.102   8.328   9.666  0.0095  0.9844  0.1137
   31MOL   H172 9832   0.203   8.187   9.836  0.1890 -0.9448 -0.9406
   31MOL   H173 9833   0.397   8.093   9.963  0.0684  0.6698  0.8701
   31MOL   H174 9834   0.758   8.159   9.844  1.2673  0.0184  1.1216
   31MOL   H175 9835   0.689   8.132   9.994 -0.2253 -0.7869 -0.1143
   31MOL   H176 9836   0.659   8.273   9.662  0.1795 -0.3382  0.4542
   31MOL   H177 9837   0.458   8.375   9.558  1.7163 -1.5088 -1.8219
   31MOL   C178 9838   0.694   7.959   9.867  0.0543  0.4135 -0.0420
   31MOL   C179 9839   0.836   7.914   9.872  0.2009 -0.1891 -0.3611
   31MOL   C180 9840   0.934   7.970   9.790 -0.3044 -0.4632  0.9033
   31MOL   C181 9841   1.066   7.932   9.806 -0.2033 -0.4991 -0.2593
   31MOL   C182 9842   1.107   7.836   9.897  0.4471  0.2986 -0.5862
   31MOL   C183 9843   1.247   7.781   9.898  0.1168 -0.9548 -0.0571
   31MOL   C184 9844   1.009   7.772   9.970  0.1080 -0.5317 -0.8532
   31MOL   C185 9845   0.874   7.813   9.960 -0.3174  0.3097  0.2008
   31MOL   H186 9846   0.647   7.932   9.772  1.0130 -0.7244 -0.2053
   31MOL   H187 9847   0.629   7.907   9.937  0.1600  2.2205  1.4401
   31MOL   H188 9848   0.904   8.043   9.716  0.3252 -0.9402  0.1614
   31MOL   H189 9849   1.143   7.985   9.753  1.5151 -0.8259  1.8165
   31MOL   H190 9850   1.310   7.867   9.874  0.4901 -0.7603  1.5739
   31MOL   H191 9851   1.293   7.756   9.993 -2.1716 -1.1930  1.0063
   31MOL   H192 9852   1.039   7.690  10.034 -1.5702 -0.5502 -0.0493
   31MOL   H193 9853   0.805   7.771  10.031 -1.1283 -1.1862 -1.4469
   31MOL   C194 9854   1.277   7.665   9.795 -0.2055  0.0729  0.1946
   31MOL   C195 9855   1.424   7.618   9.811 -0.2547 -0.2821 -0.8762
   31MOL   C196 9856   1.460   7.521   9.905 -0.2063 -0.4790 -0.5221
   31MOL   C197 9857   1.595   7.497   9.934  0.0646 -0.6324 -0.3294
   31MOL   C198 9858   1.699   7.542   9.852  0.0807  0.1956 -0.6355
   31MOL   C199 9859   1.846   7.508   9.870 -0.0476 -0.0843  0.0719
   31MOL   C200 9860   1.663   7.638   9.753  0.1914  0.5877 -0.0858
   31MOL   C201 9861   1.529   7.677   9.733 -0.3266 -0.4816 -0.7970
   31MOL   H202 9862   1.251   7.684   9.691  2.1931  1.5238 -0.1869
   31MOL   H203 9863   1.212   7.581   9.819 -1.1764  1.1817  1.5293
   31MOL   H204 9864   1.381   7.491   9.972  0.7768 -1.1274  0.3660
   31MOL   H205 9865   1.621   7.430  10.015  1.2298  0.7004  0.4226
   31MOL   H206 9866   1.912   7.578   9.820 -1.4268  1.3360  0.1999
   31MOL   H207 9867   1.866   7.520   9.976 -0.6792 -2.6726  0.5296
   31MOL   H208 9868   1.745   7.677   9.694 -0.2742  0.2616 -0.9551
   31MOL   H209 9869   1.499   7.747   9.657 -1.9194  1.3008  1.3707
   31MOL   C210 9870   1.896   7.378   9.818 -0.1491 -0.0105  0.0168
   31MOL   C211 9871   2.045   7.350   9.842  0.3676 -0.0692  0.1926
   31MOL   C212 9872   2.145   7.371   9.742  0.2720  0.1155 -0.4783
   31MOL   C213 9873   2.279   7.354   9.775  0.0948 -0.5869  0.0627
   31MOL   C214 9874   2.317   7.308   9.898 -0.1211 -0.2409 -0.5501
   31MOL   C215 9875   2.466   7.270   9.922  0.6208 -0.0729 -0.2439
   31MOL   C216 9876   2.222   7.287   9.999 -0.6741 -0.4559 -0.0059
   31MOL   C217 9877   2.088   7.316   9.973  0.5868 -0.5811 -0.3673
   31MOL   H218 9878   1.872   7.369   9.712  0.6937 -2.7785  0.0147
   31MOL   H219 9879   1.833   7.299   9.859  1.9291 -2.6718 -1.7426
   31MOL   H220 9880   2.121   7.387   9.638  1.7303  0.4625 -0.7769
   31MOL   H221 9881   2.353   7.369   9.697 -0.0707 -1.9015 -0.3700
   31MOL   H222 9882   2.535   7.338   9.871  0.5190 -1.0131 -1.6577
   31MOL   H223 9883   2.487   7.284  10.028  0.3820 -0.3889 -0.1562
   31MOL   H224 9884   2.236   7.255  10.101 -2.1120 -1.4563 -0.1095
   31MOL   H225 9885   2.017   7.298  10.052 -0.2856 -0.5700 -1.1350
   31MOL   C226 9886   2.493   7.134   9.873 -0.0906 -0.3775 -0.3441
   31MOL   C227 9887   2.646   7.112   9.861 -0.2369 -0.2735  1.0595
   31MOL   C228 9888   2.703   7.089   9.732  0.9508 -0.2908 -0.4930
   31MOL   C229 9889   2.841   7.073   9.729 -1.2774  0.1028  0.3438
   31MOL   C230 9890   2.924   7.077   9.851  0.6773 -0.3676  0.3148
   31MOL   C231 9891   3.075   7.072   9.853  0.3178  0.0565 -0.3076
   31MOL   C232 9892   2.853   7.082   9.974 -0.1001  0.6170  0.5482
   31MOL   C233 9893   2.717   7.102   9.975  0.0337  0.1387  0.7055
   31MOL   H234 9894   2.443   7.118   9.778  1.8795  3.2987 -2.0759
   31MOL   H235 9895   2.444   7.065   9.943 -0.9370 -0.9861 -1.5127
   31MOL   H236 9896   2.642   7.093   9.643  0.1290 -1.1096  0.0196
   31MOL   H237 9897   2.892   7.061   9.634 -0.2700  1.5884  0.6790
   31MOL   H238 9898   3.103   7.100   9.751 -0.0509 -0.9642 -0.7050
   31MOL   H239 9899   3.123   7.145   9.918 -0.3375 -0.1672  0.4262
   31MOL   H240 9900   2.906   7.078  10.068  1.6117 -2.9747 -0.4948
   31MOL   H241 9901   2.687   7.115  10.078  1.9457 -1.5928  1.5167
   31MOL   C242 9902   3.128   6.931   9.892  0.1732  0.2470  0.2933
   31MOL   C243 9903   3.285   6.926   9.883  0.1459 -0.5254  0.7143
   31MOL   C244 9904   3.345   6.911   9.754  0.4963  0.4773  0.3350
   31MOL   C245 9905   3.485   6.894   9.739  0.0059 -0.2556  0.2064
   31MOL   C246 9906   3.560   6.883   9.860  0.1378 -0.5844 -0.0394
   31MOL   C247 9907   3.710   6.846   9.861  0.3190  0.6266 -0.0781
   31MOL   C248 9908   3.494   6.895   9.982 -0.3794  0.6966  0.0689
   31MOL   C249 9909   3.360   6.917   9.999  0.0961  0.1006  0.3757
   31MOL   H250 9910   3.097   6.912   9.995  1.3043 -0.8893  0.4330
   31MOL   H251 9911   3.077   6.857   9.831  0.5914 -0.6156  0.9898
   31MOL   H252 9912   3.280   6.917   9.668 -1.2012 -0.0421  1.5643
   31MOL   H253 9913   3.530   6.886   9.641 -1.1763  1.8092 -0.5329
   31MOL   H254 9914   3.749   6.865   9.761  0.2995 -3.3410 -0.9132
   31MOL   H255 9915   3.757   6.927   9.917  1.3175 -0.5277  0.7774
   31MOL   H256 9916   3.552   6.889  10.073 -0.9865  1.8103  0.5357
   31MOL   H257 9917   3.314   6.914  10.097 -0.8643 -0.0356 -0.0763
   31MOL   C258 9918   3.757   6.706   9.904  0.1418 -0.1052 -0.3075
   31MOL   C259 9919   3.910   6.678   9.899 -0.3238  0.1360  0.2039
   31MOL   C260 9920   3.969   6.635   9.783  0.8557  0.0308 -0.1561
   31MOL   C261 9921   4.109   6.613   9.770  0.0528 -0.8365  0.4035
   31MOL   C262 9922   4.187   6.625   9.884 -0.0083 -0.2538 -0.7152
   31MOL   C263 9923   4.336   6.598   9.879  0.0656 -0.5425  0.3076
   31MOL   C264 9924   4.129   6.668  10.006  0.2952  0.6383 -0.2894
   31MOL   C265 9925   3.996   6.704  10.006  0.3826 -0.5445 -0.6936
   31MOL   H266 9926   3.716   6.630   9.838 -0.9991 -0.1508  0.4294
   31MOL   H267 9927   3.727   6.685  10.007  1.7473  1.8103  0.5979
   31MOL   H268 9928   3.906   6.618   9.697 -0.1330 -1.1332  0.7946
   31MOL   H269 9929   4.153   6.579   9.678 -0.8377 -1.4733  0.1987
   31MOL   H270 9930   4.380   6.647   9.793 -1.4204  0.5786  0.1731
   31MOL   H271 9931   4.391   6.642   9.962  1.0284  0.2512 -0.7388
   31MOL   H272 9932   4.199   6.686  10.086 -1.7789  1.0805  1.4791
   31MOL   H273 9933   3.956   6.752  10.095  0.3054 -3.7258  1.0734
   31MOL   C274 9934   4.369   6.451   9.875 -0.4709 -0.2461 -0.0855
   31MOL   C275 9935   4.523   6.433   9.875  0.2917  1.0268  0.5266
   31MOL   C276 9936   4.595   6.431   9.997 -0.0720 -0.3822  0.4938
   31MOL   C277 9937   4.730   6.390   9.999 -0.1828  0.0373 -0.0072
   31MOL   C278 9938   4.798   6.364   9.875  0.4780 -0.6482  0.1442
   31MOL   C279 9939   4.951   6.323   9.866 -0.3668  0.6944  0.0123
   31MOL   C280 9940   4.722   6.360   9.754 -0.5167 -0.0439  0.3580
   31MOL   C281 9941   4.589   6.392   9.754 -0.2999 -0.0909 -0.0492
   31MOL   H282 9942   4.326   6.400   9.961  0.0094 -0.4594  0.0344
   31MOL   H283 9943   4.332   6.399   9.787  2.8901 -1.1165 -1.0569
   31MOL   H284 9944   4.543   6.450  10.090  1.5762  2.0905  0.9644
   31MOL   H285 9945   4.783   6.383  10.093 -0.8458  3.2435  0.6428
   31MOL   H286 9946   4.992   6.310   9.766 -0.7010  0.8235 -0.1434
   31MOL   H287 9947   5.003   6.406   9.913 -1.1313  1.5548 -0.6477
   31MOL   H288 9948   4.771   6.327   9.663  2.0190 -2.6352  2.5413
   31MOL   H289 9949   4.530   6.375   9.666 -0.0151  1.9864 -0.6645
   31MOL   C290 9950   4.984   6.186   9.933  0.3282 -0.7178  0.2150
   31MOL   C291 9951   5.128   6.161   9.919  0.2923  0.7979 -0.3733
   31MOL   C292 9952   5.214   6.164  10.033 -0.0525  0.2759 -0.3618
   31MOL   C293 9953   5.347   6.129  10.027 -0.7213 -0.3097 -0.5646
   31MOL   C294 9954   5.401   6.097   9.901  0.0240  0.5918 -0.8501
   31MOL   C295 9955   5.548   6.063   9.901 -0.2868 -0.0644  0.4537
   31MOL   C296 9956   5.319   6.084   9.788  0.1669 -0.2835 -0.6818
   31MOL   C297 9957   5.183   6.123   9.795 -0.0046 -0.0040 -0.9550
   31MOL   H298 9958   4.926   6.101   9.896 -0.1265 -0.7177  0.9138
   31MOL   H299 9959   4.956   6.186  10.038 -2.3900  1.4121 -0.4488
   31MOL   H300 9960   5.169   6.184  10.130  0.6729  2.1635 -0.4050
   31MOL   H301 9961   5.406   6.127  10.117 -0.4611  0.8617 -0.7001
   31MOL   H302 9962   5.584   6.061   9.798 -0.1633 -1.4618  0.5129
   31MOL   H303 9963   5.606   6.144   9.943  1.0176 -0.7192 -0.0636
   31MOL   H304 9964   5.355   6.055   9.690 -0.7643  1.1429 -1.4591
   31MOL   H305 9965   5.116   6.107   9.712  0.1139  1.4547 -1.3379
   31MOL   C306 9966   5.564   5.923   9.960  0.3406  0.0209  0.2679
   31MOL   C307 9967   5.703   5.859   9.949 -0.3962  0.3758  0.3750
   31MOL   C308 9968   5.800   5.879  10.048 -0.2837 -0.5114 -0.0915
   31MOL   C309 9969   5.935   5.835  10.028  0.0199  0.3592  0.4435
   31MOL   C310 9970   5.961   5.758   9.910 -0.0549  0.1983  0.7248
   31MOL   C311 9971   6.100   5.714   9.871  0.1230 -0.1420  0.7419
   31MOL   C312 9972   5.862   5.746   9.807  0.2947  0.0802 -0.0531
   31MOL   C313 9973   5.735   5.797   9.827 -0.1233  0.6637  0.1210
   31MOL   H314 9974   5.493   5.853   9.916 -1.6193 -0.5289  4.0833
   31MOL   H315 9975   5.548   5.921  10.068 -0.2407  1.5048  0.2163
   31MOL   H316 9976   5.781   5.932  10.140  1.7068  2.1887 -1.1782
   31MOL   H317 9977   6.019   5.857  10.092 -0.2578 -0.2348  1.0149
   31MOL   H318 9978   6.179   5.765   9.927  0.9055 -0.7662  0.2220
   31MOL   H319 9979   6.107   5.606   9.880 -1.4332 -0.2713  0.5441
   31MOL   H320 9980   5.876   5.686   9.718  1.6450  0.6811 -0.2531
   31MOL   H321 9981   5.665   5.789   9.746 -3.8849  0.6367  3.2300
   31MOL   H322 9982   6.118   5.737   9.766 -1.6863 -0.4892  0.3406
   32MOL     C1 9983   2.983   0.611   5.581 -0.1315  1.5276 -0.0357
   32MOL     C2 9984   3.123   0.567   5.538 -0.0242 -0.5078  0.5997
   32MOL     C3 9985   3.143   0.533   5.403  0.2913  0.1549  0.9041
   32MOL     C4 9986   3.275   0.485   5.363 -0.3680 -0.2024 -0.3347
   32MOL     C5 9987   3.380   0.465   5.452  0.5706  0.5059  0.4456
   32MOL     C6 9988   3.513   0.406   5.409 -0.1970 -0.3447  0.2806
   32MOL     C7 9989   3.352   0.503   5.582 -0.4925  0.6245  0.0951
   32MOL     C8 9990   3.229   0.549   5.626  0.7417 -0.6784  0.3041
   32MOL     H9 9991   2.963   0.598   5.687 -2.3793  2.3334 -0.3501
   32MOL    H10 9992   2.958   0.714   5.558 -3.1957  0.9796  0.7106
   32MOL    H11 9993   3.068   0.547   5.326  0.7281  1.3842  0.6881
   32MOL    H12 9994   3.287   0.455   5.260 -1.3025 -0.2677 -0.4313
   32MOL    H13 9995   3.591   0.481   5.426  1.0932 -1.8718  1.1726
   32MOL    H14 9996   3.544   0.326   5.476 -1.1592  0.1451  1.3376
   32MOL    H15 9997   3.415   0.479   5.666 -0.8668  3.4177  1.2150
   32MOL    H16 9998   3.205   0.579   5.727  1.0889  0.8038 -0.0437
   32MOL    H17 9999   2.910   0.546   5.532  0.6993 -2.3126  3.5101
   32MOL    C1810000   3.514   0.346   5.271  0.3019  0.1849  0.0967
   32MOL    C1910001   3.653   0.292   5.246 -0.3053 -0.4989  0.9118
   32MOL    C2010002   3.706   0.183   5.314  0.0886  0.5535  0.4731
   32MOL    C2110003   3.829   0.126   5.288  0.6343  0.9909 -1.3243
   32MOL    C2210004   3.907   0.169   5.182  0.2565 -0.2073 -0.5241
   32MOL    C2310005   4.039   0.109   5.144  0.5823  0.1110 -0.4795
   32MOL    C2410006   3.856   0.285   5.109  0.0820  0.1457  0.2262
   32MOL    C2510007   3.733   0.343   5.145  0.5370  0.3833  0.4698
   32MOL    H2610008   3.441   0.265   5.265  0.1048  0.3527  0.2373
   32MOL    H2710009   3.495   0.416   5.189  0.9903 -2.6912 -2.6171
   32MOL    H2810010   3.655   0.122   5.387 -0.5011 -2.2492 -2.1827
   32MOL    H2910011   3.864   0.063   5.369 -0.0828  2.6279  0.2954
   32MOL    H3010012   4.079   0.038   5.217 -0.8938 -0.6160 -0.3633
   32MOL    H3110013   4.112   0.189   5.152 -1.9142  2.2019  2.4439
   32MOL    H3210014   3.911   0.326   5.025  0.4143  0.0790  0.4146
   32MOL    H3310015   3.699   0.426   5.084  0.1193  0.0768  0.2833
   32MOL    C3410016   4.039   0.054   5.002  0.5359 -0.5107  0.8106
   32MOL    C3510017   4.169  -0.024   4.971  0.1412 -0.0217 -0.7570
   32MOL    C3610018   4.183  -0.158   5.014 -0.1764 -0.0675 -0.2358
   32MOL    C3710019   4.295  -0.233   4.968 -0.2671 -0.0717 -0.3853
   32MOL    C3810020   4.399  -0.169   4.897 -0.2609 -0.5451  0.0036
   32MOL    C3910021   4.525  -0.241   4.855  0.3501  0.6295 -0.3585
   32MOL    C4010022   4.383  -0.029   4.871 -0.2456  0.3174  0.7009
   32MOL    C4110023   4.266   0.045   4.900  0.0831  0.3164  0.2026
   32MOL    H4210024   4.036   0.142   4.938  1.5781 -0.3110  1.0270
   32MOL    H4310025   3.942   0.004   4.991  0.2897 -0.5830  3.1314
   32MOL    H4410026   4.116  -0.212   5.080  2.1923  0.5215  2.7788
   32MOL    H4510027   4.296  -0.339   4.989 -2.5305 -0.5664 -2.5246
   32MOL    H4610028   4.543  -0.228   4.748  1.8656 -3.0358 -0.6366
   32MOL    H4710029   4.602  -0.188   4.911  1.4500  0.2088 -1.4417
   32MOL    H4810030   4.470   0.018   4.828 -1.3352  1.2324 -0.5274
   32MOL    H4910031   4.250   0.149   4.874  0.7260  0.1872 -0.7425
   32MOL    C5010032   4.521  -0.394   4.877 -0.0938 -0.8759 -0.0772
   32MOL    C5110033   4.642  -0.460   4.810 -0.1362 -0.2270  1.1836
   32MOL    C5210034   4.626  -0.580   4.740  0.3449 -0.7111 -0.3067
   32MOL    C5310035   4.737  -0.642   4.678 -0.0538  0.6824  0.0196
   32MOL    C5410036   4.867  -0.590   4.699 -0.2439 -0.1666 -0.2967
   32MOL    C5510037   4.988  -0.661   4.646  0.1652  0.1056 -0.6829
   32MOL    C5610038   4.887  -0.481   4.793  0.3691  0.2848 -0.5460
   32MOL    C5710039   4.773  -0.409   4.838 -0.7884 -0.3492 -0.2463
   32MOL    H5810040   4.435  -0.440   4.828  2.0419 -2.7531 -2.2242
   32MOL    H5910041   4.528  -0.419   4.982 -1.6741  1.2831  0.5717
   32MOL    H6010042   4.527  -0.615   4.717 -0.6895  2.7313 -1.2974
   32MOL    H6110043   4.721  -0.727   4.614 -2.5110 -0.2551  1.7913
   32MOL    H6210044   5.016  -0.624   4.547 -0.9843  0.4923 -0.8756
   32MOL    H6310045   5.075  -0.640   4.707 -0.1758  0.5045 -0.3294
   32MOL    H6410046   4.988  -0.468   4.829  0.4549 -0.5953 -0.4427
   32MOL    H6510047   4.788  -0.329   4.910  0.2737 -0.7667  0.0098
   32MOL    C6610048   4.965  -0.820   4.624  0.7511 -0.1909 -0.8767
   32MOL    C6710049   5.092  -0.895   4.583  0.6455 -0.0973  0.8378
   32MOL    C6810050   5.106  -0.940   4.449 -0.1986 -0.0299  0.4418
   32MOL    C6910051   5.222  -1.006   4.411  0.0549 -0.0462 -0.2552
   32MOL    C7010052   5.326  -1.028   4.506  0.1011  0.1014  0.4651
   32MOL    C7110053   5.454  -1.103   4.465  0.2166 -0.3714  0.1917
   32MOL    C7210054   5.314  -0.984   4.638  0.6632 -0.5866  0.1739
   32MOL    C7310055   5.191  -0.916   4.677  0.3477  0.1304  0.2723
   32MOL    H7410056   4.874  -0.846   4.570  0.4147  0.1083 -0.4549
   32MOL    H7510057   4.954  -0.857   4.726 -0.1949 -1.3549 -1.3786
   32MOL    H7610058   5.023  -0.929   4.381  0.5473 -1.7522 -0.7976
   32MOL    H7710059   5.236  -1.036   4.308  1.2864 -1.1594  0.2133
   32MOL    H7810060   5.532  -1.104   4.541  1.5506 -0.5480 -1.1742
   32MOL    H7910061   5.488  -1.057   4.372 -0.3855 -0.6192 -0.1570
   32MOL    H8010062   5.397  -0.988   4.708  0.1988  0.4766  0.7980
   32MOL    H8110063   5.174  -0.883   4.778  0.8726 -1.1967  0.8112
   32MOL    C8210064   5.426  -1.254   4.448  0.1565 -0.1713  0.8724
   32MOL    C8310065   5.561  -1.330   4.420  0.6412  0.2376 -0.2134
   32MOL    C8410066   5.644  -1.381   4.521 -0.2506 -0.1103 -0.4542
   32MOL    C8510067   5.754  -1.469   4.495  0.1530 -0.1061  0.8127
   32MOL    C8610068   5.789  -1.500   4.358  0.3834 -0.3839 -0.2343
   32MOL    C8710069   5.888  -1.609   4.329 -0.0193  0.4621 -0.6567
   32MOL    C8810070   5.712  -1.437   4.260  0.3586 -0.0500 -0.7622
   32MOL    C8910071   5.602  -1.355   4.289  0.5404 -0.1624 -0.2993
   32MOL    H9010072   5.360  -1.275   4.365  0.1295  1.7731  0.3786
   32MOL    H9110073   5.375  -1.293   4.536  1.2182 -2.4921  0.4916
   32MOL    H9210074   5.600  -1.382   4.620 -0.5032 -0.0034 -0.5638
   32MOL    H9310075   5.804  -1.514   4.580  1.7326 -1.1390 -0.6282
   32MOL    H9410076   5.939  -1.634   4.422  0.2631  1.7772 -0.4419
   32MOL    H9510077   5.955  -1.567   4.255 -0.8739  2.4601 -0.3509
   32MOL    H9610078   5.733  -1.458   4.156  1.0960  0.3315 -0.6961
   32MOL    H9710079   5.548  -1.315   4.205  0.0465 -0.5630 -0.1750
   32MOL    C9810080   5.814  -1.732   4.274  0.2860 -0.4518 -0.1062
   32MOL    C9910081   5.704  -1.785   4.366  0.3042  0.0836  0.0694
   32MOL   C10010082   5.739  -1.868   4.477 -0.1904 -0.5556  0.9869
   32MOL   C10110083   5.641  -1.905   4.568  0.1467  0.1164 -0.4208
   32MOL   C10210084   5.507  -1.873   4.550  0.1972  0.1838  0.2633
   32MOL   C10310085   5.401  -1.919   4.647  0.1774  0.4237 -0.3019
   32MOL   C10410086   5.480  -1.804   4.429 -0.3481  0.5534  0.1192
   32MOL   C10510087   5.576  -1.751   4.337 -0.0530 -0.0734 -0.1765
   32MOL   H10610088   5.893  -1.800   4.242  0.6041 -0.9266  1.6553
   32MOL   H10710089   5.759  -1.705   4.184  1.3172  0.5707 -0.4409
   32MOL   H10810090   5.845  -1.885   4.489 -0.2861 -2.3035 -0.3865
   32MOL   H10910091   5.672  -1.961   4.655  3.5244  1.5347 -0.6375
   32MOL   H11010092   5.449  -1.955   4.738  0.0952  0.1999 -0.3462
   32MOL   H11110093   5.340  -1.831   4.669  1.8897  1.6432 -0.3142
   32MOL   H11210094   5.379  -1.773   4.412 -0.5042  0.0003  0.0317
   32MOL   H11310095   5.543  -1.676   4.267 -0.2571 -0.8260 -0.8953
   32MOL   C11410096   5.317  -2.029   4.587  0.3089 -0.2920 -1.1143
   32MOL   C11510097   5.184  -2.064   4.673 -0.4310 -0.0593  0.3903
   32MOL   C11610098   5.067  -1.981   4.662 -0.6027 -0.3877  0.0164
   32MOL   C11710099   4.962  -2.003   4.746  0.3569  0.3843 -0.8027
   32MOL   C11810100   4.953  -2.112   4.832 -0.6886 -0.5525 -0.5760
   32MOL   C11910101   4.837  -2.128   4.925  1.3633 -0.1716 -0.0741
   32MOL   C12010102   5.060  -2.205   4.834 -0.1560  0.3429  0.4639
   32MOL   C12110103   5.179  -2.175   4.758 -1.0946 -0.1181  0.1238
   32MOL   H12210104   5.387  -2.111   4.569  0.4217 -0.7861  1.4506
   32MOL   H12310105   5.286  -2.002   4.486 -0.5130 -0.9798 -1.0494
   32MOL   H12410106   5.079  -1.907   4.584  0.5702 -1.5882 -0.9867
   32MOL   H12510107   4.872  -1.943   4.744 -0.8604 -1.3563  0.0344
   32MOL   H12610108   4.853  -2.199   5.006  0.8945 -0.0368  0.1369
   32MOL   H12710109   4.837  -2.038   4.985  3.0582 -0.7111  0.7710
   32MOL   H12810110   5.056  -2.287   4.905 -0.0488  0.7213  0.9028
   32MOL   H12910111   5.264  -2.240   4.772 -0.8371 -0.4745 -2.7227
   32MOL   C13010112   4.702  -2.147   4.846  0.2362 -0.6907  0.1975
   32MOL   C13110113   4.589  -2.127   4.943 -0.1541  0.0762  0.0497
   32MOL   C13210114   4.568  -2.004   5.002 -0.0669 -0.2658 -1.0364
   32MOL   C13310115   4.459  -1.976   5.086  0.1727 -0.0966 -0.1527
   32MOL   C13410116   4.371  -2.082   5.114  0.0086 -0.0800  0.3785
   32MOL   C13510117   4.256  -2.057   5.206  0.3122 -0.0302 -0.2869
   32MOL   C13610118   4.382  -2.201   5.045  0.1977 -0.1394  0.1550
   32MOL   C13710119   4.493  -2.222   4.963 -0.3625  0.4673 -0.4990
   32MOL   H13810120   4.703  -2.241   4.792 -0.7900  0.9959 -2.8741
   32MOL   H13910121   4.692  -2.070   4.770  2.8539  0.8457  1.3388
   32MOL   H14010122   4.638  -1.927   4.973  0.8769 -1.3893 -1.7576
   32MOL   H14110123   4.443  -1.875   5.122 -1.8663 -0.7883  0.9678
   32MOL   H14210124   4.239  -2.145   5.267  0.3113  0.8182  0.9352
   32MOL   H14310125   4.273  -1.976   5.276  1.7709  0.0885 -0.7437
   32MOL   H14410126   4.308  -2.278   5.063  1.4900 -1.1203  1.4758
   32MOL   H14510127   4.500  -2.309   4.898  1.9121  1.3905 -1.5358
   32MOL   C14610128   4.129  -2.028   5.129 -0.6100 -0.4777  0.5554
   32MOL   C14710129   4.007  -2.004   5.210 -0.0205 -0.4653  0.8967
   32MOL   C14810130   3.913  -2.104   5.219  0.5760 -0.3705  0.2210
   32MOL   C14910131   3.796  -2.080   5.295 -0.6327 -0.4091 -1.0430
   32MOL   C15010132   3.770  -1.957   5.347 -0.2952 -0.5137  0.2262
   32MOL   C15110133   3.634  -1.924   5.402  0.5380  0.1740  0.7281
   32MOL   C15210134   3.868  -1.851   5.337 -0.3277 -0.2486 -0.0724
   32MOL   C15310135   3.989  -1.877   5.272  0.2422 -0.1305  0.0606
   32MOL   H15410136   4.108  -2.115   5.066 -1.5616  0.5792 -0.6137
   32MOL   H15510137   4.141  -1.947   5.057 -1.5564  0.1489  1.0910
   32MOL   H15610138   3.932  -2.204   5.182  2.7303  0.4953 -1.1027
   32MOL   H15710139   3.732  -2.161   5.325  0.4962 -0.9192  0.0377
   32MOL   H15810140   3.598  -2.001   5.470 -0.5239 -0.3230 -0.3897
   32MOL   H15910141   3.638  -1.831   5.459  0.1408 -0.1845  1.3483
   32MOL   H16010142   3.843  -1.750   5.366  0.2288 -0.6487  1.8923
   32MOL   H16110143   4.065  -1.801   5.281 -0.7894  0.8367  0.8596
   32MOL   C16210144   3.523  -1.916   5.294 -0.0399  0.0107 -0.2920
   32MOL   C16310145   3.382  -1.928   5.361  0.0117  0.1184  0.3927
   32MOL   C16410146   3.322  -2.053   5.384 -0.6563 -0.5656  0.3561
   32MOL   C16510147   3.196  -2.072   5.443  0.0636 -0.2474 -0.9181
   32MOL   C16610148   3.122  -1.964   5.480  0.7131  0.0436 -0.5243
   32MOL   C16710149   2.977  -1.983   5.527  0.1064 -0.4021  0.3596
   32MOL   C16810150   3.183  -1.836   5.460 -0.8525 -1.3487 -0.4052
   32MOL   C16910151   3.306  -1.812   5.399 -0.3498  0.0185 -0.3986
   32MOL   H17010152   3.537  -1.999   5.224 -0.7000 -1.1619  0.9390
   32MOL   H17110153   3.529  -1.820   5.243  2.9445  0.1951  0.2873
   32MOL   H17210154   3.373  -2.144   5.357 -0.7395 -0.0572 -1.5333
   32MOL   H17310155   3.176  -2.176   5.466  1.6041 -0.5702 -0.9550
   32MOL   H17410156   2.965  -2.090   5.542 -0.7742 -0.2207  0.9400
   32MOL   H17510157   2.959  -1.926   5.618 -1.6942 -0.5743  0.1263
   32MOL   H17610158   3.121  -1.750   5.481 -1.1407 -1.7421  0.3722
   32MOL   H17710159   3.341  -1.710   5.386 -0.1534 -0.3219 -2.8110
   32MOL   C17810160   2.877  -1.939   5.421  0.7305  0.8669 -0.1250
   32MOL   C17910161   2.731  -1.992   5.458 -0.6871 -0.0383 -0.0224
   32MOL   C18010162   2.653  -1.929   5.560 -0.8274  0.6282 -0.2489
   32MOL   C18110163   2.535  -1.982   5.605 -0.0698  0.8413 -0.2142
   32MOL   C18210164   2.483  -2.101   5.540  0.0002 -0.0938  0.3601
   32MOL   C18310165   2.346  -2.152   5.558  0.0650 -0.0819  0.6385
   32MOL   C18410166   2.551  -2.151   5.431 -0.7014  0.4413 -0.3266
   32MOL   C18510167   2.682  -2.108   5.401  0.0550  0.1718 -0.3219
   32MOL   H18610168   2.906  -1.990   5.329  2.5502  0.5737  0.5834
   32MOL   H18710169   2.881  -1.830   5.425 -3.2309  1.0995 -0.2938
   32MOL   H18810170   2.693  -1.841   5.608 -0.6834  0.5403 -0.2116
   32MOL   H18910171   2.483  -1.945   5.692 -0.4072  1.1930 -0.5640
   32MOL   H19010172   2.298  -2.068   5.608 -1.1300  0.8522 -1.9973
   32MOL   H19110173   2.302  -2.142   5.459 -0.8505  1.5498  1.2022
   32MOL   H19210174   2.507  -2.224   5.365  1.7409  1.0734 -2.7012
   32MOL   H19310175   2.732  -2.146   5.313 -1.8920  0.6962 -1.6948
   32MOL   C19410176   2.329  -2.289   5.620  0.5866 -0.7418  0.6888
   32MOL   C19510177   2.184  -2.332   5.652 -0.3594  0.2681 -0.0399
   32MOL   C19610178   2.113  -2.414   5.562  0.0914  0.1180 -0.9026
   32MOL   C19710179   1.981  -2.453   5.590 -0.6203  0.3899 -0.1045
   32MOL   C19810180   1.926  -2.424   5.716  0.2888 -0.2093 -0.1130
   32MOL   C19910181   1.796  -2.490   5.753  0.1176  0.1854  0.0714
   32MOL   C20010182   1.999  -2.354   5.811 -0.2906  0.5558  0.9890
   32MOL   C20110183   2.124  -2.299   5.781 -0.4124  0.4779  0.3874
   32MOL   H20210184   2.392  -2.294   5.708  0.6813 -1.5744  0.5697
   32MOL   H20310185   2.369  -2.354   5.542  0.9863  0.8341 -0.4585
   32MOL   H20410186   2.170  -2.441   5.474  0.1310 -0.1033 -0.8110
   32MOL   H20510187   1.916  -2.501   5.518 -2.2979  0.4330  1.3527
   32MOL   H20610188   1.778  -2.583   5.699  2.9511 -0.7473  0.6912
   32MOL   H20710189   1.807  -2.514   5.859  0.1713  3.4755  0.8616
   32MOL   H20810190   1.944  -2.338   5.903  1.2927  0.2146  1.9990
   32MOL   H20910191   2.183  -2.237   5.848  2.5394 -0.2802 -1.3856
   32MOL   C21010192   1.694  -2.383   5.727 -0.7657  0.1740  0.6322
   32MOL   C21110193   1.554  -2.443   5.757  0.4719  0.6815 -0.1111
   32MOL   C21210194   1.498  -2.420   5.888  0.2069 -0.0380  0.2748
   32MOL   C21310195   1.364  -2.462   5.915  0.8472 -0.7769 -0.1963
   32MOL   C21410196   1.288  -2.514   5.808 -0.3042 -0.7317 -0.7187
   32MOL   C21510197   1.146  -2.558   5.830  0.4431 -0.1194  0.3498
   32MOL   C21610198   1.344  -2.534   5.684  0.0542 -0.0979  0.3203
   32MOL   C21710199   1.480  -2.506   5.655  0.4556  0.3136 -0.0606
   32MOL   H21810200   1.706  -2.342   5.627  0.9211  0.2732  0.8603
   32MOL   H21910201   1.722  -2.291   5.779  1.4949 -1.1242  1.7735
   32MOL   H22010202   1.560  -2.375   5.964  0.3939  0.0517  0.0683
   32MOL   H22110203   1.317  -2.451   6.012 -1.6430 -1.9329 -1.2335
   32MOL   H22210204   1.112  -2.635   5.761  0.6409 -1.0544  1.2954
   32MOL   H22310205   1.141  -2.607   5.927 -0.5488 -0.4353  0.1520
   32MOL   H22410206   1.296  -2.566   5.592 -0.2092 -0.9149  0.7322
   32MOL   H22510207   1.523  -2.516   5.556 -1.4021  0.1175 -0.8634
   32MOL   C22610208   1.047  -2.441   5.835  0.0823 -0.5902  0.2165
   32MOL   C22710209   0.908  -2.483   5.882 -0.7427 -0.3237 -0.1528
   32MOL   C22810210   0.809  -2.532   5.791  0.7900  0.0426  0.2580
   32MOL   C22910211   0.678  -2.550   5.836 -0.6063 -0.5973  0.3242
   32MOL   C23010212   0.652  -2.518   5.970 -0.7637 -0.6096 -0.5007
   32MOL   C23110213   0.510  -2.524   6.013  0.8527 -0.0307 -0.0217
   32MOL   C23210214   0.753  -2.472   6.066  0.3631 -0.4855  0.2668
   32MOL   C23310215   0.878  -2.449   6.016 -0.3158  0.3528 -0.4421
   32MOL   H23410216   1.035  -2.402   5.734  2.2475  1.7452  0.8059
   32MOL   H23510217   1.080  -2.362   5.902  0.0396 -0.9442  0.6638
   32MOL   H23610218   0.834  -2.553   5.688  0.1814  1.0914 -0.1140
   32MOL   H23710219   0.603  -2.591   5.771 -0.1051 -1.0131  0.0000
   32MOL   H23810220   0.469  -2.618   5.975  1.5288 -0.7169  0.9109
   32MOL   H23910221   0.503  -2.530   6.122  0.3570  0.4917 -0.0224
   32MOL   H24010222   0.724  -2.444   6.166  1.5875  0.9806  0.2197
   32MOL   H24110223   0.957  -2.418   6.083  0.9669 -1.7309 -0.9436
   32MOL   C24210224   0.432  -2.397   5.975 -0.0616 -0.4756  0.5871
   32MOL   C24310225   0.283  -2.391   6.014 -0.1560 -0.3130  0.4390
   32MOL   C24410226   0.191  -2.487   5.963 -0.1960 -0.9317 -0.3759
   32MOL   C24510227   0.052  -2.473   5.995 -0.1217  1.0539  0.1210
   32MOL   C24610228   0.004  -2.365   6.072 -0.0124  0.6602 -0.4149
   32MOL   C24710229  -0.149  -2.366   6.109 -0.2732 -0.1068 -1.0329
   32MOL   C24810230   0.101  -2.274   6.125  0.3822  0.4826  0.4578
   32MOL   C24910231   0.234  -2.288   6.097  0.0632  0.0924  0.1008
   32MOL   H25010232   0.493  -2.313   6.008 -0.2828 -0.3764  0.7417
   32MOL   H25110233   0.424  -2.374   5.869 -3.1403 -2.1104  0.3941
   32MOL   H25210234   0.217  -2.563   5.892 -1.5385 -1.5866 -0.1771
   32MOL   H25310235  -0.019  -2.550   5.970  2.5774 -1.0569 -1.2332
   32MOL   H25410236  -0.179  -2.454   6.165  0.0448 -0.9508 -2.1741
   32MOL   H25510237  -0.174  -2.280   6.172 -0.7303 -0.9659 -0.0378
   32MOL   H25610238   0.070  -2.207   6.204 -1.2013  0.7180 -0.3469
   32MOL   H25710239   0.308  -2.228   6.149 -0.1232  0.9707 -0.6254
   32MOL   C25810240  -0.240  -2.345   5.987 -0.2570  0.6352  0.0956
   32MOL   C25910241  -0.387  -2.340   6.020  0.2646  0.7000 -0.4661
   32MOL   C26010242  -0.433  -2.257   6.124  0.5573  0.4455  0.8662
   32MOL   C26110243  -0.575  -2.254   6.145 -0.0235 -0.2159 -0.1656
   32MOL   C26210244  -0.663  -2.337   6.077 -0.6097 -0.5181 -0.0652
   32MOL   C26310245  -0.810  -2.334   6.115 -0.4123 -0.0205 -0.0565
   32MOL   C26410246  -0.612  -2.425   5.980 -0.5821  0.2762 -0.1510
   32MOL   C26510247  -0.475  -2.430   5.955  0.3849 -0.8274 -0.1275
   32MOL   H26610248  -0.220  -2.428   5.920 -0.2256  0.0848  0.7861
   32MOL   H26710249  -0.211  -2.251   5.938 -0.4793  0.7089  0.1037
   32MOL   H26810250  -0.369  -2.198   6.188  0.0825  0.5882  1.2181
   32MOL   H26910251  -0.605  -2.191   6.227  0.5736  0.1022 -0.1827
   32MOL   H27010252  -0.866  -2.419   6.075  0.0103 -0.2788 -0.1006
   32MOL   H27110253  -0.813  -2.338   6.224  0.1486  1.3800  0.0283
   32MOL   H27210254  -0.688  -2.479   5.925 -0.7230  0.1314  0.1895
   32MOL   H27310255  -0.443  -2.493   5.874 -0.6192 -1.4720 -0.0273
   32MOL   C27410256  -0.871  -2.202   6.069  0.3937  0.3870  0.0727
   32MOL   C27510257  -1.024  -2.195   6.068  0.8923  0.1000 -0.2243
   32MOL   C27610258  -1.104  -2.291   6.137  0.0041  0.0461  0.2537
   32MOL   C27710259  -1.247  -2.292   6.127  0.2996  0.6168  0.4596
   32MOL   C27810260  -1.311  -2.185   6.060  0.9751 -0.3212  0.1493
   32MOL   C27910261  -1.456  -2.185   6.062 -0.2030 -0.5380  0.0184
   32MOL   C28010262  -1.234  -2.092   5.993 -0.9977 -0.2176  0.0004
   32MOL   C28110263  -1.094  -2.096   5.993 -0.0221  0.6346  0.0829
   32MOL   H28210264  -0.836  -2.117   6.127  0.7917  0.5241 -0.3635
   32MOL   H28310265  -0.845  -2.185   5.964 -0.9760  4.8348  0.3580
   32MOL   H28410266  -1.044  -2.363   6.191  0.4714  0.0174 -0.2955
   32MOL   H28510267  -1.309  -2.360   6.182  0.8270 -0.1697  0.0831
   32MOL   H28610268  -1.475  -2.128   5.971  0.4495  0.7663  0.6886
   32MOL   H28710269  -1.497  -2.285   6.044 -2.3744  0.5272 -1.1126
   32MOL   H28810270  -1.274  -2.013   5.930  1.1663  1.3786  0.5408
   32MOL   H28910271  -1.031  -2.029   5.937  1.5503 -1.1437 -0.3580
   32MOL   C29010272  -1.511  -2.115   6.179  0.2857 -0.3393  0.4989
   32MOL   C29110273  -1.660  -2.082   6.172  0.4789  0.6075 -0.0877
   32MOL   C29210274  -1.746  -2.160   6.253  0.0775 -0.3671  0.4085
   32MOL   C29310275  -1.882  -2.132   6.255 -0.7985 -0.4354 -0.1125
   32MOL   C29410276  -1.933  -2.030   6.168 -0.5531  1.2373 -0.9503
   32MOL   C29510277  -2.075  -1.984   6.180  0.1808 -0.2205  0.0135
   32MOL   C29610278  -1.844  -1.955   6.088 -0.4855 -0.0436  0.2193
   32MOL   C29710279  -1.713  -1.986   6.092  0.2387  0.1939  0.5406
   32MOL   H29810280  -1.470  -2.014   6.184 -4.6029  2.0009 -2.4342
   32MOL   H29910281  -1.488  -2.164   6.274  1.6986 -2.2737 -0.8070
   32MOL   H30010282  -1.697  -2.239   6.308  1.6628 -1.8617 -2.9611
   32MOL   H30110283  -1.945  -2.185   6.326 -0.8673 -0.6162 -0.3064
   32MOL   H30210284  -2.111  -1.945   6.085  0.6770  0.0992 -0.0415
   32MOL   H30310285  -2.142  -2.070   6.183 -0.2492  0.0248 -1.9965
   32MOL   H30410286  -1.874  -1.865   6.038  0.3129 -0.8131 -1.6974
   32MOL   H30510287  -1.643  -1.926   6.034  0.1355 -0.1257  0.0808
   32MOL   C30610288  -2.115  -1.883   6.287 -0.1251 -0.2526 -0.2208
   32MOL   C30710289  -2.263  -1.847   6.281 -0.0120 -0.0629 -0.1319
   32MOL   C30810290  -2.326  -1.808   6.165 -0.2591 -0.2608 -0.4096
   32MOL   C30910291  -2.464  -1.777   6.165 -1.0713 -0.2284 -0.2071
   32MOL   C31010292  -2.540  -1.777   6.282  0.3042 -0.3778 -0.4373
   32MOL   C31110293  -2.688  -1.741   6.284  0.8426  0.1999 -0.0592
   32MOL   C31210294  -2.474  -1.811   6.399  0.1080  0.0725 -0.0440
   32MOL   C31310295  -2.336  -1.842   6.400  0.4864 -0.2772 -0.4736
   32MOL   H31410296  -2.061  -1.791   6.267 -2.7333  1.2292 -0.7161
   32MOL   H31510297  -2.078  -1.927   6.379  1.1602 -0.5910 -0.8903
   32MOL   H31610298  -2.278  -1.816   6.069 -1.1739 -0.8783 -0.8275
   32MOL   H31710299  -2.515  -1.748   6.075 -1.0243  0.3788 -0.0390
   32MOL   H31810300  -2.709  -1.666   6.360  1.4273  1.2656 -0.9316
   32MOL   H31910301  -2.715  -1.706   6.184 -0.9080 -0.2127  0.2610
   32MOL   H32010302  -2.519  -1.819   6.497  1.0957  0.0003  0.4065
   32MOL   H32110303  -2.296  -1.880   6.492 -0.9380  1.0252  0.7190
   32MOL   H32210304  -2.742  -1.835   6.297  3.3285 -1.1263  1.2601
   33MOL     C110305   3.566   2.748   5.959 -0.2987  0.3298  0.1523
   33MOL     C210306   3.695   2.677   5.950  1.1825 -0.5472  0.0157
   33MOL     C310307   3.715   2.573   5.856  0.0376  0.0981 -0.0107
   33MOL     C410308   3.847   2.518   5.855 -0.0537 -0.1571  0.1121
   33MOL     C510309   3.948   2.551   5.952  0.3393 -0.0958 -0.2914
   33MOL     C610310   4.076   2.479   5.958  0.6484  0.0579 -0.4278
   33MOL     C710311   3.922   2.660   6.033  1.4028  0.4444 -0.9673
   33MOL     C810312   3.795   2.723   6.036  0.4569  0.5144 -0.8957
   33MOL     H910313   3.492   2.677   5.998  0.6606 -0.9482 -0.3304
   33MOL    H1010314   3.584   2.839   6.015  0.3888  0.7294 -0.7234
   33MOL    H1110315   3.631   2.536   5.799  0.0458 -0.0139  0.0514
   33MOL    H1210316   3.875   2.440   5.785  1.3914 -0.2497  0.7720
   33MOL    H1310317   4.095   2.453   5.854 -0.7325 -0.0814 -0.6562
   33MOL    H1410318   4.153   2.551   5.988  0.2887  0.0338  0.5863
   33MOL    H1510319   3.990   2.701   6.108 -0.5549 -0.6962  1.5062
   33MOL    H1610320   3.781   2.803   6.107  2.2525  0.8376 -0.8870
   33MOL    H1710321   3.524   2.788   5.867 -0.0571  1.7877  0.6762
   33MOL    C1810322   4.090   2.356   6.054  0.4385 -0.4509  0.2489
   33MOL    C1910323   4.226   2.297   6.058 -0.1118 -1.0716  0.7945
   33MOL    C2010324   4.329   2.334   6.148  0.3098  0.4412  0.5120
   33MOL    C2110325   4.457   2.271   6.150 -0.0504 -0.0112  0.6105
   33MOL    C2210326   4.482   2.169   6.058 -1.3058 -0.3870 -0.0009
   33MOL    C2310327   4.616   2.099   6.051 -0.0819 -0.2978  0.0131
   33MOL    C2410328   4.381   2.125   5.974  0.3357 -0.1153 -0.6433
   33MOL    C2510329   4.252   2.184   5.974 -0.1340  0.5884 -0.5494
   33MOL    H2610330   4.058   2.368   6.158  1.6734  0.4405  0.5386
   33MOL    H2710331   4.016   2.288   6.012  0.8588  0.1247 -1.4562
   33MOL    H2810332   4.312   2.410   6.223  1.8055  2.0721 -0.7511
   33MOL    H2910333   4.531   2.307   6.220 -0.8338  0.9858  0.9401
   33MOL    H3010334   4.614   2.001   6.003 -1.1649 -0.4236  0.3063
   33MOL    H3110335   4.653   2.088   6.153  0.8141 -2.2523 -0.4970
   33MOL    H3210336   4.404   2.042   5.909  1.2451  0.1557 -0.6844
   33MOL    H3310337   4.187   2.143   5.897  1.0418  1.1082 -1.8545
   33MOL    C3410338   4.705   2.171   5.953 -0.5237  0.9839  0.6278
   33MOL    C3510339   4.840   2.103   5.943 -0.1744  0.5510  0.3114
   33MOL    C3610340   4.864   2.017   5.836  0.1100 -0.4729 -0.4231
   33MOL    C3710341   4.995   1.958   5.819  0.2808 -0.4231  0.1839
   33MOL    C3810342   5.092   1.979   5.922  0.0068  0.3887  0.7932
   33MOL    C3910343   5.227   1.912   5.909 -0.5608 -0.9968  0.0807
   33MOL    C4010344   5.064   2.067   6.032 -0.2714 -0.6850  0.6571
   33MOL    C4110345   4.936   2.128   6.041 -1.0011 -0.4523  0.4143
   33MOL    H4210346   4.713   2.275   5.982  3.2146  0.5950  1.2711
   33MOL    H4310347   4.659   2.171   5.854  0.4721 -2.0706  0.1130
   33MOL    H4410348   4.788   2.007   5.760 -2.0041 -1.2860  1.7647
   33MOL    H4510349   5.016   1.898   5.732 -1.6165  0.4045 -0.8712
   33MOL    H4610350   5.285   1.898   6.000  1.7500  3.1196 -0.6237
   33MOL    H4710351   5.216   1.815   5.861  3.6191 -0.8317 -1.3967
   33MOL    H4810352   5.137   2.081   6.109  0.6971 -0.8280 -0.2224
   33MOL    H4910353   4.915   2.197   6.121  1.0940  2.5424 -1.5136
   33MOL    C5010354   5.321   1.985   5.820  0.4428 -0.5731  0.3837
   33MOL    C5110355   5.465   1.935   5.820  0.4539 -0.2206  0.2206
   33MOL    C5210356   5.501   1.835   5.728  0.2043 -0.0029  0.0699
   33MOL    C5310357   5.641   1.802   5.724  0.4358 -0.4726 -0.1542
   33MOL    C5410358   5.734   1.861   5.808 -0.2150 -0.0477 -0.1569
   33MOL    C5510359   5.878   1.805   5.801 -0.4834 -0.0577  0.2096
   33MOL    C5610360   5.696   1.963   5.895  0.2001 -0.0165 -0.0649
   33MOL    C5710361   5.559   2.000   5.902 -0.3467  1.2900  0.0039
   33MOL    H5810362   5.338   2.092   5.831  2.3403 -0.4724 -2.8850
   33MOL    H5910363   5.294   1.978   5.714  2.9568 -2.4387 -0.1780
   33MOL    H6010364   5.430   1.785   5.664 -0.9957  0.4329  1.0412
   33MOL    H6110365   5.673   1.726   5.655  0.2776 -0.8816  0.2138
   33MOL    H6210366   5.901   1.763   5.899 -0.1452  0.0800  0.1907
   33MOL    H6310367   5.882   1.721   5.731  0.1654  1.9621 -2.2679
   33MOL    H6410368   5.768   2.008   5.963 -0.4692 -1.4500  1.6157
   33MOL    H6510369   5.528   2.072   5.976 -2.4420  3.8479 -3.2376
   33MOL    C6610370   5.994   1.914   5.788 -0.7905 -0.4375  0.4822
   33MOL    C6710371   6.139   1.859   5.779  0.5946  0.0270  0.0237
   33MOL    C6810372   6.238   1.865   5.878 -0.1065  0.3588 -0.3562
   33MOL    C6910373   6.360   1.800   5.858  0.1476 -0.1805  0.0825
   33MOL    C7010374   6.397   1.730   5.742 -0.5016  0.4196  0.1379
   33MOL    C7110375   6.528   1.665   5.715 -0.2233  0.6707  0.2935
   33MOL    C7210376   6.298   1.725   5.638 -0.1731 -0.2765  0.4193
   33MOL    C7310377   6.171   1.799   5.657 -0.1212  0.1646  0.0546
   33MOL    H7410378   5.985   1.980   5.875 -3.3427  1.1702 -0.9093
   33MOL    H7510379   5.975   1.974   5.699  2.0927  0.1433  0.2254
   33MOL    H7610380   6.210   1.918   5.968 -0.8258 -0.9029  0.1821
   33MOL    H7710381   6.437   1.800   5.934  2.1156  0.8772 -1.8655
   33MOL    H7810382   6.539   1.626   5.614 -0.7456 -2.4519  1.3865
   33MOL    H7910383   6.542   1.586   5.790 -1.4922  1.5361  1.4658
   33MOL    H8010384   6.323   1.666   5.551  2.9661  3.5935 -1.4728
   33MOL    H8110385   6.086   1.785   5.592 -1.4356 -0.8696  1.9575
   33MOL    C8210386   6.642   1.766   5.729 -0.7423 -0.1379 -0.5360
   33MOL    C8310387   6.781   1.704   5.707  0.1882 -0.0232  0.6851
   33MOL    C8410388   6.808   1.637   5.585  0.4104 -0.5768 -0.1272
   33MOL    C8510389   6.932   1.573   5.568  0.8398  0.2822  1.0090
   33MOL    C8610390   7.031   1.578   5.670  0.4103 -0.6940 -0.2650
   33MOL    C8710391   7.165   1.509   5.662 -0.1037 -0.2077  0.6904
   33MOL    C8810392   7.008   1.651   5.787  0.3180 -0.8026  0.3733
   33MOL    C8910393   6.882   1.707   5.807 -0.4257 -0.2381  0.1876
   33MOL    H9010394   6.653   1.804   5.831  0.8376 -0.0313 -0.7292
   33MOL    H9110395   6.618   1.851   5.665 -1.5062  1.0545  1.2757
   33MOL    H9210396   6.739   1.629   5.502 -0.1656  0.9027  0.2014
   33MOL    H9310397   6.944   1.528   5.470 -1.6834 -0.0259  0.7926
   33MOL    H9410398   7.179   1.465   5.563  0.5176  1.9369 -0.2227
   33MOL    H9510399   7.174   1.438   5.744 -0.3977  0.3335  1.1986
   33MOL    H9610400   7.085   1.665   5.861  2.8746 -4.1942 -1.5176
   33MOL    H9710401   6.868   1.771   5.893 -0.9135  0.0139 -0.0784
   33MOL    C9810402   7.284   1.608   5.663 -0.3391 -0.0889 -0.6846
   33MOL    C9910403   7.421   1.541   5.653 -0.3453  0.0546 -0.2044
   33MOL   C10010404   7.504   1.541   5.763 -0.2433 -0.2632  0.3267
   33MOL   C10110405   7.634   1.499   5.756 -0.1275  0.1807 -0.0444
   33MOL   C10210406   7.675   1.431   5.640  0.0627 -0.2166  0.2839
   33MOL   C10310407   7.812   1.362   5.638 -0.5349 -0.7368  0.6808
   33MOL   C10410408   7.588   1.423   5.526 -0.2378  0.6895 -0.7304
   33MOL   C10510409   7.458   1.487   5.528  0.4834  0.1355  0.7245
   33MOL   H10610410   7.277   1.649   5.764  1.0139  3.7154 -2.0744
   33MOL   H10710411   7.276   1.692   5.595  0.9027  0.7325  0.1673
   33MOL   H10810412   7.470   1.587   5.854  0.0746  0.4429  0.0892
   33MOL   H10910413   7.696   1.490   5.844  0.9464 -2.1117 -0.9993
   33MOL   H11010414   7.882   1.408   5.707  0.0214  0.4148 -0.6260
   33MOL   H11110415   7.800   1.254   5.649 -1.0640 -1.0226 -2.3236
   33MOL   H11210416   7.612   1.367   5.437 -4.1733 -0.2717 -1.2929
   33MOL   H11310417   7.389   1.481   5.445  0.5426 -2.7079  0.8283
   33MOL   C11410418   7.882   1.380   5.507  0.3454 -0.8993 -0.0370
   33MOL   C11510419   8.021   1.321   5.499 -0.0513 -0.0496  0.7052
   33MOL   C11610420   8.055   1.187   5.518  0.5729  0.2020  0.6585
   33MOL   C11710421   8.189   1.145   5.503 -0.0076  0.2248 -0.1916
   33MOL   C11810422   8.291   1.235   5.479 -0.0422 -0.0912  0.2020
   33MOL   C11910423   8.435   1.210   5.477 -0.1691  0.5932  0.3660
   33MOL   C12010424   8.256   1.371   5.453  0.8759 -0.0843 -0.2129
   33MOL   C12110425   8.122   1.414   5.464  0.3870  0.2657  0.4680
   33MOL   H12210426   7.885   1.483   5.473 -1.8660 -0.7869  0.0191
   33MOL   H12310427   7.820   1.341   5.426 -0.0863  1.4657 -0.8793
   33MOL   H12410428   7.981   1.118   5.553  0.2512  0.4532  0.4772
   33MOL   H12510429   8.212   1.040   5.518 -3.0594 -0.6208 -0.9629
   33MOL   H12610430   8.483   1.296   5.523  0.6945  0.3327 -0.0360
   33MOL   H12710431   8.461   1.128   5.544 -2.0277 -0.5888 -0.3084
   33MOL   H12810432   8.323   1.453   5.437 -0.8095  1.2389 -0.5918
   33MOL   H12910433   8.092   1.516   5.446 -1.9061 -0.4259  0.0846
   33MOL   C13010434   8.502   1.192   5.341 -0.2245 -0.4132 -0.8615
   33MOL   C13110435   8.653   1.171   5.345 -0.2346  0.2464  0.4012
   33MOL   C13210436   8.709   1.043   5.361  0.8112  0.9171 -0.2270
   33MOL   C13310437   8.850   1.027   5.367 -0.1479  0.3504  0.3758
   33MOL   C13410438   8.935   1.142   5.365  0.0001  0.5443  0.4742
   33MOL   C13510439   9.080   1.129   5.374 -0.1716 -0.8868  0.8616
   33MOL   C13610440   8.878   1.267   5.354  0.7351  0.1109 -0.1315
   33MOL   C13710441   8.733   1.282   5.344  0.2591  0.3379 -0.1957
   33MOL   H13810442   8.479   1.283   5.285 -0.8691 -0.1465 -0.1718
   33MOL   H13910443   8.461   1.102   5.293 -0.6683 -0.5863 -0.1696
   33MOL   H14010444   8.642   0.959   5.372  1.3433  0.4177 -0.7510
   33MOL   H14110445   8.881   0.924   5.377 -2.0188 -0.3247 -0.5420
   33MOL   H14210446   9.122   1.214   5.426 -1.1926  0.0979  0.1190
   33MOL   H14310447   9.093   1.046   5.443  2.7451 -2.3112 -1.2779
   33MOL   H14410448   8.942   1.354   5.347 -1.8892  2.1829  0.9071
   33MOL   H14510449   8.692   1.380   5.328  0.3622  0.3593 -0.3294
   33MOL   C14610450   9.138   1.105   5.234 -0.1093 -0.0823  0.4949
   33MOL   C14710451   9.286   1.067   5.241 -0.2669  0.3780  0.9267
   33MOL   C14810452   9.390   1.153   5.232 -0.1254 -0.8164 -0.1486
   33MOL   C14910453   9.525   1.105   5.223  0.0293  0.3069 -0.0843
   33MOL   C15010454   9.555   0.966   5.228 -0.2931 -0.6410  0.0573
   33MOL   C15110455   9.699   0.918   5.215  0.2751  0.6199  0.5731
   33MOL   C15210456   9.442   0.879   5.239 -0.1970  0.5641  0.3516
   33MOL   C15310457   9.310   0.929   5.244 -0.5904  0.0898  0.4770
   33MOL   H15410458   9.125   1.193   5.171 -0.8569 -0.5342  0.0206
   33MOL   H15510459   9.080   1.030   5.181 -0.7042  1.5248 -1.1527
   33MOL   H15610460   9.367   1.259   5.225  1.8569 -0.4325 -1.3738
   33MOL   H15710461   9.607   1.172   5.202  1.3279 -1.3557 -0.3766
   33MOL   H15810462   9.729   0.960   5.119  0.3398  0.0546  0.3482
   33MOL   H15910463   9.749   0.973   5.294  2.1139  1.1040 -0.8778
   33MOL   H16010464   9.461   0.773   5.235  0.5387  0.5515  2.8933
   33MOL   H16110465   9.226   0.862   5.253 -0.0013 -0.7526 -0.2181
   33MOL   C16210466   9.720   0.768   5.220 -0.2173 -0.2490 -0.0151
   33MOL   C16310467   9.866   0.724   5.176  0.5923  0.6416 -0.3360
   33MOL   C16410468   9.949   0.821   5.113  0.4192 -0.1328 -0.3643
   33MOL   C16510469  10.080   0.789   5.073 -0.6101  0.4980  0.3783
   33MOL   C16610470  10.123   0.656   5.088 -0.0678  0.6149  0.7098
   33MOL   C16710471  10.261   0.618   5.040  0.0168 -0.4355 -0.0005
   33MOL   C16810472  10.034   0.552   5.133 -0.0675  0.2946  0.0003
   33MOL   C16910473   9.909   0.591   5.176  0.3158 -0.1891  0.1769
   33MOL   H17010474   9.656   0.716   5.149 -0.6974 -0.2536  0.4200
   33MOL   H17110475   9.704   0.729   5.320  1.3180  2.1505  1.2288
   33MOL   H17210476   9.917   0.923   5.098  1.1765  0.3505  1.2126
   33MOL   H17310477  10.143   0.858   5.020  0.1497  0.2617  0.9610
   33MOL   H17410478  10.264   0.549   4.956 -3.5097  1.3171 -1.6629
   33MOL   H17510479  10.319   0.703   5.003 -0.4949  1.2647  2.9546
   33MOL   H17610480  10.071   0.451   5.133 -3.4205 -0.9955  0.3299
   33MOL   H17710481   9.837   0.523   5.219  1.0210 -0.9845  0.1251
   33MOL   C17810482  10.348   0.553   5.149 -0.0462  0.1334  0.0042
   33MOL   C17910483  10.485   0.508   5.098 -0.3612 -1.1047  0.4415
   33MOL   C18010484  10.507   0.373   5.054  0.4244  0.3968 -0.8144
   33MOL   C18110485  10.634   0.337   4.999  0.5792  0.0758  0.6002
   33MOL   C18210486  10.733   0.437   4.986 -0.8087 -0.2364 -0.0465
   33MOL   C18310487  10.860   0.398   4.916 -0.2917  0.3834  0.7755
   33MOL   C18410488  10.715   0.569   5.038 -0.3313  0.0216 -0.0071
   33MOL   C18510489  10.591   0.600   5.097 -0.3217 -0.0424 -0.0788
   33MOL   H18610490  10.293   0.463   5.175  2.5761 -1.0739  1.5145
   33MOL   H18710491  10.345   0.618   5.237 -2.2984  0.4523 -0.2721
   33MOL   H18810492  10.418   0.312   5.042 -0.2809  0.7022  2.5173
   33MOL   H18910493  10.646   0.238   4.957 -1.0383  0.5297 -0.9432
   33MOL   H19010494  10.856   0.289   4.914  0.9860  0.3309  0.8761
   33MOL   H19110495  10.865   0.448   4.819  1.8680  0.4589  0.8930
   33MOL   H19210496  10.796   0.641   5.032  1.4155 -1.6548  2.3795
   33MOL   H19310497  10.582   0.696   5.145  2.4440  0.9178 -1.3554
   33MOL   C19410498  10.984   0.441   4.998  0.3601 -0.2773 -0.1604
   33MOL   C19510499  11.114   0.390   4.948 -0.2347  0.2358  0.8076
   33MOL   C19610500  11.129   0.261   4.899  0.5161 -0.1004 -0.4800
   33MOL   C19710501  11.254   0.218   4.848 -0.6321  0.0376 -0.4192
   33MOL   C19810502  11.367   0.307   4.860 -0.3516 -0.0320  0.3686
   33MOL   C19910503  11.507   0.267   4.823 -0.6974  0.2409  0.3610
   33MOL   C20010504  11.348   0.435   4.912  0.4600  0.2184 -0.0991
   33MOL   C20110505  11.223   0.481   4.947  0.3559 -0.2158  0.3961
   33MOL   H20210506  10.969   0.430   5.105 -1.2846  0.2911 -0.3078
   33MOL   H20310507  10.983   0.550   4.990 -2.1220 -0.3427 -1.2336
   33MOL   H20410508  11.051   0.187   4.908  0.2038  0.3680  0.6785
   33MOL   H20510509  11.262   0.119   4.805  1.2111  1.4777 -3.5868
   33MOL   H20610510  11.566   0.344   4.772  0.4958 -0.9282 -0.0562
   33MOL   H20710511  11.553   0.259   4.921 -0.8463 -1.3635  0.3063
   33MOL   H20810512  11.431   0.503   4.921  0.0901  0.6517  0.0371
   33MOL   H20910513  11.214   0.586   4.970 -1.6463 -0.5367  1.1569
   33MOL   C21010514  11.518   0.138   4.731 -0.3821 -0.3947  0.1363
   33MOL   C21110515  11.666   0.121   4.685  0.4159  0.7795  0.4548
   33MOL   C21210516  11.739   0.012   4.739  0.5127  0.0952  0.2094
   33MOL   C21310517  11.877  -0.009   4.701 -0.1405  0.0378 -0.0120
   33MOL   C21410518  11.937   0.073   4.608 -0.2823 -0.6121 -0.3621
   33MOL   C21510519  12.084   0.046   4.571 -0.4434 -0.3727 -1.1281
   33MOL   C21610520  11.865   0.184   4.557  0.2480 -0.5693 -0.2478
   33MOL   C21710521  11.728   0.206   4.593 -0.0450 -0.1277 -0.3950
   33MOL   H21810522  11.464   0.137   4.636 -1.4338 -1.2014  0.7277
   33MOL   H21910523  11.474   0.063   4.796 -1.9631  0.9362  0.6332
   33MOL   H22010524  11.693  -0.059   4.806  2.9721 -1.3287  0.4736
   33MOL   H22110525  11.924  -0.096   4.745 -1.6656  0.6779  3.0475
   33MOL   H22210526  12.130   0.144   4.557 -0.0584 -0.7089 -2.2373
   33MOL   H22310527  12.132  -0.002   4.656 -1.0640 -2.3508 -1.8781
   33MOL   H22410528  11.904   0.250   4.481 -2.1629  1.3767  0.1500
   33MOL   H22510529  11.688   0.294   4.546  2.5409  0.5948 -1.3564
   33MOL   C22610530  12.107  -0.049   4.446  0.2072 -0.4304 -0.2210
   33MOL   C22710531  12.252  -0.100   4.451  0.6987 -1.0214  0.6722
   33MOL   C22810532  12.360  -0.008   4.466 -0.3661 -0.3845  0.0544
   33MOL   C22910533  12.490  -0.062   4.473 -0.3656  0.0283  0.0049
   33MOL   C23010534  12.515  -0.200   4.472  0.2032  0.0733  0.2785
   33MOL   C23110535  12.654  -0.253   4.488 -0.3628 -0.6419 -0.6611
   33MOL   C23210536  12.409  -0.286   4.441  0.7345  0.0851 -0.4976
   33MOL   C23310537  12.276  -0.239   4.441  0.0911  0.6582  0.5885
   33MOL   H23410538  12.101   0.025   4.366 -0.4029 -1.0004 -0.6993
   33MOL   H23510539  12.034  -0.129   4.439  0.3906 -0.8344  2.2127
   33MOL   H23610540  12.346   0.099   4.474  0.6899 -0.3423  1.4092
   33MOL   H23710541  12.568   0.013   4.482 -1.3095  1.0732 -0.4158
   33MOL   H23810542  12.693  -0.204   4.577 -2.3078 -1.2205  0.5611
   33MOL   H23910543  12.651  -0.353   4.533 -0.3466  1.3023  3.9837
   33MOL   H24010544  12.421  -0.391   4.420  1.7030 -0.3117  1.8599
   33MOL   H24110545  12.200  -0.309   4.410 -0.3149  0.6578  1.5854
   33MOL   C24210546  12.733  -0.248   4.356 -0.1171 -0.6475  0.6360
   33MOL   C24310547  12.879  -0.295   4.376 -0.5767 -0.0945 -0.2481
   33MOL   C24410548  12.931  -0.413   4.323 -0.1001 -0.2276  0.0977
   33MOL   C24510549  13.068  -0.453   4.342 -0.3059  0.2205  0.2559
   33MOL   C24610550  13.150  -0.369   4.414 -0.7140  0.1553  0.4503
   33MOL   C24710551  13.289  -0.409   4.433 -0.2082  0.1222  0.2981
   33MOL   C24810552  13.101  -0.252   4.471  0.0120  0.1711 -0.5623
   33MOL   C24910553  12.966  -0.211   4.455 -0.2680  0.1409 -0.1680
   33MOL   H25010554  12.684  -0.301   4.274  1.3076 -0.7976 -0.1230
   33MOL   H25110555  12.742  -0.147   4.316  0.7821 -1.2412 -0.6971
   33MOL   H25210556  12.855  -0.458   4.261 -0.5787  0.4838  0.1594
   33MOL   H25310557  13.109  -0.543   4.299 -2.4144 -0.4657 -0.4276
   33MOL   H25410558  13.334  -0.412   4.334  0.1108 -0.7293  0.4654
   33MOL   H25510559  13.348  -0.329   4.479  1.8055 -1.0603 -0.1825
   33MOL   H25610560  13.160  -0.180   4.525 -1.9255  0.9106  0.6489
   33MOL   H25710561  12.930  -0.123   4.505  1.1973  1.2444 -0.9999
   33MOL   C25810562  13.299  -0.545   4.518 -0.2311  0.0525  0.0517
   33MOL   C25910563  13.436  -0.603   4.501  0.6130 -0.4750  0.3288
   33MOL   C26010564  13.546  -0.557   4.584  0.7740  0.4881 -0.2412
   33MOL   C26110565  13.677  -0.616   4.573  0.1833  0.1272  1.0902
   33MOL   C26210566  13.694  -0.726   4.479 -0.7297  0.1326  0.4854
   33MOL   C26310567  13.814  -0.817   4.481  0.5732 -0.2405  0.9357
   33MOL   C26410568  13.586  -0.767   4.397 -0.2349  0.0768 -0.5227
   33MOL   C26510569  13.463  -0.698   4.402  0.8463  0.1739  0.1594
   33MOL   H26610570  13.225  -0.613   4.477 -0.7742  1.4759 -1.3609
   33MOL   H26710571  13.279  -0.507   4.618 -0.9988  2.4622 -0.9950
   33MOL   H26810572  13.528  -0.478   4.656 -0.0075  0.3884 -0.3244
   33MOL   H26910573  13.760  -0.591   4.636 -1.8941  1.0148  3.5545
   33MOL   H27010574  13.843  -0.854   4.382  1.0434 -1.8159  1.6459
   33MOL   H27110575  13.897  -0.757   4.516 -1.2486  1.1631  2.9746
   33MOL   H27210576  13.600  -0.855   4.337 -1.0890  0.5647 -1.4450
   33MOL   H27310577  13.373  -0.732   4.354  1.8963  0.7534 -2.2648
   33MOL   C27410578  13.797  -0.940   4.574  0.1434 -0.4989  0.5675
   33MOL   C27510579  13.907  -1.040   4.557 -0.3720 -0.0120 -0.8104
   33MOL   C27610580  13.877  -1.158   4.485 -0.3092  0.1799 -0.1009
   33MOL   C27710581  13.970  -1.263   4.481  0.8830  0.0020  0.7645
   33MOL   C27810582  14.102  -1.244   4.524  0.5556 -1.0672 -0.7547
   33MOL   C27910583  14.204  -1.355   4.527 -0.5344  0.1451 -0.4421
   33MOL   C28010584  14.128  -1.125   4.598  0.1382 -0.2553 -0.5725
   33MOL   C28110585  14.034  -1.026   4.617  0.9155  0.2692 -0.3373
   33MOL   H28210586  13.788  -0.904   4.676 -0.4488  2.3919 -0.4722
   33MOL   H28310587  13.701  -0.990   4.560  0.2918 -0.4644 -0.6734
   33MOL   H28410588  13.782  -1.190   4.442  0.8015 -0.5386 -2.0753
   33MOL   H28510589  13.942  -1.348   4.421 -0.4066  1.0152 -0.1134
   33MOL   H28610590  14.281  -1.347   4.604 -1.6604 -2.2866  0.9707
   33MOL   H28710591  14.145  -1.443   4.549 -1.3615  0.6892 -0.4845
   33MOL   H28810592  14.229  -1.121   4.637  0.1170  0.6933 -0.6114
   33MOL   H28910593  14.052  -0.937   4.675  1.9642 -0.0621 -0.1355
   33MOL   C29010594  14.271  -1.373   4.390 -0.5008  0.7393  0.2610
   33MOL   C29110595  14.382  -1.478   4.382 -0.1312 -0.3103 -0.0179
   33MOL   C29210596  14.505  -1.446   4.332 -0.5369  0.9292 -0.5115
   33MOL   C29310597  14.606  -1.548   4.330 -0.1586 -0.7478 -0.1622
   33MOL   C29410598  14.577  -1.680   4.363  0.1025  0.0838 -0.2704
   33MOL   C29510599  14.679  -1.789   4.344  0.1824 -0.1211 -0.1503
   33MOL   C29610600  14.449  -1.714   4.402  0.8088 -0.5395 -0.1771
   33MOL   C29710601  14.349  -1.609   4.408 -0.1661  0.4102 -0.1731
   33MOL   H29810602  14.315  -1.277   4.359  1.2577  0.0886  0.6849
   33MOL   H29910603  14.191  -1.406   4.324  0.8026 -0.3390 -0.7993
   33MOL   H30010604  14.533  -1.350   4.291  0.7016  1.4091  1.3691
   33MOL   H30110605  14.707  -1.516   4.308 -0.1488 -0.0034  0.9365
   33MOL   H30210606  14.753  -1.765   4.421 -0.8660 -0.2588  0.9194
   33MOL   H30310607  14.627  -1.881   4.372  2.0033 -0.8355  0.9657
   33MOL   H30410608  14.423  -1.815   4.428 -3.6227  0.8336  1.1192
   33MOL   H30510609  14.252  -1.638   4.444  0.1441 -1.1367 -0.5784
   33MOL   C30610610  14.741  -1.792   4.204 -0.8786  0.8486 -0.4144
   33MOL   C30710611  14.809  -1.923   4.180  0.3850  0.7926 -0.2205
   33MOL   C30810612  14.895  -1.973   4.276  0.3084  0.2831  0.3637
   33MOL   C30910613  14.957  -2.102   4.268 -0.5076  0.1504 -0.3801
   33MOL   C31010614  14.933  -2.183   4.152 -0.7219 -0.6960 -0.0331
   33MOL   C31110615  14.999  -2.318   4.138  0.1490  0.1120  0.5747
   33MOL   C31210616  14.851  -2.127   4.046  0.2056 -0.0505 -0.0350
   33MOL   C31310617  14.798  -1.999   4.062  0.0894  0.5194  0.0415
   33MOL   H31410618  14.815  -1.712   4.215 -0.6912  0.1615  4.2843
   33MOL   H31510619  14.675  -1.758   4.125 -0.3101  1.0144 -0.8259
   33MOL   H31610620  14.910  -1.917   4.367 -0.2365 -0.2308  0.7736
   33MOL   H31710621  15.025  -2.134   4.346 -1.0442 -0.9024 -0.3412
   33MOL   H31810622  14.969  -2.383   4.220  0.0444 -1.1526 -0.4351
   33MOL   H31910623  14.964  -2.386   4.060  0.2001  0.3771  0.3177
   33MOL   H32010624  14.831  -2.181   3.955  3.9805 -0.4951 -0.6786
   33MOL   H32110625  14.735  -1.967   3.980 -1.0950  2.2383  1.5799
   33MOL   H32210626  15.107  -2.305   4.128  0.1717  1.1077  1.9946
   34MOL     C110627   7.706   4.040   1.763  0.0682  0.7279  0.0625
   34MOL     C210628   7.794   4.165   1.749 -0.4724  0.3899 -0.1022
   34MOL     C310629   7.777   4.282   1.824 -0.1872  0.4399  0.4126
   34MOL     C410630   7.837   4.399   1.797  0.1256  0.1412  0.0119
   34MOL     C510631   7.926   4.401   1.686  0.3957  0.1955  0.1625
   34MOL     C610632   7.998   4.521   1.646 -0.0017  0.1099  0.8451
   34MOL     C710633   7.944   4.288   1.601 -0.1391 -0.1270  0.2175
   34MOL     C810634   7.880   4.166   1.633  0.3131 -0.1524 -0.2359
   34MOL     H910635   7.625   4.056   1.834 -0.0365 -1.2450  0.4157
   34MOL    H1010636   7.664   4.005   1.669  0.3994  0.1270  0.1395
   34MOL    H1110637   7.711   4.284   1.910  1.8346 -0.1465  1.9981
   34MOL    H1210638   7.814   4.481   1.863  0.9872  1.0892 -0.8542
   34MOL    H1310639   8.017   4.596   1.723  0.1297 -1.1619  2.0788
   34MOL    H1410640   8.092   4.474   1.619 -0.5416 -1.9198  2.3375
   34MOL    H1510641   8.015   4.282   1.520 -0.6130  1.8852 -0.3584
   34MOL    H1610642   7.905   4.080   1.573 -1.8987 -2.7196  2.3276
   34MOL    H1710643   7.772   3.964   1.805 -0.3813  0.3916  0.1656
   34MOL    C1810644   7.944   4.593   1.521  0.3480 -0.2198 -0.3716
   34MOL    C1910645   7.820   4.668   1.556  0.6974 -0.1317 -0.0844
   34MOL    C2010646   7.695   4.602   1.547 -0.2280  0.3231 -0.5684
   34MOL    C2110647   7.578   4.671   1.572  0.3782  0.4906 -0.2000
   34MOL    C2210648   7.576   4.805   1.606  0.2616  0.1223 -0.7939
   34MOL    C2310649   7.445   4.874   1.645 -0.4646  0.0687  0.0800
   34MOL    C2410650   7.701   4.864   1.626  0.6411  0.3617  0.2783
   34MOL    C2510651   7.819   4.800   1.593  0.2053  0.3897  0.8958
   34MOL    H2610652   8.012   4.663   1.472  1.0175 -0.9906 -0.5614
   34MOL    H2710653   7.927   4.519   1.442 -1.4418 -1.3501  1.0227
   34MOL    H2810654   7.680   4.499   1.520  0.4357  0.8309 -3.0657
   34MOL    H2910655   7.487   4.616   1.557  1.0772 -0.4705 -0.9618
   34MOL    H3010656   7.415   4.840   1.744  2.2899 -1.7873  0.3284
   34MOL    H3110657   7.374   4.841   1.568 -0.4377  2.0229 -0.8003
   34MOL    H3210658   7.702   4.971   1.642  0.2143  0.4654 -0.3689
   34MOL    H3310659   7.919   4.838   1.607  1.0421 -1.3162 -0.2834
   34MOL    C3410660   7.449   5.023   1.647  0.2238 -0.0224  0.1018
   34MOL    C3510661   7.320   5.104   1.667 -0.0491 -0.0429 -0.5289
   34MOL    C3610662   7.195   5.033   1.669 -0.2786 -0.6312  0.0154
   34MOL    C3710663   7.075   5.101   1.671 -0.4191 -0.3489 -0.4871
   34MOL    C3810664   7.079   5.242   1.666  0.3887  0.1480 -0.5553
   34MOL    C3910665   6.954   5.320   1.639 -0.0163  0.0155 -0.0055
   34MOL    C4010666   7.200   5.313   1.675 -0.0073  0.5513 -0.3216
   34MOL    C4110667   7.320   5.246   1.667 -0.6443 -0.1271  1.1307
   34MOL    H4210668   7.481   5.057   1.549 -0.6236 -0.5384 -0.3624
   34MOL    H4310669   7.531   5.061   1.708  2.0605 -1.8510 -1.1558
   34MOL    H4410670   7.200   4.925   1.674 -0.2644 -0.6021  0.6706
   34MOL    H4510671   6.975   5.061   1.665 -0.7277 -0.0132  2.0279
   34MOL    H4610672   6.970   5.411   1.581  1.5461 -0.3486 -0.1599
   34MOL    H4710673   6.892   5.258   1.575  1.6202 -2.9264  1.1607
   34MOL    H4810674   7.201   5.420   1.663 -2.6145  0.6399 -0.1016
   34MOL    H4910675   7.418   5.290   1.669 -1.4293  1.6180  1.3339
   34MOL    C5010676   6.878   5.348   1.769  0.2601 -0.3295 -0.0046
   34MOL    C5110677   6.744   5.424   1.750 -0.3299 -0.0678  0.1957
   34MOL    C5210678   6.731   5.552   1.686  0.3181  0.1075  0.2966
   34MOL    C5310679   6.604   5.610   1.673  0.4738  0.2428 -0.4359
   34MOL    C5410680   6.491   5.552   1.733  0.2496  0.0853 -0.3680
   34MOL    C5510681   6.358   5.626   1.722  0.4747  0.3246  0.1544
   34MOL    C5610682   6.502   5.424   1.787 -0.0757 -0.9032  0.0141
   34MOL    C5710683   6.628   5.363   1.796  0.1908 -0.4395 -0.9466
   34MOL    H5810684   6.946   5.417   1.818 -0.6652  0.7593 -0.2296
   34MOL    H5910685   6.865   5.260   1.832 -1.7029 -1.7943 -2.3577
   34MOL    H6010686   6.822   5.599   1.655 -0.1601 -0.1754 -1.5874
   34MOL    H6110687   6.603   5.714   1.646  1.9627  0.7714  1.4491
   34MOL    H6210688   6.276   5.562   1.756  1.4649 -0.7191  0.5998
   34MOL    H6310689   6.347   5.705   1.795  0.7050  1.6193 -1.1861
   34MOL    H6410690   6.419   5.367   1.826 -0.1535 -0.8123 -0.0191
   34MOL    H6510691   6.635   5.263   1.835  0.4742  0.1752  0.6376
   34MOL    C6610692   6.332   5.666   1.573  0.4708  0.0320  0.1986
   34MOL    C6710693   6.206   5.755   1.549 -0.2861  0.0999  0.2021
   34MOL    C6810694   6.094   5.705   1.480 -0.0786 -0.1988  0.1555
   34MOL    C6910695   5.992   5.798   1.453 -0.0020 -0.1519  0.1539
   34MOL    C7010696   5.992   5.929   1.496 -0.5947 -0.7448 -0.2752
   34MOL    C7110697   5.877   6.026   1.462  0.1174 -0.6821 -0.8666
   34MOL    C7210698   6.100   5.969   1.580  0.4678 -0.0487  0.1756
   34MOL    C7310699   6.207   5.884   1.606 -0.0379 -0.1363  0.6250
   34MOL    H7410700   6.327   5.577   1.510 -0.7744  1.8456 -2.3253
   34MOL    H7510701   6.407   5.732   1.530  0.0730 -0.3438 -1.1152
   34MOL    H7610702   6.096   5.608   1.432  0.0511  0.3541 -0.9639
   34MOL    H7710703   5.906   5.760   1.399  0.3866 -0.5215 -0.1992
   34MOL    H7810704   5.819   5.984   1.380  1.2692  0.5859 -2.3537
   34MOL    H7910705   5.914   6.120   1.421 -1.3555  0.6867  0.8880
   34MOL    H8010706   6.117   6.068   1.619 -1.0123  0.9649 -1.6711
   34MOL    H8110707   6.288   5.924   1.665 -0.5504 -1.2987  2.1395
   34MOL    C8210708   5.796   6.052   1.588 -0.0586  0.4084 -0.0837
   34MOL    C8310709   5.668   6.115   1.537 -0.0286  0.0445  0.3561
   34MOL    C8410710   5.651   6.257   1.534 -0.0822  0.2180 -0.1057
   34MOL    C8510711   5.526   6.318   1.525  0.6322 -0.4186 -0.1039
   34MOL    C8610712   5.412   6.240   1.500 -0.0620 -0.5210 -0.0620
   34MOL    C8710713   5.272   6.297   1.478  0.5675 -1.0664 -0.0874
   34MOL    C8810714   5.423   6.100   1.503 -0.3198  0.0067  0.8408
   34MOL    C8910715   5.548   6.041   1.513  0.1898  0.0169  0.0487
   34MOL    H9010716   5.846   6.121   1.656  1.0549 -0.7580  0.3034
   34MOL    H9110717   5.764   5.960   1.637  2.5158 -0.2359  0.4756
   34MOL    H9210718   5.735   6.321   1.553 -0.5138  0.0612  2.5606
   34MOL    H9310719   5.527   6.425   1.531 -1.7804 -0.2657 -1.6567
   34MOL    H9410720   5.205   6.257   1.554 -0.8286 -0.0503 -0.7634
   34MOL    H9510721   5.240   6.255   1.383 -1.1797  0.6572 -0.2966
   34MOL    H9610722   5.330   6.046   1.491 -0.7421  0.5535  1.6404
   34MOL    H9710723   5.550   5.933   1.513 -0.0817  0.0099  0.5973
   34MOL    C9810724   5.280   6.451   1.457  0.4763  0.0500 -0.1805
   34MOL    C9910725   5.139   6.503   1.439 -0.1276 -0.1429  0.0802
   34MOL   C10010726   5.063   6.518   1.550 -0.8980 -0.1377  0.6783
   34MOL   C10110727   4.924   6.561   1.543  1.0888  0.4359  0.2168
   34MOL   C10210728   4.864   6.583   1.423 -0.6403 -0.0408  0.0016
   34MOL   C10310729   4.717   6.636   1.408 -0.1289  0.3407  0.0563
   34MOL   C10410730   4.944   6.571   1.308  0.2931  0.6689 -0.0022
   34MOL   C10510731   5.083   6.532   1.315  0.6231 -0.1915 -0.5002
   34MOL   H10610732   5.346   6.474   1.372  0.0132  3.2542  0.2771
   34MOL   H10710733   5.321   6.488   1.551  1.4394 -1.0737 -0.1400
   34MOL   H10810734   5.110   6.493   1.643  3.1877 -1.9231 -1.7445
   34MOL   H10910735   4.874   6.564   1.639  2.0826 -0.5217  0.7881
   34MOL   H11010736   4.715   6.705   1.492 -3.2109  1.5005 -0.8893
   34MOL   H11110737   4.698   6.692   1.317 -0.0027 -0.7562 -0.6637
   34MOL   H11210738   4.887   6.591   1.219 -2.2445 -1.6456  1.0461
   34MOL   H11310739   5.132   6.512   1.221  0.7273  1.3358 -0.7958
   34MOL   C11410740   4.603   6.529   1.432  0.3548 -0.4247 -0.4306
   34MOL   C11510741   4.465   6.584   1.441  0.3925 -0.0146 -0.1163
   34MOL   C11610742   4.424   6.660   1.551  0.1652  0.2991 -0.2948
   34MOL   C11710743   4.291   6.713   1.557 -0.2863  0.6204  0.0850
   34MOL   C11810744   4.202   6.679   1.454  0.1408  0.1743 -0.6977
   34MOL   C11910745   4.059   6.738   1.460 -0.1932  0.7649  0.1429
   34MOL   C12010746   4.242   6.602   1.347  0.6097 -0.8442  0.6453
   34MOL   C12110747   4.370   6.553   1.337 -0.9517 -0.2164 -0.0471
   34MOL   H12210748   4.620   6.467   1.520  0.9752  0.0588 -0.2064
   34MOL   H12310749   4.601   6.458   1.349 -1.9599 -0.1929 -0.6018
   34MOL   H12410750   4.494   6.688   1.629  0.8268 -1.6819 -0.1633
   34MOL   H12510751   4.260   6.775   1.639  0.0268 -0.2226  0.8536
   34MOL   H12610752   3.992   6.710   1.379  0.8471  1.4758 -0.9881
   34MOL   H12710753   4.015   6.707   1.554  0.4087  0.1822  0.2366
   34MOL   H12810754   4.173   6.568   1.271 -0.0567  0.3862  0.6838
   34MOL   H12910755   4.395   6.493   1.250  1.9099  0.5247  0.2137
   34MOL   C13010756   4.068   6.890   1.468 -0.3020  0.4921 -0.0443
   34MOL   C13110757   3.940   6.960   1.445  0.6359 -1.2279 -0.4267
   34MOL   C13210758   3.865   7.006   1.554 -0.3478 -0.0976 -0.4488
   34MOL   C13310759   3.744   7.076   1.526 -0.4596  0.0846 -0.8804
   34MOL   C13410760   3.702   7.095   1.391  0.3986 -0.1899 -0.4606
   34MOL   C13510761   3.572   7.169   1.362  0.5253 -0.1414  0.0513
   34MOL   C13610762   3.781   7.052   1.285  0.5269 -0.3974  0.2692
   34MOL   C13710763   3.902   6.986   1.317 -0.7551 -0.5525 -0.5318
   34MOL   H13810764   4.151   6.921   1.405 -0.7086 -0.1285 -0.9029
   34MOL   H13910765   4.092   6.909   1.572  1.0510  1.7943 -0.5802
   34MOL   H14010766   3.894   6.998   1.657  0.7881 -0.7937 -0.8162
   34MOL   H14110767   3.692   7.107   1.615  1.5174 -0.1679  0.3939
   34MOL   H14210768   3.576   7.247   1.286 -0.9610  0.3034  0.3995
   34MOL   H14310769   3.505   7.089   1.331  0.6578 -0.3846  0.3906
   34MOL   H14410770   3.755   7.052   1.181  1.5583 -2.2608 -0.0182
   34MOL   H14510771   3.954   6.945   1.232  2.4354 -0.4979  1.3387
   34MOL   C14610772   3.501   7.237   1.484 -0.4132 -0.1525  0.0588
   34MOL   C14710773   3.353   7.267   1.455  0.0356 -0.1017 -0.8571
   34MOL   C14810774   3.241   7.196   1.508 -0.0037 -0.2900 -0.4377
   34MOL   C14910775   3.110   7.228   1.470  0.1409 -0.0245  0.2937
   34MOL   C15010776   3.087   7.340   1.399 -0.4937 -0.4225  0.5631
   34MOL   C15110777   2.941   7.373   1.368  0.2013 -0.4393  0.5698
   34MOL   C15210778   3.191   7.412   1.345 -0.2101 -0.3690  0.1380
   34MOL   C15310779   3.324   7.375   1.376 -0.0625  0.3461  0.3898
   34MOL   H15410780   3.550   7.332   1.504 -1.6639  0.6721 -0.7276
   34MOL   H15510781   3.498   7.178   1.575  0.9510  0.6280  0.6330
   34MOL   H15610782   3.261   7.112   1.573  1.1477  0.4937  0.2648
   34MOL   H15710783   3.032   7.166   1.512 -0.7262  1.3538  0.7590
   34MOL   H15810784   2.929   7.438   1.281 -2.6771 -0.0578  1.1989
   34MOL   H15910785   2.886   7.282   1.343  0.5178 -0.4217 -0.2214
   34MOL   H16010786   3.184   7.494   1.276 -0.1376 -0.6247 -0.1747
   34MOL   H16110787   3.403   7.430   1.327  1.3390 -2.4873 -0.6531
   34MOL   C16210788   2.874   7.446   1.486 -0.6958  0.1920  0.3548
   34MOL   C16310789   2.726   7.452   1.458  0.8651  0.0564  0.4168
   34MOL   C16410790   2.644   7.374   1.538  0.0829 -0.0470  0.2236
   34MOL   C16510791   2.502   7.377   1.515 -0.3840  0.2063  0.0438
   34MOL   C16610792   2.451   7.454   1.406 -0.3485 -0.4539 -0.3106
   34MOL   C16710793   2.304   7.464   1.384  0.2205 -0.2405 -0.4750
   34MOL   C16810794   2.540   7.544   1.333 -0.4095  0.0177 -0.0361
   34MOL   C16910795   2.675   7.537   1.358 -0.4867 -0.1238  0.4027
   34MOL   H17010796   2.919   7.540   1.518  0.9801 -0.7710  0.8660
   34MOL   H17110797   2.897   7.372   1.562  1.8499 -0.5482 -1.0950
   34MOL   H17210798   2.675   7.312   1.620  1.0023  0.1999  0.0635
   34MOL   H17310799   2.442   7.316   1.580 -1.8515  1.0538 -0.5072
   34MOL   H17410800   2.274   7.387   1.313  0.0111  0.0565 -0.7130
   34MOL   H17510801   2.258   7.431   1.476  0.9796  0.6583  0.2428
   34MOL   H17610802   2.509   7.611   1.254 -0.1428 -0.4479 -0.5475
   34MOL   H17710803   2.742   7.606   1.308  1.8402 -2.7663 -0.2396
   34MOL   C17810804   2.254   7.607   1.355  0.1366 -0.6576  0.7417
   34MOL   C17910805   2.101   7.618   1.366  0.3417  0.5282  0.5262
   34MOL   C18010806   2.030   7.686   1.266 -0.8881  0.1025  0.6526
   34MOL   C18110807   1.894   7.718   1.272 -0.0836 -0.1929  0.0374
   34MOL   C18210808   1.824   7.677   1.384 -0.7203 -0.7006  0.1211
   34MOL   C18310809   1.684   7.721   1.388  0.4674 -0.2805  0.2785
   34MOL   C18410810   1.890   7.609   1.490  0.0006 -0.1306  0.3373
   34MOL   C18510811   2.028   7.585   1.483 -0.1731  0.0529  0.7554
   34MOL   H18610812   2.300   7.634   1.260 -0.6729 -1.4338  0.1331
   34MOL   H18710813   2.291   7.679   1.429 -1.4854 -0.4783  1.3922
   34MOL   H18810814   2.089   7.701   1.176 -2.2316  1.6809  0.0103
   34MOL   H18910815   1.840   7.781   1.202 -0.1793 -2.0148 -1.5781
   34MOL   H19010816   1.658   7.744   1.492 -0.9060  0.5472 -0.2227
   34MOL   H19110817   1.668   7.817   1.338  0.7718  1.7944  4.0023
   34MOL   H19210818   1.830   7.572   1.573 -0.2987  1.2582  0.7463
   34MOL   H19310819   2.073   7.538   1.569  3.4040  0.6868 -0.7110
   34MOL   C19410820   1.585   7.629   1.328  0.4607 -0.3094 -0.7397
   34MOL   C19510821   1.443   7.678   1.363  0.7748  0.6787 -0.3672
   34MOL   C19610822   1.372   7.609   1.458  0.5175  0.5936  0.6604
   34MOL   C19710823   1.236   7.651   1.481  0.1175  0.7809  0.8531
   34MOL   C19810824   1.179   7.749   1.399  0.4178 -0.6013 -0.4045
   34MOL   C19910825   1.033   7.786   1.414 -0.0702  0.2823 -1.6145
   34MOL   C20010826   1.255   7.822   1.310 -0.1580  0.8375  0.0101
   34MOL   C20110827   1.389   7.787   1.288 -0.5686 -0.4204  0.5134
   34MOL   H20210828   1.603   7.539   1.387  1.5493 -0.3156 -1.0724
   34MOL   H20310829   1.610   7.623   1.222  1.1080 -1.6417 -0.5211
   34MOL   H20410830   1.417   7.531   1.519 -0.1508  2.4198  3.6049
   34MOL   H20510831   1.176   7.601   1.555  0.1972  1.7014  1.5513
   34MOL   H20610832   0.997   7.806   1.313 -0.7931 -1.4979 -1.7217
   34MOL   H20710833   0.976   7.698   1.443  1.2223  0.2712  1.0438
   34MOL   H20810834   1.210   7.903   1.255  0.7172  1.2783 -0.0726
   34MOL   H20910835   1.455   7.841   1.222  3.1644 -3.8716  1.1872
   34MOL   C21010836   0.992   7.869   1.533  0.3896 -0.5246 -0.2900
   34MOL   C21110837   0.850   7.913   1.521  0.3227  0.3126  0.9575
   34MOL   C21210838   0.816   8.047   1.516  0.0375  1.0164 -0.6032
   34MOL   C21310839   0.688   8.084   1.489 -0.4159 -0.1069  0.2897
   34MOL   C21410840   0.584   7.992   1.480 -0.4304  0.3624 -0.7455
   34MOL   C21510841   0.452   8.044   1.428  0.4552  0.1282  0.0726
   34MOL   C21610842   0.609   7.859   1.504 -0.5873  0.0392 -0.3758
   34MOL   C21710843   0.744   7.824   1.531 -0.3304  0.1195 -0.2428
   34MOL   H21810844   1.049   7.962   1.535  0.1511 -0.3463 -1.6799
   34MOL   H21910845   1.015   7.817   1.627  0.1624  1.5187  0.9287
   34MOL   H22010846   0.892   8.123   1.510  3.1066 -1.7556  1.1693
   34MOL   H22110847   0.669   8.190   1.495  1.8410  0.4821 -2.0249
   34MOL   H22210848   0.382   7.997   1.496 -0.5297 -0.2368 -1.1718
   34MOL   H22310849   0.462   8.152   1.444 -1.6014  0.3485  0.0772
   34MOL   H22410850   0.545   7.774   1.481  2.4993 -1.8636 -2.2990
   34MOL   H22510851   0.769   7.719   1.538 -0.3426  0.1903  0.8705
   34MOL   C22610852   0.412   8.005   1.282  0.6655 -0.0469  0.3848
   34MOL   C22710853   0.529   8.012   1.189 -0.7400  0.2589 -0.4091
   34MOL   C22810854   0.568   8.131   1.127  0.0338  0.0967 -0.7828
   34MOL   C22910855   0.677   8.136   1.044 -0.3293 -0.4593 -0.0777
   34MOL   C23010856   0.772   8.030   1.041  0.0728 -0.2509 -0.4299
   34MOL   C23110857   0.903   8.033   0.973  0.7152 -0.0983  0.1021
   34MOL   C23210858   0.732   7.906   1.097 -0.0912  0.6072 -0.5928
   34MOL   C23310859   0.611   7.894   1.168 -0.0451 -0.6419  0.0099
   34MOL   H23410860   0.326   8.060   1.246 -0.1133  0.6879  3.2805
   34MOL   H23510861   0.367   7.906   1.279  0.8682 -0.1442  0.4893
   34MOL   H23610862   0.512   8.223   1.120 -0.8801 -0.4848 -1.1645
   34MOL   H23710863   0.707   8.223   0.988  2.4853 -0.0678  1.9275
   34MOL   H23810864   0.920   7.942   0.915 -0.1819 -0.8013  0.9473
   34MOL   H23910865   0.907   8.114   0.900 -1.4115  0.8967  1.0649
   34MOL   H24010866   0.793   7.817   1.085 -1.0646 -0.0592 -0.7006
   34MOL   H24110867   0.586   7.794   1.202 -0.8345 -0.5640 -0.3443
   34MOL   C24210868   1.021   8.076   1.064  0.5002 -0.4313  0.3500
   34MOL   C24310869   1.161   8.040   1.007 -0.2257  1.6731  0.4849
   34MOL   C24410870   1.260   8.137   1.008  0.4943  0.5519  0.4316
   34MOL   C24510871   1.387   8.112   0.947 -0.0625  0.5375 -0.4742
   34MOL   C24610872   1.416   7.980   0.900 -0.3966  0.1072  0.1341
   34MOL   C24710873   1.560   7.950   0.851  0.0549  0.0909  0.1778
   34MOL   C24810874   1.318   7.884   0.910  0.1241  0.5636 -0.4238
   34MOL   C24910875   1.190   7.909   0.960 -0.1667 -0.3215  0.3522
   34MOL   H25010876   1.021   8.179   1.100  1.1831  0.2601 -1.5750
   34MOL   H25110877   0.997   8.025   1.158 -2.2579  0.7358  0.3218
   34MOL   H25210878   1.237   8.230   1.057  1.8700  0.7086  0.8202
   34MOL   H25310879   1.467   8.185   0.946  0.0636  0.4237 -3.3904
   34MOL   H25410880   1.557   7.927   0.744 -1.4083  0.8806  0.0296
   34MOL   H25510881   1.627   8.035   0.856  0.3814 -0.2321  1.4401
   34MOL   H25610882   1.333   7.784   0.870 -2.2715 -0.0647  0.1620
   34MOL   H25710883   1.116   7.831   0.961  0.8373 -1.4195 -3.2996
   34MOL   C25810884   1.619   7.817   0.919  0.7496 -0.4113 -0.0354
   34MOL   C25910885   1.762   7.767   0.878  0.7010 -0.4255  0.8198
   34MOL   C26010886   1.805   7.646   0.934  0.3215 -0.0762  0.2037
   34MOL   C26110887   1.933   7.603   0.916  0.2519 -0.2503 -0.7836
   34MOL   C26210888   2.026   7.679   0.833 -0.3326 -0.2122 -0.4170
   34MOL   C26310889   2.175   7.657   0.820 -0.5420 -0.1208 -0.1052
   34MOL   C26410890   1.980   7.796   0.777 -0.0637 -0.3520  0.4359
   34MOL   C26510891   1.852   7.851   0.805  0.1334 -0.1681 -0.0751
   34MOL   H26610892   1.544   7.738   0.928 -1.5803  1.5654 -1.2250
   34MOL   H26710893   1.643   7.842   1.022 -1.0026  1.1404  0.0307
   34MOL   H26810894   1.734   7.597   0.999 -0.0200 -1.7550 -1.4017
   34MOL   H26910895   1.979   7.518   0.963 -0.1139  0.2146  0.4200
   34MOL   H27010896   2.182   7.549   0.803  1.5730  0.0574 -0.6211
   34MOL   H27110897   2.222   7.697   0.730 -0.2145 -1.4288 -0.5317
   34MOL   H27210898   2.051   7.849   0.716 -1.2699 -0.5645 -1.1892
   34MOL   H27310899   1.829   7.949   0.767 -1.4105 -0.0265  1.2005
   34MOL   C27410900   2.262   7.693   0.933  0.1504  0.1836 -0.4939
   34MOL   C27510901   2.410   7.650   0.923 -0.4329 -0.8622 -0.1950
   34MOL   C27610902   2.507   7.726   0.851  0.4743  0.0965 -0.4772
   34MOL   C27710903   2.644   7.695   0.861  0.4316 -0.1548  0.1256
   34MOL   C27810904   2.688   7.578   0.930 -0.0126 -0.3653  0.2641
   34MOL   C27910905   2.832   7.550   0.956 -0.8275 -0.0962 -0.6887
   34MOL   C28010906   2.594   7.487   0.981 -0.2674 -0.7449  0.2364
   34MOL   C28110907   2.458   7.532   0.988 -0.7421  0.4619  0.1352
   34MOL   H28210908   2.252   7.800   0.950 -1.3492  0.5783 -3.5787
   34MOL   H28310909   2.221   7.641   1.020  2.7920 -1.6980 -0.2983
   34MOL   H28410910   2.488   7.816   0.794 -1.8249 -0.5361 -0.7511
   34MOL   H28510911   2.711   7.776   0.836  0.0929  1.3798  3.8230
   34MOL   H28610912   2.891   7.641   0.946  0.8506 -1.1357 -0.4443
   34MOL   H28710913   2.855   7.520   1.058  1.2841 -1.1371 -1.4483
   34MOL   H28810914   2.631   7.403   1.038  0.2111 -0.4453  0.3809
   34MOL   H28910915   2.379   7.476   1.036  1.2648 -2.3650  0.2417
   34MOL   C29010916   2.898   7.446   0.858  0.5888 -0.1802 -0.1308
   34MOL   C29110917   3.044   7.445   0.864 -0.2094  0.4747 -0.6400
   34MOL   C29210918   3.104   7.384   0.975 -0.1044 -0.3176  0.0657
   34MOL   C29310919   3.241   7.381   0.999  0.0926 -0.5656  0.3837
   34MOL   C29410920   3.326   7.440   0.902 -0.2319  0.0336  0.2480
   34MOL   C29510921   3.476   7.442   0.922  0.2633  0.2506  0.1966
   34MOL   C29610922   3.267   7.513   0.796 -0.5348  0.2671 -0.4014
   34MOL   C29710923   3.130   7.511   0.768  0.7761 -0.5293 -0.7117
   34MOL   H29810924   2.871   7.475   0.757 -1.6853 -2.1729 -0.1332
   34MOL   H29910925   2.855   7.346   0.866 -1.4973  0.5436 -1.8832
   34MOL   H30010926   3.055   7.331   1.056 -0.2766  1.3348  1.0700
   34MOL   H30110927   3.282   7.318   1.077 -1.5899 -0.6579  1.2205
   34MOL   H30210928   3.520   7.541   0.910 -1.3534  1.0781  0.9665
   34MOL   H30310929   3.502   7.426   1.027  0.5483  2.0082  0.3994
   34MOL   H30410930   3.323   7.578   0.730  0.3486  0.7521  0.8158
   34MOL   H30510931   3.090   7.561   0.682 -0.4984 -1.9898 -0.9788
   34MOL   C30610932   3.552   7.364   0.814 -0.1690 -0.3996  0.0178
   34MOL   C30710933   3.695   7.342   0.850 -0.0030  0.1237  0.4011
   34MOL   C30810934   3.736   7.217   0.897 -0.3608  0.7331 -0.2629
   34MOL   C30910935   3.874   7.201   0.937 -1.2682  0.2090 -0.1350
   34MOL   C31010936   3.965   7.304   0.930 -0.8484 -0.6754 -0.8222
   34MOL   C31110937   4.112   7.277   0.968  0.0309  0.7949 -0.8666
   34MOL   C31210938   3.923   7.428   0.888  0.0780 -0.7140  0.1895
   34MOL   C31310939   3.794   7.447   0.847  0.0936 -0.4181 -0.3816
   34MOL   H31410940   3.560   7.415   0.718  1.0555 -0.7593 -0.0794
   34MOL   H31510941   3.500   7.269   0.802 -0.3096 -0.4840  1.1938
   34MOL   H31610942   3.658   7.143   0.908 -0.5863  1.1523  0.9769
   34MOL   H31710943   3.905   7.109   0.986  1.2236  0.1397 -1.7671
   34MOL   H31810944   4.123   7.200   1.045  2.5666  1.0290 -0.9326
   34MOL   H31910945   4.162   7.238   0.879  0.7838 -0.3960  0.0553
   34MOL   H32010946   4.000   7.503   0.890  1.5260 -2.1955  1.3439
   34MOL   H32110947   3.764   7.543   0.808 -0.9035 -1.3613 -2.0049
   34MOL   H32210948   4.160   7.370   0.998 -0.0727  0.8763 -0.9540
   35MOL     C110949   6.477   3.502   1.670  0.8668 -0.2214 -0.5551
   35MOL     C210950   6.610   3.504   1.744  0.5255 -0.5363  0.1529
   35MOL     C310951   6.658   3.623   1.801 -0.4695 -0.0867  0.2372
   35MOL     C410952   6.780   3.624   1.873 -0.3845  0.0113 -0.3100
   35MOL     C510953   6.862   3.507   1.885 -0.1289 -0.5539 -0.4427
   35MOL     C610954   6.989   3.504   1.966 -0.7613 -0.0079 -0.0412
   35MOL     C710955   6.804   3.392   1.831  0.5433 -0.2941 -0.6269
   35MOL     C810956   6.683   3.388   1.757  0.2974 -0.1378 -0.0294
   35MOL     H910957   6.400   3.535   1.740  0.0067 -1.1921 -1.0261
   35MOL    H1010958   6.475   3.556   1.576  0.4771  1.3937  0.3616
   35MOL    H1110959   6.610   3.717   1.780  2.0359  0.9566 -1.0010
   35MOL    H1210960   6.813   3.715   1.923  1.0063 -2.5053  3.6166
   35MOL    H1310961   7.058   3.444   1.907 -0.7701  0.1056 -0.1687
   35MOL    H1410962   7.035   3.603   1.964 -0.5825 -0.0693  0.7612
   35MOL    H1510963   6.866   3.305   1.840  0.2277 -0.3481  1.2359
   35MOL    H1610964   6.639   3.304   1.706 -0.0920  2.1500 -3.6617
   35MOL    H1710965   6.444   3.398   1.660  1.2994 -0.2106 -2.1801
   35MOL    C1810966   6.982   3.434   2.097  0.5034  0.1942 -0.7549
   35MOL    C1910967   7.118   3.429   2.165 -0.8898 -0.1043  0.5716
   35MOL    C2010968   7.211   3.335   2.122 -0.7425  0.6532  0.1481
   35MOL    C2110969   7.343   3.315   2.171 -0.3390 -0.0696  0.6619
   35MOL    C2210970   7.396   3.417   2.254  0.4946 -0.5231 -0.2138
   35MOL    C2310971   7.544   3.424   2.292 -0.2865 -0.1159  0.5972
   35MOL    C2410972   7.303   3.515   2.300 -1.0472  0.1878 -0.3888
   35MOL    C2510973   7.170   3.531   2.248  0.6740 -0.0800  0.5334
   35MOL    H2610974   6.906   3.482   2.158 -0.2174  0.3723 -1.7952
   35MOL    H2710975   6.958   3.329   2.083 -1.7727  0.4506  0.8656
   35MOL    H2810976   7.179   3.265   2.046 -2.9876  0.5334  1.1807
   35MOL    H2910977   7.405   3.240   2.125 -0.7401  1.0825 -1.8605
   35MOL    H3010978   7.562   3.523   2.333  0.5441 -0.8994  2.1559
   35MOL    H3110979   7.597   3.404   2.199 -1.0136  0.0188  0.1510
   35MOL    H3210980   7.338   3.593   2.367 -4.0195  1.9387 -0.7658
   35MOL    H3310981   7.108   3.616   2.273  1.2291  0.7975 -0.9944
   35MOL    C3410982   7.585   3.320   2.394 -0.4901 -0.1739  0.7596
   35MOL    C3510983   7.734   3.315   2.427 -0.0812 -0.6776 -0.0187
   35MOL    C3610984   7.787   3.408   2.523  0.6041  0.0814 -0.2858
   35MOL    C3710985   7.925   3.417   2.541 -0.3387  0.0068  0.1299
   35MOL    C3810986   8.015   3.329   2.472 -0.0186  0.3615 -0.5353
   35MOL    C3910987   8.166   3.340   2.502 -0.7296 -0.2311 -0.2354
   35MOL    C4010988   7.966   3.234   2.385 -0.2839 -0.5762 -0.3759
   35MOL    C4110989   7.828   3.231   2.362 -0.4056 -0.2070 -0.3623
   35MOL    H4210990   7.557   3.223   2.353 -2.8522  0.8331 -0.1281
   35MOL    H4310991   7.530   3.333   2.487  0.2262 -0.2280  1.1951
   35MOL    H4410992   7.732   3.481   2.579 -0.2875 -0.2787 -0.6948
   35MOL    H4510993   7.954   3.502   2.602 -1.1367 -0.5195  1.2581
   35MOL    H4610994   8.229   3.339   2.414  0.1134  1.6869  0.3036
   35MOL    H4710995   8.188   3.441   2.537 -0.6510 -0.7736  1.3300
   35MOL    H4810996   8.035   3.163   2.341 -1.5094 -2.3393  0.5027
   35MOL    H4910997   7.788   3.159   2.292  1.3479  1.5723 -3.3408
   35MOL    C5010998   8.214   3.237   2.607 -0.7140 -0.2810 -0.7411
   35MOL    C5110999   8.371   3.245   2.614 -0.4683 -0.2528 -0.4650
   35MOL    C5211000   8.430   3.300   2.729 -0.1067 -0.4020  0.5773
   35MOL    C5311001   8.567   3.299   2.741  0.5082 -0.0802  0.2883
   35MOL    C5411002   8.648   3.234   2.646  0.0613  0.0853  0.0461
   35MOL    C5511003   8.798   3.224   2.656  0.0377 -0.3667 -0.2944
   35MOL    C5611004   8.588   3.175   2.526  0.0389 -0.0387  0.9264
   35MOL    C5711005   8.450   3.197   2.511  0.0873  0.2800 -0.0202
   35MOL    H5811006   8.179   3.137   2.580 -1.3609 -1.1285  2.9004
   35MOL    H5911007   8.172   3.248   2.707  0.8260  0.0673 -0.1233
   35MOL    H6011008   8.357   3.337   2.799 -1.7596  1.1507 -1.8651
   35MOL    H6111009   8.617   3.326   2.833 -1.6013 -0.4703  1.5758
   35MOL    H6211010   8.842   3.228   2.556 -0.5795  1.2565 -0.5237
   35MOL    H6311011   8.840   3.310   2.708  1.1796  0.7910 -3.0383
   35MOL    H6411012   8.650   3.110   2.466  0.5894  0.3621  1.0582
   35MOL    H6511013   8.404   3.144   2.429  2.9655 -1.7927 -0.3643
   35MOL    C6611014   8.838   3.100   2.731  0.1350 -0.0424 -0.0068
   35MOL    C6711015   8.986   3.099   2.771 -0.0942 -0.1554 -0.3803
   35MOL    C6811016   9.078   3.036   2.685 -0.4841 -0.0446  0.1848
   35MOL    C6911017   9.210   3.031   2.716  0.2403 -0.5250  0.6018
   35MOL    C7011018   9.256   3.079   2.841 -0.0234 -0.0504 -0.0355
   35MOL    C7111019   9.394   3.050   2.877 -0.8531 -0.2587 -0.0947
   35MOL    C7211020   9.169   3.143   2.930 -0.3932  0.4154 -0.4376
   35MOL    C7311021   9.032   3.159   2.891 -0.5216  0.1439  0.1919
   35MOL    H7411022   8.818   3.012   2.671  1.0789  1.1531 -2.1538
   35MOL    H7511023   8.780   3.094   2.823 -0.8078 -0.4472 -0.6286
   35MOL    H7611024   9.043   2.998   2.590  1.6572  1.4954 -1.2583
   35MOL    H7711025   9.271   2.984   2.641 -2.2012  1.5556 -2.8344
   35MOL    H7811026   9.416   3.093   2.975  0.3520  1.8926 -1.2967
   35MOL    H7911027   9.459   3.112   2.816 -1.2299 -1.1241 -1.4091
   35MOL    H8011028   9.200   3.182   3.026  2.2229 -1.1490 -0.5909
   35MOL    H8111029   8.962   3.222   2.944 -0.3302  1.5189 -1.1251
   35MOL    C8211030   9.453   2.906   2.882  0.0691 -1.0111  0.2679
   35MOL    C8311031   9.587   2.895   2.946 -0.1070  0.2770  0.0595
   35MOL    C8411032   9.710   2.894   2.875  1.1716 -0.8133  0.1282
   35MOL    C8511033   9.833   2.889   2.952  0.1283 -0.4046  0.2870
   35MOL    C8611034   9.827   2.873   3.090 -0.0956 -0.1497  0.1945
   35MOL    C8711035   9.957   2.876   3.167 -0.3486 -0.1749 -0.0843
   35MOL    C8811036   9.706   2.882   3.157  0.0259 -0.4235  0.1468
   35MOL    C8911037   9.588   2.889   3.086 -0.0872 -0.6749  0.8988
   35MOL    H9011038   9.470   2.868   2.782  1.4530  0.8656 -0.2342
   35MOL    H9111039   9.386   2.838   2.934  0.3582 -1.3619  0.1815
   35MOL    H9211040   9.715   2.897   2.767 -0.5560  0.8534  0.0649
   35MOL    H9311041   9.927   2.898   2.900  1.0042 -2.1033  1.5374
   35MOL    H9411042   9.930   2.935   3.255 -1.5034 -3.2678  1.7070
   35MOL    H9511043  10.027   2.942   3.114 -1.6038  1.0364 -0.2639
   35MOL    H9611044   9.715   2.884   3.265  0.5646  1.0125  0.0952
   35MOL    H9711045   9.496   2.901   3.141 -0.0496  0.0671  0.8061
   35MOL    C9811046  10.028   2.745   3.201  0.2699 -0.0999  0.3806
   35MOL    C9911047  10.161   2.760   3.273  0.5155 -1.0226 -0.2940
   35MOL   C10011048  10.260   2.667   3.246  0.3783  0.3631  0.4299
   35MOL   C10111049  10.368   2.653   3.328 -0.3211 -0.6355  1.0021
   35MOL   C10211050  10.389   2.748   3.419  0.2812  0.0627 -0.1534
   35MOL   C10311051  10.524   2.738   3.486 -0.2136  0.0653  0.9618
   35MOL   C10411052  10.300   2.850   3.448 -0.1223 -0.1761  0.2989
   35MOL   C10511053  10.179   2.858   3.374  0.1440 -0.0200 -0.3888
   35MOL   H10611054  10.049   2.686   3.111 -0.3878  1.2236 -0.6564
   35MOL   H10711055   9.964   2.679   3.258 -2.0859  0.6983 -1.2736
   35MOL   H10811056  10.248   2.591   3.169  1.1628 -1.1449  1.7707
   35MOL   H10911057  10.431   2.565   3.315 -1.0524 -0.6622 -2.5965
   35MOL   H11011058  10.586   2.659   3.442  1.4925  1.5115  0.6903
   35MOL   H11111059  10.578   2.831   3.470 -1.3066  0.2213 -2.2347
   35MOL   H11211060  10.323   2.937   3.508 -2.4102  0.3903  0.4034
   35MOL   H11311061  10.105   2.935   3.393  3.0192  2.2219  2.2720
   35MOL   C11411062  10.517   2.738   3.639  0.2183  0.2716 -0.1646
   35MOL   C11511063  10.651   2.741   3.715 -0.3009  0.3214  0.4437
   35MOL   C11611064  10.724   2.864   3.722 -0.7967  0.0579  0.4123
   35MOL   C11711065  10.849   2.866   3.789  0.7177  0.5064 -0.4421
   35MOL   C11811066  10.896   2.752   3.855  0.4945 -0.2210  0.5063
   35MOL   C11911067  11.036   2.752   3.917 -0.0887 -0.0642 -0.2451
   35MOL   C12011068  10.821   2.636   3.854 -0.0631  1.0718  0.1123
   35MOL   C12111069  10.703   2.620   3.775 -0.7789  0.4735 -0.3101
   35MOL   H12211070  10.469   2.642   3.661  3.1838 -1.3701 -0.4925
   35MOL   H12311071  10.462   2.818   3.688  1.4519  0.9856  0.0945
   35MOL   H12411072  10.692   2.953   3.669 -1.0131 -1.3578 -1.9056
   35MOL   H12511073  10.901   2.959   3.810  1.9900 -0.6233  1.5058
   35MOL   H12611074  11.047   2.836   3.986  1.9410 -0.9282  0.5246
   35MOL   H12711075  11.054   2.661   3.974  0.1286  1.4196  2.1508
   35MOL   H12811076  10.860   2.552   3.909 -3.2609 -1.4215 -1.2176
   35MOL   H12911077  10.651   2.525   3.778 -0.1522  0.1025 -0.9965
   35MOL   C13011078  11.142   2.783   3.814 -0.1498  0.3567 -0.4382
   35MOL   C13111079  11.274   2.797   3.874 -0.6090  0.4156 -0.7765
   35MOL   C13211080  11.371   2.700   3.848  1.3446 -0.3417 -0.5099
   35MOL   C13311081  11.500   2.699   3.907  0.4439 -0.3873  0.4713
   35MOL   C13411082  11.533   2.808   3.987 -0.2389 -0.5867  1.2039
   35MOL   C13511083  11.663   2.837   4.046 -0.0782  0.0404  0.3950
   35MOL   C13611084  11.437   2.913   4.005 -0.1387  0.0750  0.2190
   35MOL   C13711085  11.309   2.909   3.950 -0.4347  0.8401 -0.1784
   35MOL   H13811086  11.112   2.879   3.770 -1.6981 -0.2205 -0.6966
   35MOL   H13911087  11.136   2.702   3.741 -1.1453  0.3206 -0.3348
   35MOL   H14011088  11.348   2.613   3.789 -0.0958 -1.3111  1.4105
   35MOL   H14111089  11.568   2.615   3.898  1.6070  0.6081 -0.1336
   35MOL   H14211090  11.640   2.846   4.152 -0.0038  0.2594  0.3910
   35MOL   H14311091  11.723   2.747   4.033  3.2914  1.7916  3.1853
   35MOL   H14411092  11.461   2.999   4.065 -3.0548  0.3315  1.1269
   35MOL   H14511093  11.240   2.990   3.966  0.6885  1.6368  0.7707
   35MOL   C14611094  11.736   2.961   3.998  0.0095 -0.3377  0.4148
   35MOL   C14711095  11.882   2.968   4.042 -0.0025  0.3049 -0.0215
   35MOL   C14811096  11.977   2.881   3.979 -0.6483  0.0751 -0.6032
   35MOL   C14911097  12.115   2.890   4.012 -0.5740  0.3053  0.2531
   35MOL   C15011098  12.162   2.989   4.103  0.4723 -0.4271 -0.4103
   35MOL   C15111099  12.312   2.996   4.134  0.2585  0.0774 -0.1478
   35MOL   C15211100  12.066   3.079   4.160 -0.1644  0.3861 -0.3509
   35MOL   C15311101  11.928   3.066   4.131 -0.3846  0.7403 -0.5501
   35MOL   H15411102  11.687   3.053   4.033  1.5805  1.5669 -2.1886
   35MOL   H15511103  11.743   2.968   3.890  0.3473  0.4396  0.4845
   35MOL   H15611104  11.946   2.818   3.898  0.0308 -2.6492  1.1710
   35MOL   H15711105  12.182   2.823   3.960 -2.7446  0.9748 -3.6164
   35MOL   H15811106  12.367   2.970   4.043  0.5714 -0.1400  0.0985
   35MOL   H15911107  12.332   3.102   4.144 -2.1882  0.7990 -2.3145
   35MOL   H16011108  12.087   3.168   4.218 -0.2214  0.1043  0.1066
   35MOL   H16111109  11.857   3.134   4.177 -2.3303 -0.2331 -2.0450
   35MOL   C16211110  12.369   2.923   4.260 -0.3194 -0.0365 -0.3108
   35MOL   C16311111  12.274   2.925   4.376  0.8113 -0.0122  0.2047
   35MOL   C16411112  12.189   2.818   4.402 -0.5202  0.4025  0.1697
   35MOL   C16511113  12.120   2.804   4.527 -0.0086  0.3851  0.2131
   35MOL   C16611114  12.135   2.904   4.622 -0.1080 -0.7618  0.0274
   35MOL   C16711115  12.056   2.897   4.757 -0.8631 -0.3248 -0.1578
   35MOL   C16811116  12.215   3.019   4.589 -0.1445 -0.3136 -0.1773
   35MOL   C16911117  12.279   3.032   4.460 -0.2270  0.0900 -0.1315
   35MOL   H17011118  12.461   2.968   4.297  0.7405  0.6104 -3.5749
   35MOL   H17111119  12.397   2.820   4.240 -0.6129  0.0893 -1.4007
   35MOL   H17211120  12.176   2.744   4.324  0.7030  0.0764  0.2664
   35MOL   H17311121  12.071   2.710   4.546 -0.3056  0.6948  0.9841
   35MOL   H17411122  12.058   2.791   4.782  2.0602 -0.2340  0.1603
   35MOL   H17511123  12.111   2.944   4.839 -1.5491 -0.4514  0.3854
   35MOL   H17611124  12.223   3.103   4.656 -2.9516 -0.5186  0.4700
   35MOL   H17711125  12.332   3.124   4.439 -0.7042  0.0874 -1.4154
   35MOL   C17811126  11.921   2.971   4.758  0.8410 -0.0324 -0.8654
   35MOL   C17911127  11.869   2.983   4.898  0.2771  0.3779  0.0947
   35MOL   C18011128  11.798   2.879   4.962 -0.3614  0.0025 -0.2537
   35MOL   C18111129  11.745   2.895   5.094  0.2304  0.0200  0.2831
   35MOL   C18211130  11.765   3.019   5.161  0.2200  0.5796 -0.1046
   35MOL   C18311131  11.706   3.049   5.301 -0.4999 -0.0728 -0.2746
   35MOL   C18411132  11.835   3.120   5.090 -0.2513  0.3832 -0.1888
   35MOL   C18511133  11.884   3.106   4.963 -0.4213 -0.2457  0.4732
   35MOL   H18611134  11.848   2.920   4.694 -1.6526  0.4076  1.5631
   35MOL   H18711135  11.933   3.068   4.712 -0.4610  1.5148  1.9404
   35MOL   H18811136  11.779   2.792   4.901 -2.3337  1.1894 -1.3905
   35MOL   H18911137  11.688   2.811   5.130 -3.0728  1.4312 -1.4263
   35MOL   H19011138  11.645   3.139   5.299  0.8449  0.8719  0.7782
   35MOL   H19111139  11.629   2.977   5.329 -1.6289  1.1686 -0.1559
   35MOL   H19211140  11.857   3.214   5.138  1.7038 -1.0251  1.7678
   35MOL   H19311141  11.938   3.187   4.918 -0.4560  0.2139  1.2416
   35MOL   C19411142  11.820   3.049   5.410  0.2925 -0.0958  0.6109
   35MOL   C19511143  11.750   3.081   5.542 -0.2184 -0.5917  0.3483
   35MOL   C19611144  11.671   3.200   5.557 -0.0649 -0.0541  0.8179
   35MOL   C19711145  11.615   3.221   5.684  0.8662  0.3087  0.0532
   35MOL   C19811146  11.617   3.124   5.785 -0.6818  0.0490  0.2811
   35MOL   C19911147  11.537   3.144   5.918  0.2779  0.7485  0.3597
   35MOL   C20011148  11.697   3.009   5.771 -0.0848 -0.5557 -0.0033
   35MOL   C20111149  11.769   2.992   5.654 -0.5454 -0.6240  0.3906
   35MOL   H20211150  11.888   3.129   5.382 -1.0154  0.5217 -0.8548
   35MOL   H20311151  11.867   2.950   5.410 -1.6275 -1.0398  0.2037
   35MOL   H20411152  11.653   3.276   5.482  0.5532  0.1274  0.8430
   35MOL   H20511153  11.568   3.316   5.705 -0.7168 -0.4167 -0.1072
   35MOL   H20611154  11.567   3.074   5.995 -1.0258  0.1217  0.3162
   35MOL   H20711155  11.567   3.243   5.950  0.0147  0.2317  2.2762
   35MOL   H20811156  11.716   2.939   5.851 -0.2446  1.8322  2.1853
   35MOL   H20911157  11.846   2.917   5.645 -0.0523 -0.1882  1.0164
   35MOL   C21011158  11.387   3.135   5.898 -0.1181 -0.5850  0.2799
   35MOL   C21111159  11.315   3.197   6.019  0.0895 -0.3727  0.4150
   35MOL   C21211160  11.261   3.329   6.014  0.5469 -0.0283  0.1652
   35MOL   C21311161  11.195   3.374   6.132 -0.0909 -0.6386  0.0359
   35MOL   C21411162  11.166   3.286   6.237 -0.9234 -0.2040  0.0880
   35MOL   C21511163  11.082   3.332   6.358  0.1345  0.2983  0.0780
   35MOL   C21611164  11.221   3.159   6.242 -0.3954  0.3258 -0.7286
   35MOL   C21711165  11.300   3.115   6.134 -0.0695  0.1211  1.0759
   35MOL   H21811166  11.353   3.033   5.880 -1.0939 -0.0547 -1.0522
   35MOL   H21911167  11.347   3.182   5.808 -1.7960 -0.5247  1.0267
   35MOL   H22011168  11.268   3.390   5.925 -0.4830 -3.3370 -2.3261
   35MOL   H22111169  11.153   3.473   6.139 -0.8110 -0.9784  0.5924
   35MOL   H22211170  11.105   3.279   6.450  1.1249  1.3750  0.4595
   35MOL   H22311171  11.112   3.435   6.379  3.0895 -0.7995  1.4341
   35MOL   H22411172  11.207   3.095   6.328 -1.8530  0.5640 -0.7842
   35MOL   H22511173  11.344   3.019   6.151 -0.5314  0.0617  1.9301
   35MOL   C22611174  10.939   3.316   6.336  0.0592  0.1802  0.4964
   35MOL   C22711175  10.865   3.363   6.459 -0.1289  0.2985 -0.0702
   35MOL   C22811176  10.840   3.495   6.501 -0.6214 -0.1535  0.1687
   35MOL   C22911177  10.777   3.525   6.626  0.2511  0.4499  0.4296
   35MOL   C23011178  10.726   3.421   6.709  0.4118  0.2234  0.0026
   35MOL   C23111179  10.652   3.443   6.838 -0.3797  0.8370  0.2298
   35MOL   C23211180  10.753   3.291   6.671  0.3362  0.8535 -0.0119
   35MOL   C23311181  10.823   3.260   6.552  0.6822 -0.1529 -0.8905
   35MOL   H23411182  10.917   3.212   6.314  0.5428 -0.6995  3.8447
   35MOL   H23511183  10.890   3.368   6.253  0.5070  0.2827  0.2989
   35MOL   H23611184  10.869   3.571   6.430  0.1643 -1.8425 -1.3331
   35MOL   H23711185  10.759   3.629   6.651 -0.9014  0.4450 -0.3529
   35MOL   H23811186  10.654   3.549   6.863 -2.1683  0.6605  1.2102
   35MOL   H23911187  10.552   3.411   6.809  0.5555 -1.4820 -0.5877
   35MOL   H24011188  10.726   3.215   6.743  0.8236  1.8132  1.1957
   35MOL   H24111189  10.830   3.157   6.520  0.9468 -0.5376  0.3593
   35MOL   C24211190  10.701   3.369   6.964 -0.6272  0.7453  0.4323
   35MOL   C24311191  10.860   3.378   6.982 -0.3705  0.3129 -0.2664
   35MOL   C24411192  10.930   3.490   6.942 -0.8233  0.3178 -0.5036
   35MOL   C24511193  11.071   3.500   6.939  0.4951 -0.1753 -0.5061
   35MOL   C24611194  11.145   3.391   6.986 -0.7333  0.7573 -0.2308
   35MOL   C24711195  11.299   3.391   6.989 -0.2733  0.0411  0.4778
   35MOL   C24811196  11.071   3.273   7.024  0.1516 -0.5148  0.2538
   35MOL   C24911197  10.933   3.272   7.028 -0.4666  0.1986 -0.7246
   35MOL   H25011198  10.653   3.409   7.053 -3.3198  1.4880 -1.3024
   35MOL   H25111199  10.692   3.261   6.956  1.8654  0.4833  0.8132
   35MOL   H25211200  10.896   3.581   6.894  1.7660  0.5029 -2.0890
   35MOL   H25311201  11.117   3.588   6.895 -0.3826 -0.0414 -1.1803
   35MOL   H25411202  11.341   3.491   7.001 -0.1830  0.0814 -0.1455
   35MOL   H25511203  11.317   3.346   7.086  1.0816 -0.1751  0.1349
   35MOL   H25611204  11.119   3.184   7.061  0.8455 -0.0355  0.5281
   35MOL   H25711205  10.879   3.180   7.045 -1.2071  0.9166  0.8974
   35MOL   C25811206  11.355   3.310   6.877 -0.3231 -0.0432 -0.3648
   35MOL   C25911207  11.497   3.314   6.857 -0.0713 -0.6422  0.6132
   35MOL   C26011208  11.552   3.387   6.750 -0.4343  0.3173  0.4424
   35MOL   C26111209  11.691   3.369   6.714 -0.0208  0.7411  0.1613
   35MOL   C26211210  11.771   3.283   6.793 -0.0051 -0.1305  0.2547
   35MOL   C26311211  11.918   3.261   6.764 -0.2928  0.0653  0.2301
   35MOL   C26411212  11.713   3.216   6.899 -0.0214 -0.3039 -0.2051
   35MOL   C26511213  11.580   3.228   6.931  0.4878 -0.7421 -0.3987
   35MOL   H26611214  11.305   3.333   6.783 -0.5179 -0.8281 -0.4506
   35MOL   H26711215  11.322   3.209   6.899 -0.8434  0.2257  0.1124
   35MOL   H26811216  11.500   3.456   6.687  2.1205  1.8907 -0.0255
   35MOL   H26911217  11.728   3.435   6.636 -3.5054  1.0777 -1.3259
   35MOL   H27011218  11.942   3.355   6.715 -2.6472 -0.0492 -1.1972
   35MOL   H27111219  11.970   3.260   6.861 -0.0562 -0.3312  0.1024
   35MOL   H27211220  11.774   3.140   6.946 -2.2403 -1.8162  0.2843
   35MOL   H27311221  11.533   3.174   7.012  0.5647  0.9027  0.7383
   35MOL   C27411222  11.948   3.148   6.667 -0.3331 -0.2225  0.0639
   35MOL   C27511223  12.097   3.134   6.642  1.0098 -0.1670 -0.2142
   35MOL   C27611224  12.166   3.188   6.531  0.2644 -0.1640  0.8091
   35MOL   C27711225  12.305   3.160   6.515 -0.4367 -0.1755  0.6197
   35MOL   C27811226  12.374   3.072   6.594  0.4743  0.2431  0.3302
   35MOL   C27911227  12.517   3.032   6.571 -0.6481  0.0321 -0.3331
   35MOL   C28011228  12.305   3.018   6.708 -0.1184 -0.1943  0.3792
   35MOL   C28111229  12.172   3.050   6.731  0.5345 -0.7207 -0.5711
   35MOL   H28211230  11.906   3.054   6.704  2.1767 -0.4815  2.4696
   35MOL   H28311231  11.904   3.163   6.569 -0.2905  0.7970  0.2007
   35MOL   H28411232  12.121   3.259   6.463  0.4985 -0.5951  0.2005
   35MOL   H28511233  12.348   3.212   6.431 -0.2888  0.4382  1.0700
   35MOL   H28611234  12.580   3.116   6.542 -1.2240  0.1774 -1.2063
   35MOL   H28711235  12.559   3.016   6.670 -0.9505  2.7790  0.2759
   35MOL   H28811236  12.358   2.946   6.769 -0.2319 -0.9271 -0.3868
   35MOL   H28911237  12.123   3.013   6.820  3.0867 -0.7941  0.8358
   35MOL   C29011238  12.536   2.905   6.478  0.5417 -0.2132 -0.7029
   35MOL   C29111239  12.687   2.877   6.453 -0.3696 -0.5348 -0.7364
   35MOL   C29211240  12.759   2.950   6.361  0.2419 -0.9730  0.2943
   35MOL   C29311241  12.902   2.936   6.338 -0.2491  0.1060 -0.7815
   35MOL   C29411242  12.974   2.849   6.418  0.3650  0.4638 -0.1984
   35MOL   C29511243  13.125   2.823   6.404 -0.2960  0.0485  0.0448
   35MOL   C29611244  12.901   2.774   6.515 -0.3705  0.1560 -0.2597
   35MOL   C29711245  12.760   2.786   6.534  0.6576  0.0352 -0.0438
   35MOL   H29811246  12.472   2.909   6.389  1.2759  0.6256 -1.2018
   35MOL   H29911247  12.487   2.821   6.526 -1.2973  1.1266 -0.2058
   35MOL   H30011248  12.695   3.014   6.301  1.1477 -0.1718  0.1559
   35MOL   H30111249  12.953   3.004   6.271  0.5051 -0.0370 -0.3645
   35MOL   H30211250  13.154   2.913   6.351 -0.3852 -0.4099 -0.7958
   35MOL   H30311251  13.181   2.826   6.498 -0.5733 -1.3007  0.2667
   35MOL   H30411252  12.950   2.696   6.572 -0.3849  0.3073 -0.0414
   35MOL   H30511253  12.702   2.724   6.600  0.3827 -1.5073 -1.7089
   35MOL   C30611254  13.146   2.692   6.331 -0.2726  0.8870  0.0963
   35MOL   C30711255  13.294   2.676   6.309  0.0430  0.1274  0.2940
   35MOL   C30811256  13.368   2.596   6.398  0.2410  0.3484  0.4245
   35MOL   C30911257  13.502   2.566   6.378  0.1690  0.2569 -0.1587
   35MOL   C31011258  13.559   2.625   6.262 -0.1770 -0.9398 -0.4360
   35MOL   C31111259  13.702   2.595   6.233  0.3684 -0.3037 -0.3237
   35MOL   C31211260  13.490   2.710   6.174 -0.1149  0.2306  0.7586
   35MOL   C31311261  13.356   2.738   6.201 -0.1005  0.2687  0.3677
   35MOL   H31411262  13.100   2.701   6.233  0.3444  1.9568 -0.1117
   35MOL   H31511263  13.110   2.612   6.396 -0.8534  1.4824  0.5158
   35MOL   H31611264  13.323   2.554   6.487 -0.2712  1.4463  0.6926
   35MOL   H31711265  13.556   2.503   6.448  0.8453 -0.3713 -1.2442
   35MOL   H31811266  13.730   2.572   6.131  0.6617  0.8567 -0.5189
   35MOL   H31911267  13.755   2.686   6.264 -1.7113  1.0734 -0.6823
   35MOL   H32011268  13.541   2.760   6.093 -1.0200 -0.7576 -0.4279
   35MOL   H32111269  13.302   2.807   6.137  1.8422  1.6295  0.1569
   35MOL   H32211270  13.741   2.524   6.306 -0.7800  0.1269  0.7447
   36MOL     C111271   5.282   7.202   6.246  0.1273  0.8798 -0.1664
   36MOL     C211272   5.380   7.145   6.147 -0.7080 -0.5243 -0.4573
   36MOL     C311273   5.437   7.017   6.172  0.1778  0.5370 -0.4333
   36MOL     C411274   5.546   6.973   6.088  0.3530 -0.6259 -0.9116
   36MOL     C511275   5.593   7.045   5.979  0.4730  0.3985  0.3563
   36MOL     C611276   5.713   6.997   5.903 -0.2377  0.5544 -0.2173
   36MOL     C711277   5.521   7.162   5.946  0.3772 -0.5162  0.4256
   36MOL     C811278   5.414   7.211   6.032 -0.6087 -0.1229  0.2961
   36MOL     H911279   5.205   7.126   6.263  1.6034 -0.2557  1.5966
   36MOL    H1011280   5.318   7.216   6.348 -2.3143 -2.0166  1.2006
   36MOL    H1111281   5.404   6.956   6.255  1.6766  1.1417  0.6256
   36MOL    H1211282   5.590   6.876   6.105 -3.8569 -2.5518 -0.2374
   36MOL    H1311283   5.702   6.890   5.890  1.2403  0.4455 -0.6532
   36MOL    H1411284   5.708   7.032   5.800 -0.3985 -0.1966 -0.4667
   36MOL    H1511285   5.555   7.215   5.858  0.2850  0.0016  0.7069
   36MOL    H1611286   5.353   7.293   5.997 -0.9151 -0.0401  1.0132
   36MOL    H1711287   5.244   7.301   6.223 -0.0062  0.6100 -1.1084
   36MOL    C1811288   5.845   7.045   5.958  0.2091 -0.3489  0.0770
   36MOL    C1911289   5.963   7.012   5.871  0.0005 -0.5443  0.5171
   36MOL    C2011290   5.986   7.086   5.752  0.4587 -0.4765  0.0968
   36MOL    C2111291   6.090   7.050   5.661  0.1181  0.1941  1.4684
   36MOL    C2211292   6.185   6.948   5.698 -0.2029  0.7096  0.2325
   36MOL    C2311293   6.299   6.909   5.608 -0.2830  0.3703 -0.6851
   36MOL    C2411294   6.164   6.877   5.830  0.1601 -1.2027  0.3442
   36MOL    C2511295   6.053   6.912   5.910 -0.0516  0.1939 -0.6353
   36MOL    H2611296   5.833   7.153   5.966  1.6976 -0.0992 -0.7364
   36MOL    H2711297   5.859   7.000   6.056  2.4043 -3.0184 -1.3700
   36MOL    H2811298   5.926   7.173   5.731  0.0431 -1.0778 -1.3046
   36MOL    H2911299   6.097   7.088   5.560 -0.7772 -2.3374  0.3896
   36MOL    H3011300   6.276   6.930   5.504  0.1717 -0.7619 -1.0209
   36MOL    H3111301   6.313   6.801   5.613  2.7050  0.5576 -3.5741
   36MOL    H3211302   6.239   6.808   5.865  2.3361  1.0319  0.2524
   36MOL    H3311303   6.044   6.870   6.010  0.7395 -0.7283 -0.9429
   36MOL    C3411304   6.433   6.972   5.657 -0.8166  0.7271  0.8722
   36MOL    C3511305   6.553   6.939   5.570  1.1337  1.0069  0.4756
   36MOL    C3611306   6.578   6.996   5.444 -0.2744  0.2406 -0.2198
   36MOL    C3711307   6.694   6.957   5.365  0.3103 -0.1826 -0.3345
   36MOL    C3811308   6.779   6.857   5.408  0.4070 -0.2758  0.4465
   36MOL    C3911309   6.904   6.820   5.321 -0.1297  0.2414 -0.5530
   36MOL    C4011310   6.751   6.794   5.527 -0.0888 -0.4254  0.3356
   36MOL    C4111311   6.630   6.827   5.600 -0.2287 -0.4596  0.1969
   36MOL    H4211312   6.470   6.942   5.755  1.0299 -1.1386 -0.3477
   36MOL    H4311313   6.425   7.080   5.674  0.1372  0.5023  2.8650
   36MOL    H4411314   6.509   7.073   5.414 -1.2971 -0.0912  1.2329
   36MOL    H4511315   6.709   7.003   5.268 -0.1222  1.4278  0.3443
   36MOL    H4611316   6.907   6.719   5.281  1.0552 -0.0391  0.2120
   36MOL    H4711317   6.900   6.875   5.227 -2.1965 -1.1186 -1.2885
   36MOL    H4811318   6.816   6.715   5.562 -0.2482 -0.0327  1.5461
   36MOL    H4911319   6.601   6.785   5.695 -2.6121 -0.2625 -0.4313
   36MOL    C5011320   7.043   6.848   5.397  0.0478  0.5752 -0.4713
   36MOL    C5111321   7.172   6.807   5.326 -0.0814  0.1459 -0.0645
   36MOL    C5211322   7.264   6.715   5.381 -0.2909 -0.0540  0.0601
   36MOL    C5311323   7.385   6.678   5.313 -0.1486 -0.3131 -0.1710
   36MOL    C5411324   7.424   6.745   5.198  0.0239  0.6402 -0.1230
   36MOL    C5511325   7.562   6.725   5.135  0.1341 -0.2896 -0.0068
   36MOL    C5611326   7.337   6.841   5.138 -0.2193 -0.5877 -0.3246
   36MOL    C5711327   7.218   6.880   5.211  0.5372 -0.2346  0.1752
   36MOL    H5811328   7.028   6.796   5.492  1.9897  0.2219 -0.3518
   36MOL    H5911329   7.044   6.948   5.439  0.0912 -0.2892  1.7116
   36MOL    H6011330   7.246   6.650   5.465  1.2810  0.4910  0.8442
   36MOL    H6111331   7.451   6.596   5.339  0.7848  0.7769  0.9677
   36MOL    H6211332   7.555   6.756   5.031  0.7352  2.2340  0.6710
   36MOL    H6311333   7.632   6.787   5.191 -1.6802  3.1998 -1.4624
   36MOL    H6411334   7.372   6.889   5.047  1.4898  0.1933  0.7117
   36MOL    H6511335   7.150   6.959   5.183  0.1666  0.2390  2.2695
   36MOL    C6611336   7.635   6.583   5.137 -0.3402 -0.0033 -0.0957
   36MOL    C6711337   7.783   6.607   5.099  0.1193 -0.1704  1.0180
   36MOL    C6811338   7.874   6.616   5.203 -0.0099  0.2986 -0.2350
   36MOL    C6911339   8.000   6.670   5.173 -0.3282 -0.1080  0.0365
   36MOL    C7011340   8.043   6.693   5.041 -0.2893 -0.6023 -0.0692
   36MOL    C7111341   8.182   6.752   5.017 -0.6268  0.1097  0.1482
   36MOL    C7211342   7.953   6.660   4.933  0.4943 -0.6878 -0.2754
   36MOL    C7311343   7.818   6.626   4.963  0.0753  0.0580  0.1060
   36MOL    H7411344   7.582   6.508   5.078 -1.4075  1.1617 -0.6331
   36MOL    H7511345   7.622   6.541   5.237 -1.7004  2.1698  0.6850
   36MOL    H7611346   7.839   6.597   5.303 -0.0621 -3.5467 -0.9184
   36MOL    H7711347   8.059   6.691   5.261 -0.0884 -0.7389  0.0247
   36MOL    H7811348   8.235   6.664   4.983  2.0704  2.0862 -0.9837
   36MOL    H7911349   8.216   6.785   5.115  1.5629 -0.2218 -0.4833
   36MOL    H8011350   7.988   6.690   4.836  0.0778  2.3626  0.4678
   36MOL    H8111351   7.753   6.621   4.877 -2.4249  1.2137  1.8548
   36MOL    C8211352   8.192   6.875   4.927  0.0155  0.4351  0.1773
   36MOL    C8311353   8.076   6.970   4.941  1.0663  0.5266  0.4221
   36MOL    C8411354   8.055   7.041   5.063  0.1425 -0.5694 -0.4447
   36MOL    C8511355   7.940   7.120   5.085 -0.9977  0.0650 -1.1512
   36MOL    C8611356   7.846   7.124   4.986  0.4548  0.7716  0.1415
   36MOL    C8711357   7.711   7.190   5.005  0.6786 -0.6506 -0.2906
   36MOL    C8811358   7.865   7.056   4.864 -0.5597 -0.4405 -0.0624
   36MOL    C8911359   7.984   6.984   4.838 -0.7015 -0.2442  0.3499
   36MOL    H9011360   8.175   6.828   4.830  1.8289  2.7567 -1.3130
   36MOL    H9111361   8.291   6.918   4.938 -0.1175  1.0063 -0.8591
   36MOL    H9211362   8.133   7.038   5.137 -0.2712  1.0834  0.0800
   36MOL    H9311363   7.925   7.173   5.178 -1.2696  2.8883 -2.7391
   36MOL    H9411364   7.687   7.256   4.921  0.0403 -1.0516 -0.4224
   36MOL    H9511365   7.712   7.253   5.094 -0.9777  0.6815 -1.1915
   36MOL    H9611366   7.786   7.064   4.791  1.9778 -1.2280 -3.0092
   36MOL    H9711367   7.991   6.939   4.740 -2.1193  0.4986 -0.1070
   36MOL    C9811368   7.595   7.089   5.008 -0.4122 -0.1771 -0.6338
   36MOL    C9911369   7.450   7.142   5.042  0.1000 -0.5489  0.7983
   36MOL   C10011370   7.360   7.153   4.932 -0.6517 -0.7319 -0.0268
   36MOL   C10111371   7.223   7.176   4.951 -0.0564 -0.4923  0.7022
   36MOL   C10211372   7.175   7.196   5.084 -0.1205  0.3492  0.0873
   36MOL   C10311373   7.029   7.195   5.116  0.1086 -0.0233  0.3787
   36MOL   C10411374   7.270   7.209   5.192  0.6076  0.3898 -0.2822
   36MOL   C10511375   7.406   7.174   5.175  0.8669  0.6895 -0.1696
   36MOL   H10611376   7.622   7.023   5.090 -0.8872  2.6777  1.9478
   36MOL   H10711377   7.594   7.021   4.923 -1.6572 -1.0549  0.0695
   36MOL   H10811378   7.397   7.142   4.831 -1.3858  0.1286 -0.3948
   36MOL   H10911379   7.151   7.161   4.873 -1.0650 -0.0383  1.5335
   36MOL   H11011380   6.971   7.125   5.057  1.2687 -0.4913 -0.2148
   36MOL   H11111381   7.015   7.146   5.212 -0.5920  0.4151  0.5068
   36MOL   H11211382   7.233   7.236   5.289  1.6795  0.5187  0.1052
   36MOL   H11311383   7.472   7.174   5.260 -0.7294  1.9768  1.1052
   36MOL   C11411384   6.959   7.335   5.102  0.1198  0.0124 -0.0996
   36MOL   C11511385   6.817   7.317   5.137 -0.4532  0.2953  0.2881
   36MOL   C11611386   6.721   7.323   5.029 -0.0173 -0.0101 -0.1792
   36MOL   C11711387   6.578   7.317   5.053  0.2174 -0.7603  0.0345
   36MOL   C11811388   6.539   7.305   5.185 -0.1588  0.1493  0.1721
   36MOL   C11911389   6.382   7.298   5.209  0.8493  0.0264  0.1188
   36MOL   C12011390   6.627   7.307   5.293  0.8574 -0.7648  0.6052
   36MOL   C12111391   6.768   7.312   5.273  0.3334  0.3322  0.4279
   36MOL   H12211392   6.980   7.360   4.999  1.6145 -1.4371 -0.1819
   36MOL   H12311393   7.003   7.414   5.163  0.8717  0.3237 -1.0390
   36MOL   H12411394   6.755   7.349   4.930 -1.1218 -0.7050 -0.7515
   36MOL   H12511395   6.514   7.332   4.967  0.0101  0.5121  0.3985
   36MOL   H12611396   6.328   7.249   5.128  0.3904  1.8871 -0.7177
   36MOL   H12711397   6.358   7.246   5.301  0.4367 -0.6548 -0.3666
   36MOL   H12811398   6.587   7.307   5.393 -1.2524  0.8691 -0.1849
   36MOL   H12911399   6.836   7.332   5.353  3.1625 -2.2993 -1.2081
   36MOL   C13011400   6.317   7.438   5.227  0.0125  0.2623 -0.2201
   36MOL   C13111401   6.178   7.430   5.308 -0.9791 -0.7221  0.0948
   36MOL   C13211402   6.066   7.451   5.226 -0.3251  0.1066 -0.3738
   36MOL   C13311403   5.939   7.440   5.285 -0.2912 -0.4817  0.4261
   36MOL   C13411404   5.920   7.406   5.422 -0.3479 -0.6012 -0.1726
   36MOL   C13511405   5.782   7.395   5.477 -0.0331  0.8467 -0.8424
   36MOL   C13611406   6.036   7.387   5.500  0.2261  0.6157 -0.7504
   36MOL   C13711407   6.161   7.398   5.443  0.3330  0.7553 -0.9780
   36MOL   H13811408   6.300   7.492   5.134  0.1821 -1.4517 -1.2611
   36MOL   H13911409   6.392   7.502   5.275 -0.6142  1.8358 -1.2810
   36MOL   H14011410   6.085   7.468   5.121 -0.6988  2.0162 -0.1471
   36MOL   H14111411   5.851   7.450   5.224 -2.3721  0.7816  3.4848
   36MOL   H14211412   5.719   7.337   5.409 -1.0386  0.7232  0.1950
   36MOL   H14311413   5.779   7.325   5.560  0.4729  0.2626 -1.3161
   36MOL   H14411414   6.023   7.366   5.605 -1.9048  1.7461 -0.7751
   36MOL   H14511415   6.251   7.394   5.503  0.6507 -1.7216 -1.5541
   36MOL   C14611416   5.722   7.537   5.500  0.3509  0.3454 -0.5448
   36MOL   C14711417   5.575   7.529   5.556  0.1125  0.1228 -0.1970
   36MOL   C14811418   5.562   7.489   5.687 -0.2024 -0.3023 -0.0325
   36MOL   C14911419   5.433   7.486   5.742  0.1211 -0.5966  0.7700
   36MOL   C15011420   5.321   7.520   5.659  0.4697  0.0142 -0.9297
   36MOL   C15111421   5.181   7.511   5.716  0.2550  0.1738 -0.4479
   36MOL   C15211422   5.334   7.558   5.524 -0.1406 -0.7363 -0.6174
   36MOL   C15311423   5.463   7.553   5.464  0.1414 -0.0759  0.1131
   36MOL   H15411424   5.735   7.583   5.403 -2.5953  0.3445 -0.9903
   36MOL   H15511425   5.784   7.591   5.571 -1.7124 -0.7933  2.2428
   36MOL   H15611426   5.648   7.462   5.745  0.6019  0.3514 -0.8929
   36MOL   H15711427   5.418   7.463   5.846  1.8312  0.1842  1.2076
   36MOL   H15811428   5.118   7.458   5.644 -0.7657  0.2537  0.3788
   36MOL   H15911429   5.183   7.447   5.804 -0.2038 -0.9167 -1.2122
   36MOL   H16011430   5.255   7.605   5.468 -0.6466  1.2414  1.6744
   36MOL   H16111431   5.473   7.567   5.358  1.2242  1.3416  0.3944
   36MOL   C16211432   5.123   7.650   5.753  0.1764 -0.2081 -0.1821
   36MOL   C16311433   4.984   7.653   5.815  0.0346 -1.0671 -0.2908
   36MOL   C16411434   4.978   7.626   5.950  0.1995  0.4670  0.0024
   36MOL   C16511435   4.852   7.619   6.013 -0.1962 -0.4115 -0.4799
   36MOL   C16611436   4.730   7.640   5.936 -0.1039 -0.1009  0.1274
   36MOL   C16711437   4.594   7.650   6.011 -0.3613  0.2524 -0.2089
   36MOL   C16811438   4.744   7.670   5.799 -0.4806 -0.0227  0.4905
   36MOL   C16911439   4.871   7.687   5.738  0.1968 -0.1874 -0.1173
   36MOL   H17011440   5.097   7.707   5.664  1.6039  2.1215  0.8376
   36MOL   H17111441   5.198   7.704   5.811  1.4680  0.2228 -2.2098
   36MOL   H17211442   5.065   7.598   6.009 -0.1041  1.5641  0.9947
   36MOL   H17311443   4.839   7.579   6.112 -0.0649 -0.3622 -0.4435
   36MOL   H17411444   4.524   7.610   5.939  0.4783  0.8555 -1.3755
   36MOL   H17511445   4.588   7.592   6.103 -0.9220  1.3460  0.4557
   36MOL   H17611446   4.650   7.692   5.750 -1.0696 -0.1849  1.5337
   36MOL   H17711447   4.876   7.703   5.631 -1.4881  1.3801  0.0169
   36MOL   C17811448   4.551   7.787   6.048  0.0823 -0.2736 -0.3089
   36MOL   C17911449   4.412   7.777   6.112 -0.1783  0.0116  0.8767
   36MOL   C18011450   4.294   7.814   6.041 -0.5430  1.3352  0.2435
   36MOL   C18111451   4.165   7.813   6.107  0.1354 -1.0734 -0.2596
   36MOL   C18211452   4.163   7.767   6.240 -0.3393 -0.9213  0.5121
   36MOL   C18311453   4.030   7.774   6.327  0.0754 -0.6848 -0.2716
   36MOL   C18411454   4.282   7.726   6.307 -0.4426  0.2500  0.4484
   36MOL   C18511455   4.408   7.736   6.243  0.1358 -0.2495 -0.0297
   36MOL   H18611456   4.558   7.848   5.959  4.6992 -0.3040 -0.0979
   36MOL   H18711457   4.625   7.830   6.116  0.2863  0.4428 -0.9720
   36MOL   H18811458   4.313   7.856   5.943  2.4792 -0.9159 -0.2022
   36MOL   H18911459   4.072   7.844   6.063  0.1197  0.4812  0.8115
   36MOL   H19011460   3.948   7.806   6.263 -0.3279  0.6779  0.9207
   36MOL   H19111461   4.006   7.672   6.359  1.7571 -1.9389 -2.7791
   36MOL   H19211462   4.269   7.691   6.408 -0.2140  2.0363  1.1221
   36MOL   H19311463   4.496   7.715   6.302 -1.1279 -1.0224  1.6347
   36MOL   C19411464   4.032   7.880   6.436  0.3946  0.0351  0.2964
   36MOL   C19511465   3.900   7.886   6.511 -0.1545 -0.7413 -0.3741
   36MOL   C19611466   3.791   7.956   6.456  0.1528  0.3556 -0.1238
   36MOL   C19711467   3.670   7.969   6.526  0.0569  0.2281 -0.1137
   36MOL   C19811468   3.652   7.906   6.649  0.4280  0.1325  0.5513
   36MOL   C19911469   3.521   7.928   6.717  0.4459 -1.3698  0.0985
   36MOL   C20011470   3.762   7.842   6.711 -0.4111  0.0778 -0.6736
   36MOL   C20111471   3.886   7.834   6.646 -0.1478  0.9472 -0.0306
   36MOL   H20211472   4.050   7.969   6.376 -0.0521  0.5649  0.9342
   36MOL   H20311473   4.107   7.857   6.512  0.3569 -1.0049  0.0180
   36MOL   H20411474   3.800   8.007   6.361  1.3472 -1.4266 -0.9920
   36MOL   H20511475   3.591   8.017   6.471  0.2556 -2.0837 -2.4994
   36MOL   H20611476   3.437   7.904   6.652 -1.7721  3.4442  0.9639
   36MOL   H20711477   3.509   7.870   6.809 -0.1509 -0.3466  0.6786
   36MOL   H20811478   3.744   7.788   6.803 -1.4546  1.6017  0.0405
   36MOL   H20911479   3.971   7.788   6.694 -0.8878  1.5631  1.9059
   36MOL   C21011480   3.506   8.076   6.757  0.9156 -0.0976 -0.5523
   36MOL   C21111481   3.362   8.113   6.785 -0.6007  0.9082  0.7969
   36MOL   C21211482   3.290   8.041   6.884 -0.7347 -0.5933 -0.3779
   36MOL   C21311483   3.163   8.076   6.926  0.4517  0.0665  0.9359
   36MOL   C21411484   3.097   8.171   6.850 -0.5237  0.1298  0.1536
   36MOL   C21511485   2.954   8.191   6.875  0.6725  0.7762  0.6727
   36MOL   C21611486   3.162   8.239   6.742  0.0762  0.9488 -0.3302
   36MOL   C21711487   3.302   8.213   6.714  0.1410  0.3274 -0.1668
   36MOL   H21811488   3.533   8.147   6.679 -2.3927 -0.0452 -1.7393
   36MOL   H21911489   3.552   8.105   6.851 -1.0025 -0.6966  0.6074
   36MOL   H22011490   3.344   7.970   6.945 -1.4018  0.9859  2.0909
   36MOL   H22111491   3.125   8.028   7.015 -0.6632 -0.5165  0.1577
   36MOL   H22211492   2.900   8.156   6.787 -0.6053  1.2752  1.2363
   36MOL   H22311493   2.914   8.115   6.943  0.9112  1.1198  1.1957
   36MOL   H22411494   3.106   8.314   6.688  0.9122  0.4163 -1.9675
   36MOL   H22511495   3.352   8.267   6.635 -0.8147  2.0600  0.3757
   36MOL   C22611496   2.914   8.340   6.914 -0.4401 -0.1694  0.1430
   36MOL   C22711497   2.768   8.358   6.945  0.0933 -0.0647  0.0692
   36MOL   C22811498   2.676   8.404   6.851  0.4691  0.8740  0.1282
   36MOL   C22911499   2.543   8.415   6.883 -0.0960 -0.2404 -0.4463
   36MOL   C23011500   2.495   8.375   7.007  0.4428  0.1764 -1.1713
   36MOL   C23111501   2.350   8.393   7.039 -0.9987  0.1910 -0.1639
   36MOL   C23211502   2.588   8.328   7.101 -0.6506  0.5977 -0.6228
   36MOL   C23311503   2.725   8.323   7.070  0.5917  0.6882 -0.5712
   36MOL   H23411504   2.944   8.415   6.841 -2.3679  0.5262  0.0387
   36MOL   H23511505   2.970   8.364   7.005  1.2787 -2.0900 -0.3812
   36MOL   H23611506   2.713   8.432   6.754  3.8445 -0.9235  0.8196
   36MOL   H23711507   2.477   8.454   6.807  0.3402  1.1645 -0.1173
   36MOL   H23811508   2.288   8.343   6.964 -1.4192  0.6708 -0.1445
   36MOL   H23911509   2.323   8.329   7.124 -0.7914 -0.0725 -0.2960
   36MOL   H24011510   2.556   8.284   7.194  2.0798  1.2109  0.6660
   36MOL   H24111511   2.790   8.274   7.142 -0.3520 -0.2274 -0.3239
   36MOL   C24211512   2.309   8.539   7.077 -0.2194 -0.1637  0.4425
   36MOL   C24311513   2.159   8.543   7.109  0.2247  0.1006  0.0091
   36MOL   C24411514   2.071   8.578   7.006 -0.3621  0.6002 -0.7450
   36MOL   C24511515   1.933   8.591   7.029  0.1286  0.4941 -0.1027
   36MOL   C24611516   1.881   8.576   7.159  0.7217 -0.1099  0.5541
   36MOL   C24711517   1.731   8.585   7.187 -0.3955 -0.2267  0.1700
   36MOL   C24811518   1.970   8.538   7.263 -0.6588  0.6462  0.5844
   36MOL   C24911519   2.106   8.520   7.232  0.3048  0.0865 -0.1982
   36MOL   H25011520   2.363   8.566   7.167  0.3676 -1.7767  0.5970
   36MOL   H25111521   2.336   8.610   6.999 -0.4280 -0.3591  0.1889
   36MOL   H25211522   2.110   8.604   6.908 -1.2176  2.6764 -0.5501
   36MOL   H25311523   1.872   8.614   6.943  0.4808 -3.7095 -1.6176
   36MOL   H25411524   1.682   8.580   7.090 -1.5725  0.8327  0.6881
   36MOL   H25511525   1.688   8.513   7.256  0.2071  1.5525  2.4825
   36MOL   H25611526   1.942   8.517   7.365 -0.4768  1.3695  0.7846
   36MOL   H25711527   2.177   8.507   7.312  0.8174  1.4463 -0.4049
   36MOL   C25811528   1.696   8.715   7.255  0.1397  0.2851  0.0684
   36MOL   C25911529   1.548   8.737   7.258  0.1474  1.3832  0.0805
   36MOL   C26011530   1.485   8.800   7.152  0.1422 -0.0965  0.5641
   36MOL   C26111531   1.352   8.834   7.157  0.4050 -0.2963  0.6151
   36MOL   C26211532   1.284   8.808   7.277  0.4052  0.4810 -0.1739
   36MOL   C26311533   1.133   8.832   7.282  0.3795  0.1892 -0.3657
   36MOL   C26411534   1.346   8.741   7.386 -1.2104  0.0967 -0.8972
   36MOL   C26511535   1.482   8.717   7.381 -0.3512  0.2717  0.4160
   36MOL   H26611536   1.744   8.800   7.207  2.2170  0.9463  3.1218
   36MOL   H26711537   1.741   8.722   7.355 -1.2577 -0.5178  0.7739
   36MOL   H26811538   1.539   8.824   7.062  2.1113 -0.6195  1.5755
   36MOL   H26911539   1.305   8.884   7.073  0.5950 -3.8099 -1.6515
   36MOL   H27011540   1.100   8.876   7.188  0.0049 -1.6074 -1.0796
   36MOL   H27111541   1.080   8.737   7.284 -0.5265  0.6954  0.2291
   36MOL   H27211542   1.291   8.719   7.476 -0.4970 -1.2257 -0.7880
   36MOL   H27311543   1.535   8.670   7.463  0.9861 -0.5133 -0.8800
   36MOL   C27411544   1.097   8.926   7.404  0.5199 -0.6341  0.1134
   36MOL   C27511545   0.943   8.943   7.415  0.1289 -0.5890  0.3370
   36MOL   C27611546   0.866   8.987   7.301 -0.6204  0.2341  0.0952
   36MOL   C27711547   0.723   8.993   7.315 -0.3333 -0.0938  0.4420
   36MOL   C27811548   0.660   8.953   7.437  0.7217 -0.1635 -0.1365
   36MOL   C27911549   0.510   8.975   7.449  0.0766  0.1648  0.1266
   36MOL   C28011550   0.745   8.915   7.542 -0.7095 -0.1384 -0.1510
   36MOL   C28111551   0.884   8.911   7.531  0.6939 -0.1520 -1.0575
   36MOL   H28211552   1.147   8.890   7.495  0.5091 -2.0877 -0.4500
   36MOL   H28311553   1.140   9.024   7.382 -1.2307 -0.1066 -1.0465
   36MOL   H28411554   0.911   9.021   7.209 -1.7000 -0.5986 -0.7586
   36MOL   H28511555   0.669   9.027   7.228  1.4174  0.7791 -0.3321
   36MOL   H28611556   0.465   9.027   7.365 -1.5173 -0.9309  0.2876
   36MOL   H28711557   0.479   8.873   7.468  3.1611 -1.7501 -4.2749
   36MOL   H28811558   0.698   8.888   7.636 -0.0890 -0.5147  0.0503
   36MOL   H28911559   0.941   8.879   7.617  1.1004  0.4640 -1.0995
   36MOL   C29011560   0.472   9.057   7.573 -0.2610  0.6934  0.9509
   36MOL   C29111561   0.324   9.075   7.578  0.0882 -0.1918  0.0514
   36MOL   C29211562   0.254   9.026   7.686  0.5430 -0.1637  0.3205
   36MOL   C29311563   0.116   9.063   7.701 -0.8392  0.1843 -0.4275
   36MOL   C29411564   0.050   9.134   7.600  0.1296  0.2005  0.4597
   36MOL   C29511565  -0.097   9.175   7.613  0.8118  0.7917  1.2437
   36MOL   C29611566   0.119   9.183   7.495  0.0278 -0.5176 -0.3701
   36MOL   C29711567   0.256   9.154   7.478 -0.6870  0.3090  0.1133
   36MOL   H29811568   0.506   9.160   7.568  1.2089  0.1107 -1.4443
   36MOL   H29911569   0.514   9.032   7.671  1.0299 -0.8692  0.0215
   36MOL   H30011570   0.291   8.972   7.772  1.0808 -0.5435 -0.1496
   36MOL   H30111571   0.051   9.034   7.782  0.0566  0.8650  0.5432
   36MOL   H30211572  -0.143   9.211   7.521  0.4960 -0.6949  0.8091
   36MOL   H30311573  -0.149   9.086   7.650 -1.8373  2.4002  1.5539
   36MOL   H30411574   0.067   9.250   7.429 -0.9704 -1.2008 -0.2956
   36MOL   H30511575   0.314   9.199   7.399  1.3816 -1.2371  0.7047
   36MOL   C30611576  -0.098   9.291   7.717 -0.6752 -0.3125  0.6366
   36MOL   C30711577  -0.242   9.336   7.731  0.3925 -0.4030 -0.2906
   36MOL   C30811578  -0.298   9.326   7.855 -0.2593 -0.0607  0.1423
   36MOL   C30911579  -0.433   9.352   7.870  0.6610  0.1386  0.0085
   36MOL   C31011580  -0.509   9.398   7.760 -0.1480 -0.3173  0.1233
   36MOL   C31111581  -0.647   9.456   7.801  0.2900 -0.4380 -0.0063
   36MOL   C31211582  -0.451   9.409   7.632 -0.2228 -0.1907 -0.6221
   36MOL   C31311583  -0.314   9.381   7.621  0.5848  0.2007 -0.4408
   36MOL   H31411584  -0.032   9.371   7.684  1.1887 -2.3080 -0.6069
   36MOL   H31511585  -0.044   9.266   7.808 -1.8667  0.3481  1.5343
   36MOL   H31611586  -0.239   9.293   7.939 -0.7261  2.6308  1.5762
   36MOL   H31711587  -0.473   9.357   7.970  1.1670 -0.1359  0.2313
   36MOL   H31811588  -0.712   9.372   7.825 -2.2908  1.5356  0.1149
   36MOL   H31911589  -0.644   9.523   7.886 -0.3931  1.1513 -1.2094
   36MOL   H32011590  -0.504   9.457   7.552 -0.2826 -1.7589 -1.5356
   36MOL   H32111591  -0.279   9.409   7.523  1.5777  1.5940  0.2883
   36MOL   H32211592  -0.687   9.516   7.719 -2.0130 -0.8381  0.7828
   37MOL     C111593   5.363   3.286   2.699  0.3764  0.3986 -0.9666
   37MOL     C211594   5.228   3.364   2.681 -0.2460  0.0877 -0.1872
   37MOL     C311595   5.175   3.457   2.772  0.2406  0.0732 -0.2020
   37MOL     C411596   5.056   3.525   2.732  0.2033  0.0002 -0.3165
   37MOL     C511597   4.983   3.489   2.618 -0.3479 -0.4142  0.1286
   37MOL     C611598   4.844   3.538   2.597  0.2734  1.1509 -0.1031
   37MOL     C711599   5.040   3.403   2.525 -0.6663 -0.9114 -0.6987
   37MOL     C811600   5.167   3.340   2.552 -0.1520 -0.1362  0.5838
   37MOL     H911601   5.399   3.311   2.799  0.7371 -0.5694 -0.8457
   37MOL    H1011602   5.343   3.179   2.700 -0.7509  0.5582  3.7147
   37MOL    H1111603   5.223   3.478   2.866 -0.9330 -1.1712  0.6969
   37MOL    H1211604   5.018   3.594   2.806  1.1067  0.4027 -0.2116
   37MOL    H1311605   4.798   3.500   2.506 -0.2799  2.7943 -0.5396
   37MOL    H1411606   4.785   3.494   2.677  0.9181  0.7516  0.1456
   37MOL    H1511607   4.993   3.380   2.431 -1.1450  0.8563 -0.9223
   37MOL    H1611608   5.211   3.281   2.473  0.2632 -1.1628  1.5653
   37MOL    H1711609   5.439   3.307   2.624  2.6128 -0.2698  1.0692
   37MOL    C1811610   4.834   3.691   2.597 -0.7026  0.5219  0.1029
   37MOL    C1911611   4.693   3.737   2.568 -0.5312 -0.5056 -0.8738
   37MOL    C2011612   4.624   3.818   2.662 -0.2822  0.6071 -0.1086
   37MOL    C2111613   4.492   3.862   2.640 -0.3833  0.2748 -0.2922
   37MOL    C2211614   4.429   3.823   2.523  0.1446 -0.0191  0.4448
   37MOL    C2311615   4.281   3.849   2.497 -0.1208  0.5114  0.2078
   37MOL    C2411616   4.499   3.750   2.425  0.3388 -0.6434  0.7488
   37MOL    C2511617   4.632   3.708   2.442  0.7988 -0.3741 -0.7243
   37MOL    H2611618   4.891   3.741   2.676 -0.3827 -1.9306  1.4760
   37MOL    H2711619   4.902   3.724   2.518 -0.9391  2.2162  0.5876
   37MOL    H2811620   4.670   3.845   2.755 -0.8455 -1.6354  0.8452
   37MOL    H2911621   4.439   3.917   2.717  0.4019  1.4926 -0.6080
   37MOL    H3011622   4.216   3.813   2.578 -0.6786 -1.6974 -1.1732
   37MOL    H3111623   4.246   3.795   2.409  0.4451 -1.1566  0.9735
   37MOL    H3211624   4.453   3.720   2.332 -0.7717 -1.1263  1.4337
   37MOL    H3311625   4.679   3.655   2.361  1.8966  0.9916 -0.9991
   37MOL    C3411626   4.249   3.996   2.477 -0.6359 -0.1707 -0.1431
   37MOL    C3511627   4.102   4.019   2.450  0.6155 -0.1809  0.4613
   37MOL    C3611628   4.047   4.018   2.322 -0.2999 -0.0995 -0.4116
   37MOL    C3711629   3.905   4.024   2.310 -0.4608  0.4697 -0.1013
   37MOL    C3811630   3.821   4.045   2.422  0.0961  0.1141 -0.9311
   37MOL    C3911631   3.667   4.056   2.398 -0.2861 -0.1477  0.2097
   37MOL    C4011632   3.879   4.051   2.548 -1.1604 -0.2265 -0.8419
   37MOL    C4111633   4.020   4.027   2.563 -0.2285 -0.1054 -0.2085
   37MOL    H4211634   4.302   4.043   2.394 -0.8785  0.8814  0.2903
   37MOL    H4311635   4.285   4.047   2.566  0.8273  0.0541 -0.8489
   37MOL    H4411636   4.111   3.991   2.239  0.0222  0.2749 -0.2873
   37MOL    H4511637   3.858   4.019   2.213 -1.5739  2.1145  0.3441
   37MOL    H4611638   3.639   4.022   2.299 -1.2165  2.3253 -0.4270
   37MOL    H4711639   3.624   3.996   2.478  0.1793 -1.5632 -0.5879
   37MOL    H4811640   3.807   4.081   2.623 -0.9314  0.9830 -1.0924
   37MOL    H4911641   4.066   4.036   2.660  0.6439  2.1708 -0.7979
   37MOL    C5011642   3.637   4.207   2.410 -0.3259 -0.3147  0.6976
   37MOL    C5111643   3.488   4.241   2.391  0.2730  0.5177  0.2427
   37MOL    C5211644   3.437   4.291   2.266  0.2298 -0.3875  0.3735
   37MOL    C5311645   3.297   4.297   2.261 -0.0613  0.1057  0.1112
   37MOL    C5411646   3.213   4.264   2.368  0.7039 -0.2781  0.2873
   37MOL    C5511647   3.063   4.288   2.342  0.1261 -0.3548  0.6629
   37MOL    C5611648   3.263   4.212   2.491  0.0896  0.7475 -0.0297
   37MOL    C5711649   3.404   4.203   2.502  0.2926 -0.1449  0.1148
   37MOL    H5811650   3.695   4.250   2.329 -0.9427 -2.0202 -0.6772
   37MOL    H5911651   3.671   4.238   2.509  2.2319 -0.3711 -0.1298
   37MOL    H6011652   3.488   4.327   2.178  0.1026  1.2597  0.9525
   37MOL    H6111653   3.261   4.343   2.170 -1.1558 -0.5229  0.2217
   37MOL    H6211654   3.031   4.247   2.246  2.0721 -0.3368 -0.0197
   37MOL    H6311655   3.016   4.229   2.421  0.6085 -0.3624  0.9435
   37MOL    H6411656   3.205   4.191   2.580  1.4504 -4.5108 -0.1992
   37MOL    H6511657   3.448   4.174   2.596  1.8753  2.8761  0.3672
   37MOL    C6611658   3.026   4.435   2.350  0.1238 -0.7285  0.4992
   37MOL    C6711659   2.874   4.466   2.347 -0.5903 -0.1405  0.2296
   37MOL    C6811660   2.783   4.430   2.456 -0.2895 -0.6311  0.4177
   37MOL    C6911661   2.649   4.472   2.447  0.0779 -0.1899  0.2197
   37MOL    C7011662   2.610   4.547   2.338  0.8687 -0.2622  0.0103
   37MOL    C7111663   2.473   4.615   2.337 -0.5768  0.0888 -0.4299
   37MOL    C7211664   2.687   4.570   2.226 -0.3360  0.1291  0.7879
   37MOL    C7311665   2.825   4.536   2.235 -0.4390 -0.6903 -0.8811
   37MOL    H7411666   3.075   4.485   2.266 -1.3507  0.3100  0.2250
   37MOL    H7511667   3.060   4.485   2.441 -0.2261 -1.0029  0.7829
   37MOL    H7611668   2.818   4.380   2.545  0.0182 -0.1320  0.5754
   37MOL    H7711669   2.576   4.456   2.525 -1.9162  1.9589 -1.1274
   37MOL    H7811670   2.396   4.587   2.410 -0.6808 -1.2182 -1.0164
   37MOL    H7911671   2.424   4.585   2.244  0.8122  0.0469 -1.1620
   37MOL    H8011672   2.653   4.612   2.132 -2.7603  3.0511  2.8598
   37MOL    H8111673   2.900   4.564   2.162 -1.1839 -0.7154 -1.6614
   37MOL    C8211674   2.480   4.769   2.343 -0.1687 -0.1421 -0.7307
   37MOL    C8311675   2.343   4.837   2.321  0.5526 -0.4923  0.7964
   37MOL    C8411676   2.272   4.891   2.425 -0.1297 -0.3147 -0.9170
   37MOL    C8511677   2.146   4.953   2.399 -0.2998 -0.2758  0.3696
   37MOL    C8611678   2.090   4.967   2.271  0.3490  0.7665  1.0721
   37MOL    C8711679   1.955   5.027   2.256 -0.0663  0.3645  0.2728
   37MOL    C8811680   2.162   4.910   2.159  0.5808 -0.0337  0.6008
   37MOL    C8911681   2.287   4.846   2.186 -0.5898  0.1540 -1.1297
   37MOL    H9011682   2.562   4.810   2.284  1.2845  2.4840  2.9366
   37MOL    H9111683   2.510   4.788   2.446  0.6613 -1.3163 -0.7471
   37MOL    H9211684   2.316   4.892   2.524 -0.3039 -1.7646 -0.8020
   37MOL    H9311685   2.088   4.984   2.484 -1.4044 -4.7874  1.3990
   37MOL    H9411686   1.881   4.975   2.318 -1.0173  0.5050 -0.7288
   37MOL    H9511687   1.926   5.029   2.151 -0.9562  0.5764  0.5129
   37MOL    H9611688   2.118   4.919   2.061  0.6234  0.8900  0.6658
   37MOL    H9711689   2.340   4.802   2.102  0.0371 -1.0650 -0.1101
   37MOL    C9811690   1.945   5.173   2.303  0.1997  0.7129 -0.1685
   37MOL    C9911691   1.796   5.205   2.321  0.6117 -0.3006  0.4273
   37MOL   C10011692   1.735   5.217   2.446  0.9411 -0.5396  0.0561
   37MOL   C10111693   1.600   5.243   2.454 -0.0024  0.1999 -0.0868
   37MOL   C10211694   1.513   5.248   2.342 -0.4514  0.0486 -0.6587
   37MOL   C10311695   1.365   5.262   2.374  0.4581 -0.9590  0.1700
   37MOL   C10411696   1.574   5.246   2.216 -0.1377 -0.2664 -0.1090
   37MOL   C10511697   1.714   5.229   2.204 -0.9325 -0.0623  0.5053
   37MOL   H10611698   1.989   5.245   2.234 -0.5034  1.6780  0.3810
   37MOL   H10711699   1.989   5.185   2.402 -1.5314  1.1161  0.5642
   37MOL   H10811700   1.794   5.197   2.534  1.0061 -0.1686  0.0972
   37MOL   H10911701   1.555   5.260   2.551  1.1572  0.4593  0.4107
   37MOL   H11011702   1.292   5.240   2.297 -0.4857 -0.0855  0.7984
   37MOL   H11111703   1.337   5.192   2.453 -1.0373  0.4100  0.8805
   37MOL   H11211704   1.512   5.255   2.128  0.2513 -2.4981 -0.6435
   37MOL   H11311705   1.757   5.233   2.104 -1.8296 -2.7248 -0.0416
   37MOL   C11411706   1.324   5.404   2.427 -0.5827  0.6462 -0.0600
   37MOL   C11511707   1.175   5.420   2.438  0.3357  0.2166  0.2223
   37MOL   C11611708   1.112   5.347   2.546  0.3965  0.2893 -0.1685
   37MOL   C11711709   0.976   5.370   2.570  0.0270  0.5470  0.4100
   37MOL   C11811710   0.900   5.465   2.496  0.7159 -0.0222 -0.0869
   37MOL   C11911711   0.753   5.473   2.527 -0.2828 -0.1944 -0.1227
   37MOL   C12011712   0.959   5.529   2.386 -0.1145 -0.3206  0.1867
   37MOL   C12111713   1.098   5.513   2.359  0.1003  0.8098  1.1817
   37MOL   H12211714   1.359   5.483   2.361 -1.1872  1.2427  0.3260
   37MOL   H12311715   1.387   5.429   2.513  2.1048  2.5079 -2.4809
   37MOL   H12411716   1.171   5.286   2.612  2.2340  3.0962  0.8669
   37MOL   H12511717   0.931   5.318   2.653  0.4285 -1.1984 -0.4246
   37MOL   H12611718   0.703   5.515   2.440  1.5272 -0.1883 -1.1934
   37MOL   H12711719   0.713   5.376   2.555 -0.2022  0.5310  2.7183
   37MOL   H12811720   0.890   5.580   2.319  2.1274 -0.1337 -2.0340
   37MOL   H12911721   1.140   5.561   2.272  0.3265 -0.8948  0.3248
   37MOL   C13011722   0.733   5.561   2.657  0.2702 -0.0605  0.5197
   37MOL   C13111723   0.585   5.563   2.691  0.6197 -0.4642 -0.4115
   37MOL   C13211724   0.537   5.471   2.785  0.4458  0.4933 -0.9205
   37MOL   C13311725   0.398   5.450   2.795 -0.2197 -0.1591  0.3514
   37MOL   C13411726   0.303   5.519   2.717  0.3751 -0.8424  0.2325
   37MOL   C13511727   0.155   5.510   2.739 -0.3132 -0.2789  0.0194
   37MOL   C13611728   0.356   5.627   2.636  0.3160  0.0030 -0.2079
   37MOL   C13711729   0.494   5.649   2.627 -0.3378 -0.2573 -0.4961
   37MOL   H13811730   0.765   5.664   2.639  0.9754 -0.3426  0.1522
   37MOL   H13911731   0.790   5.522   2.741  1.6153  0.9310  0.0944
   37MOL   H14011732   0.608   5.411   2.839  1.5727  2.9951  0.4537
   37MOL   H14111733   0.376   5.362   2.853 -1.1091  0.6558  1.2575
   37MOL   H14211734   0.098   5.490   2.648  1.1133 -1.7409 -0.5843
   37MOL   H14311735   0.144   5.424   2.805  1.2627 -0.3033  0.2662
   37MOL   H14411736   0.283   5.683   2.579 -0.3856  0.1097  0.7915
   37MOL   H14511737   0.525   5.724   2.556 -0.5974  1.4675  1.1655
   37MOL   C14611738   0.094   5.638   2.806 -0.3008  0.7323 -0.7289
   37MOL   C14711739  -0.056   5.626   2.824  0.1349  0.1973 -0.0618
   37MOL   C14811740  -0.128   5.626   2.712  1.1830 -0.3704  0.1347
   37MOL   C14911741  -0.267   5.626   2.712  1.0246 -0.2979 -1.0129
   37MOL   C15011742  -0.332   5.635   2.840 -0.2437  0.0235  0.4553
   37MOL   C15111743  -0.481   5.646   2.843  0.0820 -0.0634 -0.1413
   37MOL   C15211744  -0.254   5.629   2.961  0.0182  0.9213  0.4195
   37MOL   C15311745  -0.112   5.626   2.955 -0.2142  0.2861  0.0046
   37MOL   H15411746   0.129   5.719   2.743  1.4193 -0.2500 -1.0850
   37MOL   H15511747   0.139   5.661   2.903 -1.2545  2.3220 -0.6367
   37MOL   H15611748  -0.083   5.617   2.615 -1.1906  2.1023 -1.2843
   37MOL   H15711749  -0.327   5.615   2.623 -1.6605  0.4674  0.6352
   37MOL   H15811750  -0.531   5.559   2.801  0.3431  0.2933 -1.2057
   37MOL   H15911751  -0.514   5.646   2.947  0.6662 -0.8200  0.0450
   37MOL   H16011752  -0.305   5.617   3.055  1.2937 -0.7821  0.9383
   37MOL   H16111753  -0.054   5.638   3.045 -0.4466 -1.8096  0.4718
   37MOL   C16211754  -0.527   5.776   2.775 -0.0406 -0.1576 -0.3254
   37MOL   C16311755  -0.677   5.788   2.750 -0.4942  0.0562 -0.4383
   37MOL   C16411756  -0.771   5.748   2.851 -0.1313 -0.3721 -0.3512
   37MOL   C16511757  -0.912   5.765   2.834 -0.2757  0.1319  0.1154
   37MOL   C16611758  -0.955   5.808   2.702 -0.1851 -0.0981  0.1194
   37MOL   C16711759  -1.106   5.840   2.688  0.0399  1.0357 -0.1240
   37MOL   C16811760  -0.864   5.837   2.598  0.1163 -0.1449 -0.1710
   37MOL   C16911761  -0.730   5.826   2.622  0.3812 -0.0447 -0.0388
   37MOL   H17011762  -0.483   5.766   2.676 -0.9609  0.6458 -0.8145
   37MOL   H17111763  -0.488   5.865   2.825  0.1521 -1.1964  1.4180
   37MOL   H17211764  -0.734   5.708   2.945  2.2826  0.1139 -1.0760
   37MOL   H17311765  -0.988   5.737   2.904 -0.2643  1.7999  0.8165
   37MOL   H17411766  -1.135   5.894   2.778 -1.2719 -0.5773  0.4442
   37MOL   H17511767  -1.130   5.912   2.610 -0.7899 -0.1051 -0.9360
   37MOL   H17611768  -0.885   5.878   2.500 -0.2472  0.4797  0.1657
   37MOL   H17711769  -0.666   5.851   2.538 -0.4758 -0.2299 -0.7544
   37MOL   C17811770  -1.178   5.706   2.673  0.0225 -0.0197 -0.4502
   37MOL   C17911771  -1.334   5.716   2.672  0.3682  0.4593  0.0615
   37MOL   C18011772  -1.411   5.649   2.569  0.3126 -0.8861 -0.6751
   37MOL   C18111773  -1.548   5.642   2.584 -0.3561 -0.2706  0.2649
   37MOL   C18211774  -1.612   5.701   2.692 -0.1800 -0.1493 -0.1075
   37MOL   C18311775  -1.763   5.691   2.687  0.0957  0.3869 -0.0818
   37MOL   C18411776  -1.539   5.782   2.783 -0.4595  0.0651  0.2301
   37MOL   C18511777  -1.401   5.788   2.771 -1.0375  0.2685  0.2802
   37MOL   H18611778  -1.152   5.639   2.754 -0.5231 -0.4217 -0.6082
   37MOL   H18711779  -1.152   5.658   2.579  0.2057  1.2660 -1.0763
   37MOL   H18811780  -1.366   5.601   2.482  2.7896  0.2195 -0.0466
   37MOL   H18911781  -1.605   5.582   2.514  0.1778 -0.8212  0.3026
   37MOL   H19011782  -1.793   5.623   2.607  0.4776  1.4034 -1.0901
   37MOL   H19111783  -1.816   5.635   2.764 -0.4590  0.0185 -0.7200
   37MOL   H19211784  -1.577   5.822   2.876 -1.3408 -0.6339  0.1840
   37MOL   H19311785  -1.345   5.827   2.854  1.5405  0.3104 -1.4189
   37MOL   C19411786  -1.822   5.828   2.675 -0.0288 -0.1193 -0.2038
   37MOL   C19511787  -1.967   5.836   2.655  0.6686  0.5724  0.4984
   37MOL   C19611788  -2.058   5.896   2.741  0.1810  0.8178 -0.6288
   37MOL   C19711789  -2.193   5.913   2.703 -0.0077 -0.2753  0.5372
   37MOL   C19811790  -2.245   5.860   2.586  0.1189  0.3527 -0.2172
   37MOL   C19911791  -2.391   5.872   2.559 -0.5067 -0.2949  1.1585
   37MOL   C20011792  -2.158   5.801   2.497 -0.4621 -0.4983  0.2950
   37MOL   C20111793  -2.020   5.783   2.532 -0.2636 -0.5040  0.5345
   37MOL   H20211794  -1.786   5.874   2.584  1.2659 -0.4046  0.1490
   37MOL   H20311795  -1.796   5.891   2.761  0.1617  0.5482 -0.7508
   37MOL   H20411796  -2.021   5.938   2.833  0.8751  0.0882 -0.5727
   37MOL   H20511797  -2.252   5.973   2.770  2.5845  2.0527  0.8377
   37MOL   H20611798  -2.422   5.829   2.464 -1.5577 -1.9999  2.2389
   37MOL   H20711799  -2.445   5.821   2.639  1.7125 -2.4364  1.3622
   37MOL   H20811800  -2.199   5.752   2.410 -1.7722 -0.8136  1.0612
   37MOL   H20911801  -1.957   5.733   2.460  2.4542 -2.9261  4.3880
   37MOL   C21011802  -2.437   6.022   2.537 -0.1878 -0.2639  0.3554
   37MOL   C21111803  -2.586   6.045   2.527 -1.3187 -0.2010 -0.5643
   37MOL   C21211804  -2.661   5.974   2.438  0.0259  0.6482 -0.5508
   37MOL   C21311805  -2.797   5.997   2.437  0.3446 -0.6201 -0.1020
   37MOL   C21411806  -2.856   6.102   2.519  0.6939 -0.5987  0.7988
   37MOL   C21511807  -3.006   6.129   2.513  0.2195  0.2997 -0.7499
   37MOL   C21611808  -2.771   6.181   2.601 -1.0700  0.3107 -0.4697
   37MOL   C21711809  -2.638   6.148   2.605 -0.4017 -0.5791 -0.6802
   37MOL   H21811810  -2.376   6.057   2.454  0.2122 -1.2800  0.2134
   37MOL   H21911811  -2.401   6.089   2.614 -1.2926  1.9722 -1.0195
   37MOL   H22011812  -2.621   5.898   2.373 -1.4226 -0.2409 -0.4112
   37MOL   H22111813  -2.855   5.937   2.369 -1.5538  2.2401 -1.1048
   37MOL   H22211814  -3.062   6.041   2.480  0.0488 -0.5872  1.7848
   37MOL   H22311815  -3.046   6.145   2.613  0.2102  0.7692 -0.8275
   37MOL   H22411816  -2.809   6.259   2.665 -0.0418 -0.3644  1.0025
   37MOL   H22511817  -2.579   6.200   2.679 -1.0611  0.8328 -1.1133
   37MOL   C22611818  -3.037   6.256   2.439  0.7344 -0.0638  0.4575
   37MOL   C22711819  -3.184   6.289   2.439  0.1424 -0.9248 -0.1297
   37MOL   C22811820  -3.272   6.218   2.360  0.4771 -0.4994 -0.3659
   37MOL   C22911821  -3.410   6.239   2.382 -0.5329  0.5444  0.4308
   37MOL   C23011822  -3.456   6.342   2.470 -0.7420 -0.2072 -0.4412
   37MOL   C23111823  -3.605   6.376   2.465  0.1848  0.0640 -0.9257
   37MOL   C23211824  -3.367   6.412   2.553  0.7401 -0.1716 -0.3579
   37MOL   C23311825  -3.232   6.384   2.536 -0.8133  0.2717  0.5710
   37MOL   H23411826  -2.993   6.249   2.339 -0.5109  0.0139 -0.1070
   37MOL   H23511827  -2.977   6.342   2.469  0.3810  0.8538 -1.3886
   37MOL   H23611828  -3.243   6.130   2.304  0.3402 -0.6857 -0.1436
   37MOL   H23711829  -3.485   6.178   2.334  1.0651  0.6774 -2.3205
   37MOL   H23811830  -3.674   6.301   2.427  0.4479 -0.7620  0.1834
   37MOL   H23911831  -3.628   6.389   2.571  0.0409 -3.1213 -0.4932
   37MOL   H24011832  -3.390   6.486   2.628 -0.7414 -2.3114  1.3690
   37MOL   H24111833  -3.167   6.443   2.598  1.5030  0.7576 -2.2323
   37MOL   C24211834  -3.643   6.509   2.400  0.4739 -0.1138 -0.3841
   37MOL   C24311835  -3.790   6.540   2.426  0.3622  0.7194  0.2131
   37MOL   C24411836  -3.832   6.603   2.549 -0.1455  0.3062  0.8893
   37MOL   C24511837  -3.970   6.627   2.566 -0.1378  0.5290 -0.0067
   37MOL   C24611838  -4.061   6.582   2.465 -0.1914 -0.2724 -0.5203
   37MOL   C24711839  -4.201   6.617   2.489 -0.2484 -0.2271  0.2273
   37MOL   C24811840  -4.024   6.510   2.353  0.0610  0.0736  0.1215
   37MOL   C24911841  -3.887   6.494   2.334 -0.8103  0.2153  0.6607
   37MOL   H25011842  -3.574   6.582   2.443  1.3511 -0.8088 -0.5841
   37MOL   H25111843  -3.624   6.513   2.293 -0.2672  1.4367 -0.4737
   37MOL   H25211844  -3.765   6.633   2.628 -0.8284  1.8070  0.9041
   37MOL   H25311845  -3.998   6.686   2.652 -1.4779 -1.4827  0.9666
   37MOL   H25411846  -4.271   6.534   2.490 -0.3527 -0.1397  0.7845
   37MOL   H25511847  -4.212   6.660   2.589  1.2781  0.7969 -0.0289
   37MOL   H25611848  -4.101   6.477   2.285  0.3051  0.2811 -0.2553
   37MOL   H25711849  -3.850   6.444   2.245  2.0943  1.1693  1.2786
   37MOL   C25811850  -4.254   6.715   2.391 -0.8795 -0.1917  0.3665
   37MOL   C25911851  -4.398   6.750   2.425 -0.0271  0.0820 -0.7688
   37MOL   C26011852  -4.429   6.858   2.510  0.5525 -0.5481 -0.0720
   37MOL   C26111853  -4.565   6.886   2.528  0.5476 -0.0502  0.4784
   37MOL   C26211854  -4.665   6.823   2.455  0.6339  0.3037  0.9079
   37MOL   C26311855  -4.804   6.865   2.494  0.7542  0.0071  0.3125
   37MOL   C26411856  -4.636   6.714   2.375 -1.0839  0.9009 -0.1164
   37MOL   C26511857  -4.501   6.677   2.361 -0.2612 -0.2336 -0.2322
   37MOL   H26611858  -4.260   6.671   2.292  0.6255 -1.2634  0.7274
   37MOL   H26711859  -4.204   6.810   2.372 -1.1632 -0.4482 -1.7059
   37MOL   H26811860  -4.340   6.902   2.553  1.3623 -1.9425 -0.2748
   37MOL   H26911861  -4.598   6.967   2.592  1.1156 -0.0445  0.7646
   37MOL   H27011862  -4.872   6.780   2.493  1.2965 -0.4218 -2.6694
   37MOL   H27111863  -4.798   6.892   2.600 -1.1005  0.8353  0.2262
   37MOL   H27211864  -4.710   6.648   2.332 -1.1012  1.1517 -0.4724
   37MOL   H27311865  -4.483   6.590   2.300  0.9829 -0.2032  0.0879
   37MOL   C27411866  -4.854   6.970   2.391 -0.2966 -0.0152  0.2003
   37MOL   C27511867  -5.002   6.995   2.409 -1.0767  0.5192 -0.0950
   37MOL   C27611868  -5.042   7.093   2.497 -0.2295  0.1740  0.1392
   37MOL   C27711869  -5.184   7.122   2.517  0.2782 -0.2847 -0.6981
   37MOL   C27811870  -5.279   7.025   2.467 -0.4345  0.4874 -0.7841
   37MOL   C27911871  -5.430   7.039   2.493 -0.8593  0.6673 -0.3732
   37MOL   C28011872  -5.235   6.919   2.386  0.9118 -0.3264 -0.5114
   37MOL   C28111873  -5.097   6.903   2.355 -1.3918 -0.5354  0.0847
   37MOL   H28211874  -4.798   7.062   2.379  1.1169 -0.7894  0.7136
   37MOL   H28311875  -4.851   6.930   2.290  1.0279  0.1451  0.1679
   37MOL   H28411876  -4.972   7.153   2.553 -0.9493  1.9711 -0.8681
   37MOL   H28511877  -5.218   7.210   2.569  0.0390 -1.5103  1.3005
   37MOL   H28611878  -5.475   6.941   2.511 -1.0051  0.2702 -2.6714
   37MOL   H28711879  -5.456   7.086   2.587 -0.2200  1.4311 -0.5704
   37MOL   H28811880  -5.294   6.838   2.345 -0.1701 -0.0927  0.5245
   37MOL   H28911881  -5.043   6.825   2.305  0.4877  0.7815  0.0066
   37MOL   C29011882  -5.511   7.108   2.379  0.1320  0.0757  0.0434
   37MOL   C29111883  -5.655   7.116   2.420 -0.1761 -0.0646  0.2184
   37MOL   C29211884  -5.700   7.231   2.497 -0.1326 -0.4085  0.5622
   37MOL   C29311885  -5.835   7.247   2.530 -0.4976  0.0682  0.3921
   37MOL   C29411886  -5.926   7.150   2.488  0.6051  0.7183 -0.3652
   37MOL   C29511887  -6.073   7.168   2.502  0.1618 -0.4475  0.0727
   37MOL   C29611888  -5.880   7.037   2.414  0.0243  0.6216  0.2281
   37MOL   C29711889  -5.748   7.016   2.383 -0.1135  0.1941 -0.2501
   37MOL   H29811890  -5.499   7.042   2.293  0.4617  0.2552 -0.0487
   37MOL   H29911891  -5.470   7.201   2.340  3.3421 -0.8639  1.0568
   37MOL   H30011892  -5.628   7.300   2.539  0.5074 -0.4957 -0.3861
   37MOL   H30111893  -5.863   7.341   2.576 -0.3858  1.9463 -3.1920
   37MOL   H30211894  -6.128   7.078   2.476  1.2361 -0.5410 -1.9782
   37MOL   H30311895  -6.094   7.193   2.606 -1.0363 -0.1880 -0.2185
   37MOL   H30411896  -5.959   6.970   2.384  0.5858 -0.7493  1.7448
   37MOL   H30511897  -5.712   6.928   2.332 -0.6286  0.4917 -1.1560
   37MOL   C30611898  -6.140   7.280   2.423 -0.5419  0.2571  0.3148
   37MOL   C30711899  -6.288   7.293   2.443 -0.1652 -0.0117 -0.5276
   37MOL   C30811900  -6.373   7.195   2.398 -1.0303 -0.0959  0.2836
   37MOL   C30911901  -6.511   7.195   2.431 -0.4066  0.2038  0.6414
   37MOL   C31011902  -6.558   7.293   2.518  0.2889 -0.0104  0.3074
   37MOL   C31111903  -6.705   7.287   2.566  0.0252  0.0498 -0.1510
   37MOL   C31211904  -6.471   7.385   2.566 -0.1236  0.2567  0.2733
   37MOL   C31311905  -6.337   7.391   2.534  0.0188  0.1337 -0.1783
   37MOL   H31411906  -6.127   7.257   2.317  1.5628 -0.1803  0.6520
   37MOL   H31511907  -6.097   7.377   2.445 -2.0852  1.7410 -2.9507
   37MOL   H31611908  -6.331   7.114   2.341 -1.2563 -1.0855  1.5035
   37MOL   H31711909  -6.571   7.110   2.403  0.3906 -0.6893  1.6013
   37MOL   H31811910  -6.758   7.201   2.525 -0.4892 -0.1955  0.9956
   37MOL   H31911911  -6.701   7.269   2.673 -2.6623 -0.8051 -0.1539
   37MOL   H32011912  -6.505   7.465   2.629 -1.0002 -0.2689  0.4850
   37MOL   H32111913  -6.278   7.469   2.581  1.3035 -0.5880 -0.5581
   37MOL   H32211914  -6.761   7.377   2.541  0.4262  0.5475  0.7195
   38MOL     C111915   6.942   3.925   5.390 -0.5030  0.3541 -0.8647
   38MOL     C211916   6.810   3.897   5.318 -0.6535 -0.1763 -0.6522
   38MOL     C311917   6.800   3.860   5.186 -0.7449  0.3293  0.0600
   38MOL     C411918   6.675   3.831   5.124  0.3138  0.3508  0.2504
   38MOL     C511919   6.559   3.851   5.200 -0.5425  0.2101  0.5090
   38MOL     C611920   6.427   3.850   5.141 -0.4665 -0.3519  0.6260
   38MOL     C711921   6.575   3.873   5.335 -0.6570  0.1345  0.1863
   38MOL     C811922   6.696   3.901   5.397 -0.0906  0.0136  0.1331
   38MOL     H911923   6.922   3.963   5.490 -1.3959 -0.3480 -0.7701
   38MOL    H1011924   7.006   3.837   5.389 -0.8732  0.0493  0.4070
   38MOL    H1111925   6.884   3.866   5.120  0.0298  0.2040  1.0240
   38MOL    H1211926   6.677   3.821   5.017 -1.7219  2.4851 -0.0368
   38MOL    H1311927   6.360   3.920   5.191 -0.1950 -0.5775  1.2962
   38MOL    H1411928   6.440   3.898   5.043 -0.2072 -0.7532  0.4623
   38MOL    H1511929   6.490   3.880   5.401  0.3775  1.2383  1.4396
   38MOL    H1611930   6.698   3.916   5.504  1.5406  0.5863  0.0264
   38MOL    H1711931   6.994   4.010   5.345 -0.0131  0.1850 -0.6228
   38MOL    C1811932   6.369   3.709   5.120 -0.1854 -0.0480  0.2776
   38MOL    C1911933   6.223   3.705   5.080  0.0137 -0.1023 -0.7148
   38MOL    C2011934   6.124   3.736   5.183 -0.7952 -0.0443  0.8497
   38MOL    C2111935   5.987   3.741   5.153 -0.1428 -0.2988  0.2003
   38MOL    C2211936   5.951   3.711   5.021  0.1303 -0.0316 -0.5003
   38MOL    C2311937   5.799   3.723   4.990  0.1942  0.4578 -0.1537
   38MOL    C2411938   6.044   3.664   4.925  0.1708 -0.4331 -0.6811
   38MOL    C2511939   6.178   3.662   4.953  0.3755 -0.6015  0.0240
   38MOL    H2611940   6.431   3.657   5.048 -2.3084  2.4644 -3.5048
   38MOL    H2711941   6.382   3.662   5.218  0.8230  0.0440  0.1973
   38MOL    H2811942   6.162   3.766   5.279 -0.7270 -0.4553  0.9510
   38MOL    H2911943   5.918   3.773   5.229  1.4195 -0.3754  1.6890
   38MOL    H3011944   5.796   3.708   4.882 -1.0662  0.7113 -0.1530
   38MOL    H3111945   5.774   3.828   5.005 -2.2640 -0.2008  0.4358
   38MOL    H3211946   6.014   3.640   4.824 -2.3064  1.2799 -0.4040
   38MOL    H3311947   6.245   3.631   4.875  0.2251 -0.5121 -0.1384
   38MOL    C3411948   5.698   3.631   5.056  0.0612  0.3031 -0.6104
   38MOL    C3511949   5.555   3.638   5.010  0.1143  1.1418 -0.0071
   38MOL    C3611950   5.452   3.583   5.087 -0.6158 -0.9953 -0.2288
   38MOL    C3711951   5.315   3.593   5.037  0.1039 -0.8942 -0.3843
   38MOL    C3811952   5.281   3.649   4.911  0.7875 -0.1581 -0.4258
   38MOL    C3911953   5.143   3.655   4.857 -0.1939 -0.3892  0.3875
   38MOL    C4011954   5.393   3.688   4.833 -0.0539 -0.2291  0.1143
   38MOL    C4111955   5.525   3.676   4.876  0.2552  0.6799 -0.3895
   38MOL    H4211956   5.705   3.648   5.164  0.2003  0.3227 -0.6229
   38MOL    H4311957   5.738   3.533   5.032  0.0250  0.7175 -2.4222
   38MOL    H4411958   5.473   3.541   5.184  1.3307  0.6477  0.0887
   38MOL    H4511959   5.243   3.553   5.107 -0.2931 -0.7190 -0.6892
   38MOL    H4611960   5.150   3.659   4.749 -1.5509  0.4149  0.3138
   38MOL    H4711961   5.095   3.564   4.893  1.2765 -1.3831 -0.1410
   38MOL    H4811962   5.368   3.725   4.734 -1.2755 -0.2750  0.4032
   38MOL    H4911963   5.605   3.713   4.815  2.7608 -0.5825  2.0320
   38MOL    C5011964   5.069   3.780   4.893  0.1963 -0.7919 -0.1763
   38MOL    C5111965   4.931   3.769   4.840 -0.3127  0.2623  0.3508
   38MOL    C5211966   4.845   3.680   4.895  0.2233  0.2156  0.3913
   38MOL    C5311967   4.710   3.676   4.843 -0.6369  0.2846 -0.1581
   38MOL    C5411968   4.668   3.757   4.734 -0.0179 -0.0456  0.6930
   38MOL    C5511969   4.521   3.767   4.694  0.2013 -0.8056 -0.3458
   38MOL    C5611970   4.769   3.834   4.661  0.3823  0.4819 -0.2193
   38MOL    C5711971   4.890   3.855   4.736  0.3853 -0.0965  0.2658
   38MOL    H5811972   5.118   3.871   4.860 -0.1350 -0.4230  0.3373
   38MOL    H5911973   5.059   3.781   5.002 -1.9401 -0.7843 -0.3510
   38MOL    H6011974   4.870   3.635   4.990  1.1996 -0.8565 -0.3728
   38MOL    H6111975   4.644   3.613   4.900  0.5051 -1.0233 -0.2755
   38MOL    H6211976   4.506   3.712   4.601  1.6676 -1.2769 -0.3249
   38MOL    H6311977   4.473   3.710   4.774  3.7086 -2.4800  0.6735
   38MOL    H6411978   4.747   3.897   4.576  0.0194  0.9589  0.2218
   38MOL    H6511979   4.952   3.933   4.694  0.4654  1.7270  3.6173
   38MOL    C6611980   4.473   3.908   4.678 -0.1404  0.3392  0.1678
   38MOL    C6711981   4.329   3.911   4.620 -0.6172 -0.6849 -0.5637
   38MOL    C6811982   4.286   4.041   4.568 -0.2318 -0.4989  0.3329
   38MOL    C6911983   4.161   4.051   4.502  0.0590  0.4174 -0.2986
   38MOL    C7011984   4.084   3.935   4.485  0.4526  0.3373 -0.7093
   38MOL    C7111985   3.949   3.946   4.419  0.2606 -0.3921  0.1999
   38MOL    C7211986   4.128   3.805   4.536 -0.2842 -0.2861 -0.5492
   38MOL    C7311987   4.247   3.795   4.609  0.2769 -0.5626  0.0876
   38MOL    H7411988   4.543   3.973   4.625 -0.1038  1.2054  1.2461
   38MOL    H7511989   4.459   3.959   4.774  0.4510 -1.9093  1.4811
   38MOL    H7611990   4.348   4.129   4.570 -0.1482 -0.5361 -0.5317
   38MOL    H7711991   4.126   4.143   4.457 -3.7068 -0.8350 -0.1115
   38MOL    H7811992   3.915   3.844   4.402 -1.8982  0.7732 -3.2077
   38MOL    H7911993   3.954   3.984   4.316  0.3464  2.2174  1.1310
   38MOL    H8011994   4.063   3.721   4.518 -2.0867  1.0299 -0.3579
   38MOL    H8111995   4.278   3.693   4.626 -3.1023 -1.6772 -0.0590
   38MOL    C8211996   3.835   4.014   4.498  0.5708 -0.8670 -0.2710
   38MOL    C8311997   3.699   4.010   4.435  0.3604 -0.0103  0.2777
   38MOL    C8411998   3.635   3.884   4.403 -0.0964  0.2519 -0.4144
   38MOL    C8511999   3.497   3.883   4.372 -0.2593  0.1859 -1.0347
   38MOL    C8612000   3.428   4.000   4.342  0.4081 -0.5136 -0.0746
   38MOL    C8712001   3.279   4.001   4.294 -0.3246 -0.2623 -0.1572
   38MOL    C8812002   3.497   4.127   4.350  0.2845  0.1046  0.1116
   38MOL    C8912003   3.626   4.128   4.403 -0.2972 -0.8075 -0.2852
   38MOL    H9012004   3.872   4.116   4.509 -0.4071 -0.5497  0.0732
   38MOL    H9112005   3.825   3.963   4.593  1.4840 -3.9137 -1.7377
   38MOL    H9212006   3.689   3.795   4.431 -2.6106 -1.0395  0.4978
   38MOL    H9312007   3.449   3.786   4.360 -0.6085 -0.1356  2.3379
   38MOL    H9412008   3.229   3.905   4.285 -1.6880  0.5658 -1.6339
   38MOL    H9512009   3.266   4.047   4.196 -1.0013 -0.0075  0.0548
   38MOL    H9612010   3.448   4.221   4.329 -0.3891 -0.3185 -0.2334
   38MOL    H9712011   3.672   4.220   4.435  0.6496 -0.5333 -2.4053
   38MOL    C9812012   3.195   4.085   4.386 -0.3412 -0.3657  0.1001
   38MOL    C9912013   3.047   4.091   4.338  0.3525  0.0850 -1.1844
   38MOL   C10012014   2.959   4.010   4.407 -0.0480 -0.5105  0.2032
   38MOL   C10112015   2.821   4.019   4.382 -0.1234  0.8160  0.0821
   38MOL   C10212016   2.774   4.105   4.278  0.1473  0.5213  0.2603
   38MOL   C10312017   2.626   4.114   4.252  0.1143 -0.1040 -0.3272
   38MOL   C10412018   2.863   4.184   4.203  0.1615  0.4208  0.4777
   38MOL   C10512019   2.999   4.183   4.236 -0.2506  0.1307 -0.0091
   38MOL   H10612020   3.230   4.187   4.371  4.2169 -1.5381  1.9959
   38MOL   H10712021   3.201   4.044   4.487 -0.1561 -2.3996 -0.7202
   38MOL   H10812022   2.998   3.951   4.488  2.5107  0.5479 -0.2101
   38MOL   H10912023   2.745   3.971   4.442 -1.7855 -0.0775 -2.6636
   38MOL   H11012024   2.568   4.105   4.344 -1.5996  0.9116 -1.2830
   38MOL   H11112025   2.617   4.221   4.234 -0.7544  0.0025  0.6838
   38MOL   H11212026   2.827   4.254   4.129 -1.4439 -2.0199 -1.1230
   38MOL   H11312027   3.063   4.254   4.187 -1.2725  0.7696 -0.4342
   38MOL   C11412028   2.596   4.015   4.142  0.0299 -0.0609  0.6661
   38MOL   C11512029   2.449   4.016   4.102 -0.6579 -0.1809 -0.0753
   38MOL   C11612030   2.399   4.122   4.025 -0.5791 -0.6231  0.9134
   38MOL   C11712031   2.258   4.128   3.993  0.1925 -0.4254 -0.0940
   38MOL   C11812032   2.173   4.027   4.036  0.4231  0.8151 -0.5231
   38MOL   C11912033   2.023   4.026   4.015  0.2124 -0.2083  0.6983
   38MOL   C12012034   2.229   3.918   4.104  0.4752 -0.0955 -0.0882
   38MOL   C12112035   2.363   3.910   4.141 -0.2935  0.8774  0.1096
   38MOL   H12212036   2.618   3.913   4.174  1.7623  0.0176 -0.2570
   38MOL   H12312037   2.653   4.040   4.053 -2.2120  1.7303 -0.2999
   38MOL   H12412038   2.466   4.202   3.995  0.0386 -0.8367  1.7048
   38MOL   H12512039   2.220   4.209   3.932  0.4125 -0.9587 -0.9486
   38MOL   H12612040   1.986   3.927   3.988  0.5409  0.0465 -0.6905
   38MOL   H12712041   1.972   4.057   4.106 -0.6786  1.0891 -0.2288
   38MOL   H12812042   2.159   3.844   4.140 -1.1473 -0.0926 -3.1097
   38MOL   H12912043   2.398   3.832   4.207 -1.0400  0.2288 -0.2592
   38MOL   C13012044   1.973   4.119   3.897 -0.4211 -0.9299 -0.5414
   38MOL   C13112045   1.821   4.130   3.882 -0.6755  0.0726 -0.1473
   38MOL   C13212046   1.744   4.016   3.886  0.0016 -0.5220 -0.3907
   38MOL   C13312047   1.607   4.022   3.869 -0.2923 -0.3280  0.4243
   38MOL   C13412048   1.541   4.142   3.859  0.0812  0.3386  0.3144
   38MOL   C13512049   1.394   4.159   3.846 -0.0047  0.3980 -0.2851
   38MOL   C13612050   1.621   4.254   3.877  0.0051 -0.0712 -0.2591
   38MOL   C13712051   1.759   4.255   3.884  0.0511 -0.0426  0.2173
   38MOL   H13812052   2.008   4.099   3.795 -0.0420  0.8084 -0.7543
   38MOL   H13912053   2.008   4.221   3.905 -1.4939 -0.3798 -2.3623
   38MOL   H14012054   1.792   3.920   3.894 -0.1187 -0.5165  0.3689
   38MOL   H14112055   1.557   3.926   3.868  0.8225 -0.9296  0.9055
   38MOL   H14212056   1.341   4.097   3.918 -1.4256 -1.5544 -2.9361
   38MOL   H14312057   1.364   4.258   3.881  0.3904 -0.0697  1.3848
   38MOL   H14412058   1.570   4.348   3.891  2.6165  1.5319 -1.1636
   38MOL   H14512059   1.807   4.351   3.883 -0.2156  0.1046  1.3287
   38MOL   C14612060   1.346   4.138   3.703  1.1290 -0.4187 -0.7830
   38MOL   C14712061   1.202   4.181   3.681 -0.3391 -0.3277  0.0659
   38MOL   C14812062   1.169   4.313   3.641 -0.2146 -0.4295 -0.4179
   38MOL   C14912063   1.035   4.354   3.632 -0.0609  0.2038 -0.3153
   38MOL   C15012064   0.936   4.261   3.679  0.5341  0.4971 -0.6441
   38MOL   C15112065   0.790   4.305   3.666 -0.2576 -0.3084 -0.1705
   38MOL   C15212066   0.973   4.134   3.722  0.6275 -0.4105  0.4052
   38MOL   C15312067   1.104   4.092   3.729  0.0189  0.2285 -0.2590
   38MOL   H15412068   1.352   4.035   3.666 -0.5358 -0.1940 -1.7075
   38MOL   H15512069   1.402   4.201   3.633 -1.0627  0.9473 -1.3407
   38MOL   H15612070   1.248   4.382   3.618  1.0982 -1.9541 -0.5421
   38MOL   H15712071   1.012   4.451   3.592  1.3324  1.1977  1.2442
   38MOL   H15812072   0.726   4.248   3.734  2.0438 -0.1801  2.1947
   38MOL   H15912073   0.787   4.408   3.703  2.3914  0.1735 -1.1725
   38MOL   H16012074   0.901   4.062   3.757 -0.1750  0.5898  0.8307
   38MOL   H16112075   1.133   3.992   3.757 -1.9228 -0.7412 -1.5712
   38MOL   C16212076   0.739   4.298   3.520 -0.2819  0.3844 -0.3145
   38MOL   C16312077   0.582   4.309   3.530  0.2144  1.0025  0.0149
   38MOL   C16412078   0.492   4.200   3.553  0.9661  0.0259 -0.7758
   38MOL   C16512079   0.353   4.219   3.563 -0.4185 -0.3485  0.7259
   38MOL   C16612080   0.297   4.346   3.556 -0.5490 -0.3282 -0.6115
   38MOL   C16712081   0.144   4.362   3.567 -0.3287 -0.4471 -0.6112
   38MOL   C16812082   0.388   4.456   3.544  0.5434  0.6762  0.2971
   38MOL   C16912083   0.523   4.435   3.518 -0.0456 -0.4963  0.8535
   38MOL   H17012084   0.770   4.205   3.473 -1.7038 -1.5613  2.4498
   38MOL   H17112085   0.787   4.376   3.461  3.0333 -0.1711  1.5058
   38MOL   H17212086   0.537   4.102   3.566 -1.2105 -0.8619  0.2185
   38MOL   H17312087   0.301   4.124   3.575 -1.3893  0.1317  0.4039
   38MOL   H17412088   0.091   4.269   3.588 -0.9466 -0.2045 -1.0899
   38MOL   H17512089   0.133   4.434   3.647  2.6156  0.2413 -0.7422
   38MOL   H17612090   0.349   4.557   3.539  0.4863  0.5996 -1.0597
   38MOL   H17712091   0.585   4.514   3.480 -0.2662  0.0266  1.5645
   38MOL   C17812092   0.080   4.426   3.433  0.4724 -0.1178  0.2858
   38MOL   C17912093  -0.072   4.418   3.446  0.1510 -0.1138  0.1865
   38MOL   C18012094  -0.144   4.497   3.539  0.0528  0.0216  0.9195
   38MOL   C18112095  -0.280   4.507   3.526 -0.1196 -0.0637  0.4478
   38MOL   C18212096  -0.350   4.441   3.417 -0.2156  0.5962  0.7739
   38MOL   C18312097  -0.493   4.482   3.383 -0.4056  0.2326 -0.0268
   38MOL   C18412098  -0.276   4.357   3.325  0.6049 -0.5937 -0.9228
   38MOL   C18512099  -0.138   4.349   3.344 -0.5095  0.1870  0.5740
   38MOL   H18612100   0.117   4.362   3.353 -0.2229 -2.0706  1.4914
   38MOL   H18712101   0.119   4.528   3.428  2.0506 -0.6399  1.3704
   38MOL   H18812102  -0.081   4.546   3.611  1.1062  1.1893 -0.7584
   38MOL   H18912103  -0.332   4.562   3.603  1.1655 -0.3764  1.5669
   38MOL   H19012104  -0.532   4.529   3.473 -0.8288  0.1509 -0.1653
   38MOL   H19112105  -0.501   4.562   3.310 -0.3563 -0.3826 -0.7101
   38MOL   H19212106  -0.327   4.311   3.241 -2.1384 -1.1056  0.9438
   38MOL   H19312107  -0.083   4.287   3.273  0.3175  0.4930  0.9430
   38MOL   C19412108  -0.582   4.373   3.330  0.0240  0.1023  0.3911
   38MOL   C19512109  -0.717   4.430   3.301  0.4427 -0.1281 -0.1969
   38MOL   C19612110  -0.749   4.471   3.173  0.3100 -0.3658 -0.8391
   38MOL   C19712111  -0.875   4.527   3.147  0.4113 -0.2728 -0.0995
   38MOL   C19812112  -0.971   4.532   3.243 -0.5390 -0.1978 -0.2488
   38MOL   C19912113  -1.102   4.601   3.212  0.4408 -0.4417  0.8075
   38MOL   C20012114  -0.938   4.486   3.372 -0.5948 -0.5712 -0.0449
   38MOL   C20112115  -0.813   4.431   3.400  0.7399  0.0215 -0.4198
   38MOL   H20212116  -0.593   4.292   3.403 -0.3192 -0.8621 -0.7240
   38MOL   H20312117  -0.535   4.329   3.242 -0.1175  1.7435 -0.5197
   38MOL   H20412118  -0.674   4.461   3.095  1.2691  3.6570 -0.5034
   38MOL   H20512119  -0.913   4.559   3.051 -3.1192 -2.3399  0.5346
   38MOL   H20612120  -1.094   4.693   3.271 -0.6383  0.4027 -0.3549
   38MOL   H20712121  -1.105   4.622   3.106 -1.0225 -2.4115  0.4250
   38MOL   H20812122  -1.011   4.492   3.452  1.8331  2.5959  2.0779
   38MOL   H20912123  -0.786   4.400   3.500 -2.5030 -0.5340  0.3386
   38MOL   C21012124  -1.226   4.522   3.258  0.0841 -0.5187  0.3851
   38MOL   C21112125  -1.363   4.596   3.239  0.2619  0.1941 -0.4293
   38MOL   C21212126  -1.385   4.719   3.298  0.2469  0.3773 -0.3120
   38MOL   C21312127  -1.512   4.778   3.287  0.8238 -0.2592 -0.4782
   38MOL   C21412128  -1.610   4.714   3.204  0.6532 -0.5642  0.5542
   38MOL   C21512129  -1.750   4.781   3.198  0.3395 -0.1214 -0.6185
   38MOL   C21612130  -1.597   4.586   3.147 -0.5804  0.0417  0.3754
   38MOL   C21712131  -1.468   4.524   3.169  0.5104 -0.5245 -0.2495
   38MOL   H21812132  -1.215   4.492   3.363 -2.4948  0.4518  0.9730
   38MOL   H21912133  -1.219   4.425   3.210  2.0606  0.2474 -0.9188
   38MOL   H22012134  -1.311   4.758   3.367  1.3669  0.0360 -1.3145
   38MOL   H22112135  -1.535   4.868   3.343  0.2758 -1.2936  0.9956
   38MOL   H22212136  -1.823   4.715   3.245 -0.8064  1.5982  0.1044
   38MOL   H22312137  -1.759   4.871   3.260 -0.0986  0.0952 -0.9882
   38MOL   H22412138  -1.677   4.544   3.087 -0.9125  0.6003  0.4265
   38MOL   H22512139  -1.450   4.427   3.125  0.3473 -0.9355  0.5674
   38MOL   C22612140  -1.806   4.800   3.064  0.0918  0.7840  0.0848
   38MOL   C22712141  -1.957   4.820   3.050  0.6688  0.0529  0.1982
   38MOL   C22812142  -2.016   4.928   3.115  0.3067 -0.2041 -0.3535
   38MOL   C22912143  -2.160   4.945   3.126 -1.0484  0.2793  0.0287
   38MOL   C23012144  -2.245   4.851   3.063  0.3247  0.2796  0.1902
   38MOL   C23112145  -2.394   4.873   3.055 -0.3153 -0.3962 -0.3284
   38MOL   C23212146  -2.189   4.741   2.989 -0.6321 -0.1553  0.4510
   38MOL   C23312147  -2.048   4.720   2.996 -0.5457  0.0096 -0.4314
   38MOL   H23412148  -1.779   4.724   2.990  2.1684  1.2048  0.3775
   38MOL   H23512149  -1.760   4.891   3.025  0.8231  0.6657  0.6639
   38MOL   H23612150  -1.952   5.002   3.161  2.8296 -1.3902 -1.8442
   38MOL   H23712151  -2.210   5.025   3.177  0.5041  1.7622 -0.7323
   38MOL   H23812152  -2.450   4.782   3.075 -0.3713 -0.5047 -0.9634
   38MOL   H23912153  -2.425   4.945   3.131 -1.0143 -1.4819  0.4162
   38MOL   H24012154  -2.258   4.682   2.930 -1.1690 -1.0177  1.9225
   38MOL   H24112155  -2.012   4.625   2.959 -0.2656  0.1134 -0.4287
   38MOL   C24212156  -2.446   4.924   2.920  0.4059  0.4106  0.7526
   38MOL   C24312157  -2.595   4.961   2.923 -0.1268  0.4886  0.0585
   38MOL   C24412158  -2.691   4.855   2.916 -0.5292  0.0256  0.0879
   38MOL   C24512159  -2.825   4.889   2.934  0.1400 -0.8507 -0.8377
   38MOL   C24612160  -2.869   5.018   2.956 -0.2767  0.2214  0.5782
   38MOL   C24712161  -3.013   5.037   2.965  0.7260  0.2008  0.2905
   38MOL   C24812162  -2.775   5.122   2.972 -0.9241 -0.2811  0.3407
   38MOL   C24912163  -2.636   5.098   2.949 -0.5458  0.4696  0.2619
   38MOL   H25012164  -2.378   4.998   2.878  0.2407  0.5392  0.7136
   38MOL   H25112165  -2.435   4.841   2.850  1.3062  0.1543  1.1731
   38MOL   H25212166  -2.663   4.751   2.912 -0.9197 -0.0399 -1.2847
   38MOL   H25312167  -2.895   4.806   2.935  0.0106 -0.7440 -1.0378
   38MOL   H25412168  -3.051   4.965   3.037 -2.0593 -0.5520 -1.8419
   38MOL   H25512169  -3.016   5.136   3.010 -0.7507  0.9996 -1.5101
   38MOL   H25612170  -2.808   5.219   3.004  0.5048  0.3164  0.0356
   38MOL   H25712171  -2.553   5.166   2.961  1.0935 -1.7303  1.7315
   38MOL   C25812172  -3.076   5.020   2.828 -0.2233  0.1518 -0.1897
   38MOL   C25912173  -3.218   5.078   2.825 -0.0967 -0.5882  0.0089
   38MOL   C26012174  -3.328   5.005   2.879  0.0840 -0.2058 -0.1960
   38MOL   C26112175  -3.460   5.049   2.862 -0.0978 -0.1419 -0.4707
   38MOL   C26212176  -3.488   5.173   2.803  0.6015 -0.6271  1.5484
   38MOL   C26312177  -3.623   5.234   2.813  0.0666 -0.1838  0.2207
   38MOL   C26412178  -3.379   5.244   2.747 -0.5214 -0.2525 -0.0172
   38MOL   C26512179  -3.245   5.202   2.755  0.0087  0.3080  0.1570
   38MOL   H26612180  -3.066   4.916   2.797  0.2526  0.4364 -1.0120
   38MOL   H26712181  -3.026   5.070   2.745  0.3795 -1.3378 -0.7363
   38MOL   H26812182  -3.309   4.907   2.922 -0.0675 -0.4842 -0.7583
   38MOL   H26912183  -3.547   4.998   2.902 -0.4980 -1.1470 -2.6045
   38MOL   H27012184  -3.679   5.183   2.891  0.9406 -2.7101 -0.7562
   38MOL   H27112185  -3.627   5.341   2.831  0.5895 -0.3089  1.0784
   38MOL   H27212186  -3.395   5.339   2.699  0.6421 -0.5195 -0.9487
   38MOL   H27312187  -3.163   5.255   2.710  1.4038 -1.3171  0.7270
   38MOL   C27412188  -3.708   5.195   2.694 -0.0192  0.1041 -0.5624
   38MOL   C27512189  -3.845   5.256   2.707 -0.0550  0.1194  0.0346
   38MOL   C27612190  -3.872   5.395   2.668  0.2625 -0.0058 -0.9615
   38MOL   C27712191  -3.992   5.456   2.696 -0.4897 -0.1260 -0.4576
   38MOL   C27812192  -4.088   5.380   2.771  0.0619 -0.4129  0.0832
   38MOL   C27912193  -4.226   5.445   2.815  0.1587  0.2748  0.0867
   38MOL   C28012194  -4.065   5.246   2.808  0.5319  0.0658 -0.1142
   38MOL   C28112195  -3.942   5.187   2.777 -0.3017 -0.1573 -0.0782
   38MOL   H28212196  -3.669   5.228   2.598 -1.3482  3.6854  0.0823
   38MOL   H28312197  -3.719   5.086   2.698 -1.9386  0.2633 -0.9270
   38MOL   H28412198  -3.796   5.454   2.618 -1.1047  0.5899 -2.3991
   38MOL   H28512199  -4.018   5.551   2.652  0.5924  0.3457 -0.0930
   38MOL   H28612200  -4.298   5.364   2.827  0.4175  0.0827  0.3498
   38MOL   H28712201  -4.223   5.498   2.909 -1.9003 -0.4078  0.5675
   38MOL   H28812202  -4.138   5.190   2.865 -1.1217  3.0149  0.7524
   38MOL   H28912203  -3.931   5.081   2.797 -1.6507  0.0075  1.7206
   38MOL   C29012204  -4.281   5.538   2.704  0.3849 -0.1775  0.0062
   38MOL   C29112205  -4.431   5.583   2.711  0.2480 -0.7247  0.0371
   38MOL   C29212206  -4.459   5.706   2.767 -0.3218 -0.3821 -0.6057
   38MOL   C29312207  -4.593   5.740   2.776  0.5692  0.4727  0.0737
   38MOL   C29412208  -4.693   5.655   2.738 -0.0380 -0.1393  0.5874
   38MOL   C29512209  -4.839   5.691   2.758 -0.1083  0.0111  0.0160
   38MOL   C29612210  -4.662   5.533   2.689  0.5289  0.7493 -0.5842
   38MOL   C29712211  -4.533   5.495   2.679  0.0079 -0.6602 -0.8133
   38MOL   H29812212  -4.265   5.499   2.603 -0.6342 -0.8563  0.0959
   38MOL   H29912213  -4.211   5.621   2.702  0.9216 -0.5314  2.5872
   38MOL   H30012214  -4.394   5.782   2.808 -2.2872  0.8518  0.3109
   38MOL   H30112215  -4.616   5.831   2.830 -0.2531 -0.1265  0.7409
   38MOL   H30212216  -4.878   5.609   2.817 -1.9936  0.1030 -1.0745
   38MOL   H30312217  -4.842   5.781   2.819  2.2290  0.3742 -0.3485
   38MOL   H30412218  -4.747   5.470   2.669 -0.1844  1.6511 -0.4710
   38MOL   H30512219  -4.511   5.400   2.632 -1.4109 -1.3147 -0.1796
   38MOL   C30612220  -4.925   5.727   2.630 -0.8538 -0.7450  0.0050
   38MOL   C30712221  -5.074   5.757   2.661  0.6232 -0.3444 -0.3937
   38MOL   C30812222  -5.170   5.655   2.650  0.8755 -0.2282 -0.1732
   38MOL   C30912223  -5.304   5.683   2.680 -0.5815  0.2843  0.6084
   38MOL   C31012224  -5.346   5.816   2.706  0.1452 -0.1446  0.6293
   38MOL   C31112225  -5.494   5.848   2.702 -0.4197 -0.4650 -0.1333
   38MOL   C31212226  -5.248   5.918   2.724 -0.0925 -0.6276 -0.6672
   38MOL   C31312227  -5.116   5.886   2.703 -0.0579  0.0381  0.8057
   38MOL   H31412228  -4.911   5.658   2.546  1.4882  0.9500 -1.0348
   38MOL   H31512229  -4.888   5.821   2.589  0.9685 -1.9295 -1.1447
   38MOL   H31612230  -5.136   5.557   2.619 -0.4225  0.3135 -3.5055
   38MOL   H31712231  -5.360   5.591   2.680  0.3228 -0.3097  3.1337
   38MOL   H31812232  -5.531   5.876   2.603  2.0304  1.6226 -0.5023
   38MOL   H31912233  -5.543   5.760   2.744  1.0737  0.0549  2.8257
   38MOL   H32012234  -5.287   6.015   2.752  1.6043  0.9556 -3.5130
   38MOL   H32112235  -5.056   5.975   2.719 -0.0522  0.4997 -1.6120
   38MOL   H32212236  -5.507   5.937   2.764 -0.4429 -0.0592 -0.7239
   39MOL     C112237   6.551   2.914   0.982  0.9629 -0.0966  0.3202
   39MOL     C212238   6.701   2.884   0.962  0.1251  0.1042  0.6192
   39MOL     C312239   6.794   2.932   1.058  0.3046  0.4399 -0.2265
   39MOL     C412240   6.927   2.904   1.054 -0.2647 -0.1359  0.3360
   39MOL     C512241   6.973   2.818   0.951  0.4054  0.2275  0.0876
   39MOL     C612242   7.122   2.788   0.943 -0.7187  0.5146  0.1943
   39MOL     C712243   6.884   2.765   0.859 -0.0993  0.5217 -0.2991
   39MOL     C812244   6.748   2.802   0.861 -0.0426 -0.3932  0.5174
   39MOL     H912245   6.500   2.836   1.038 -0.4700  0.4821 -0.1503
   39MOL    H1012246   6.545   3.011   1.030  0.9880  0.7629 -1.3556
   39MOL    H1112247   6.762   2.998   1.137  2.3659  0.1124  0.9083
   39MOL    H1212248   6.988   2.953   1.129  0.0389 -2.1139  1.4316
   39MOL    H1312249   7.163   2.859   1.015  4.8957 -0.2215 -2.0044
   39MOL    H1412250   7.152   2.684   0.956 -0.4605  0.5397 -0.1877
   39MOL    H1512251   6.917   2.693   0.785  1.1393  1.7019 -0.9085
   39MOL    H1612252   6.676   2.760   0.793  0.9642  0.6199 -1.2036
   39MOL    H1712253   6.500   2.918   0.885 -2.1378 -2.3971  1.7779
   39MOL    C1812254   7.187   2.832   0.807  0.2491  0.0044  0.0434
   39MOL    C1912255   7.340   2.794   0.802 -0.5312 -0.4718 -0.4661
   39MOL    C2012256   7.444   2.891   0.819  0.1366  0.1617 -0.3375
   39MOL    C2112257   7.584   2.850   0.812  0.4911 -0.3045 -0.0994
   39MOL    C2212258   7.616   2.717   0.768  0.1129  0.1711 -0.6844
   39MOL    C2312259   7.761   2.669   0.752  0.3999  0.1190 -0.0490
   39MOL    C2412260   7.506   2.630   0.747 -0.2446 -0.1927  0.3525
   39MOL    C2512261   7.372   2.661   0.768  0.1208 -0.5963 -0.1143
   39MOL    H2612262   7.131   2.783   0.728  1.0310 -1.2751  0.2762
   39MOL    H2712263   7.165   2.937   0.786  0.4722 -0.3527 -2.1155
   39MOL    H2812264   7.424   2.997   0.830  0.8149  0.2112  0.4334
   39MOL    H2912265   7.658   2.924   0.841  0.7215 -0.5535 -0.0509
   39MOL    H3012266   7.789   2.603   0.835 -0.4384  0.6523  0.6758
   39MOL    H3112267   7.814   2.764   0.761 -0.5327  0.4173  3.0275
   39MOL    H3212268   7.521   2.530   0.709 -0.9297 -0.0349 -0.3445
   39MOL    H3312269   7.307   2.576   0.750  1.6946 -2.3063  1.9416
   39MOL    C3412270   7.789   2.610   0.613  0.0295  0.1944 -0.2476
   39MOL    C3512271   7.938   2.588   0.588 -0.2141  0.7357 -0.2849
   39MOL    C3612272   7.974   2.467   0.526  0.4938 -0.3670  0.1126
   39MOL    C3712273   8.108   2.438   0.510 -0.5870 -0.2168 -0.0793
   39MOL    C3812274   8.208   2.511   0.575 -0.2956  0.6122  0.8191
   39MOL    C3912275   8.349   2.452   0.572  0.3149  0.0937 -1.0286
   39MOL    C4012276   8.171   2.632   0.640 -0.2054  0.1921 -0.1645
   39MOL    C4112277   8.037   2.666   0.652  0.9417  0.3408 -0.5669
   39MOL    H4212278   7.754   2.690   0.548 -0.5726  0.1518  0.0173
   39MOL    H4312279   7.725   2.523   0.595  0.7985 -0.7310  1.3462
   39MOL    H4412280   7.902   2.401   0.479  1.1210 -0.3568 -0.8870
   39MOL    H4512281   8.134   2.344   0.465  3.1869  0.3363  0.8083
   39MOL    H4612282   8.400   2.530   0.629 -2.1227  0.6671  0.4300
   39MOL    H4712283   8.350   2.361   0.632  1.4497 -0.0865 -1.3096
   39MOL    H4812284   8.248   2.682   0.697 -1.0272  0.7966  0.4201
   39MOL    H4912285   8.018   2.746   0.722  3.7562  0.1119  0.5077
   39MOL    C5012286   8.427   2.436   0.435 -0.3859  0.8693  0.2196
   39MOL    C5112287   8.576   2.400   0.457 -0.1432  0.1564 -0.1870
   39MOL    C5212288   8.608   2.266   0.421  0.3802 -0.2454  0.1372
   39MOL    C5312289   8.742   2.223   0.417  1.0583  0.3611 -0.0217
   39MOL    C5412290   8.836   2.316   0.468 -0.4200 -0.6067  0.3460
   39MOL    C5512291   8.980   2.269   0.461 -0.3052  0.1934 -0.3520
   39MOL    C5612292   8.814   2.448   0.508  0.7817  0.0164 -0.1001
   39MOL    C5712293   8.678   2.495   0.500  0.2576 -0.1536 -0.5847
   39MOL    H5812294   8.420   2.533   0.386 -1.0979  1.2906  1.1420
   39MOL    H5912295   8.377   2.361   0.374 -2.5429  2.2247  0.2593
   39MOL    H6012296   8.537   2.195   0.380 -0.5909  2.2821 -2.7177
   39MOL    H6112297   8.754   2.120   0.388 -2.7846  0.2205 -1.4581
   39MOL    H6212298   9.039   2.352   0.500  0.9024 -0.0979 -1.5448
   39MOL    H6312299   8.988   2.192   0.538 -2.9304  0.2435  0.0157
   39MOL    H6412300   8.893   2.509   0.548  2.1432 -0.8374 -1.4769
   39MOL    H6512301   8.651   2.595   0.531  0.2833 -0.9741  2.1442
   39MOL    C6612302   9.025   2.221   0.322  0.2094 -0.5214 -0.4009
   39MOL    C6712303   9.164   2.166   0.327 -0.0229 -0.0259 -0.3159
   39MOL    C6812304   9.192   2.030   0.298 -0.0636 -0.3412  0.2232
   39MOL    C6912305   9.324   1.976   0.306  0.1942 -0.3263  0.6279
   39MOL    C7012306   9.428   2.062   0.336 -0.1907 -0.0048 -0.3567
   39MOL    C7112307   9.570   2.010   0.346 -0.1000  0.6679  0.4323
   39MOL    C7212308   9.399   2.192   0.367  0.5473 -0.9809  0.5152
   39MOL    C7312309   9.264   2.250   0.369 -0.0639  0.8073  0.6260
   39MOL    H7412310   9.025   2.307   0.254  1.0993 -1.2818 -1.3798
   39MOL    H7512311   8.953   2.154   0.276  1.7810 -0.6419 -2.8008
   39MOL    H7612312   9.117   1.960   0.263  0.0027  0.6535 -1.9864
   39MOL    H7712313   9.349   1.873   0.285 -0.5730 -0.1888 -1.0524
   39MOL    H7812314   9.586   1.905   0.370  1.7189  0.8249 -0.0286
   39MOL    H7912315   9.631   2.064   0.418  1.2540  2.6036 -2.0569
   39MOL    H8012316   9.470   2.266   0.401 -0.8404  0.9066 -0.6185
   39MOL    H8112317   9.237   2.352   0.391  1.8669  1.3390  0.6303
   39MOL    C8212318   9.643   2.016   0.212 -0.1863 -0.2894 -0.7573
   39MOL    C8312319   9.776   1.951   0.215  0.4689 -0.4284 -0.3734
   39MOL    C8412320   9.802   1.819   0.172 -0.2054 -0.0940 -0.6565
   39MOL    C8512321   9.924   1.756   0.171  0.7144  0.6288 -0.4960
   39MOL    C8612322  10.038   1.825   0.218  0.2859 -0.3616  0.3358
   39MOL    C8712323  10.173   1.753   0.226  0.4854 -0.3174  0.4277
   39MOL    C8812324  10.022   1.959   0.256 -0.3435 -0.0015  0.8212
   39MOL    C8912325   9.888   2.021   0.262  0.7074  0.6342  0.2448
   39MOL    H9012326   9.655   2.122   0.189  0.2899 -0.2939 -0.5278
   39MOL    H9112327   9.582   1.968   0.136 -0.9814  2.5814 -1.9893
   39MOL    H9212328   9.721   1.756   0.138 -0.9793  1.0925 -1.0480
   39MOL    H9312329   9.929   1.652   0.144 -0.4837  0.6097 -0.6883
   39MOL    H9412330  10.159   1.647   0.249 -0.3085 -0.4814 -0.7726
   39MOL    H9512331  10.223   1.788   0.317  1.9170  2.1877 -1.2900
   39MOL    H9612332  10.106   2.012   0.297  0.2843 -2.6369  3.0708
   39MOL    H9712333   9.867   2.114   0.312  0.2698  0.3053  0.6807
   39MOL    C9812334  10.257   1.758   0.096 -0.3516 -0.4273 -0.2084
   39MOL    C9912335  10.395   1.696   0.107 -0.5296  0.0422 -0.5149
   39MOL   C10012336  10.495   1.753   0.181  0.4264  0.0665 -0.1809
   39MOL   C10112337  10.623   1.697   0.185 -0.0120  0.0790  0.3897
   39MOL   C10212338  10.652   1.581   0.107 -0.0372 -0.1107  0.4309
   39MOL   C10312339  10.793   1.522   0.107  0.4983  0.3391  0.0529
   39MOL   C10412340  10.553   1.517   0.033 -0.2683 -0.0640 -1.0244
   39MOL   C10512341  10.424   1.575   0.039  0.3155 -0.7247  0.2303
   39MOL   H10612342  10.276   1.863   0.072 -0.7280 -0.6991 -1.7625
   39MOL   H10712343  10.197   1.712   0.017  0.5573  0.2270 -1.2875
   39MOL   H10812344  10.463   1.833   0.246  0.2312 -1.7156  2.0112
   39MOL   H10912345  10.696   1.748   0.246  1.5412 -0.2151 -1.1726
   39MOL   H11012346  10.859   1.562   0.185 -1.6040  0.0659  2.0413
   39MOL   H11112347  10.788   1.418   0.141  0.2791  0.1310 -0.6100
   39MOL   H11212348  10.575   1.420  -0.009  0.0070 -1.7730  2.8717
   39MOL   H11312349  10.346   1.533  -0.024 -0.1469  1.6119 -0.8127
   39MOL   C11412350  10.865   1.544  -0.023  0.5175  0.2840 -0.3124
   39MOL   C11512351  11.006   1.487  -0.008  0.2026 -0.1863  0.9082
   39MOL   C11612352  11.037   1.355  -0.040  0.2419 -0.4371  0.6283
   39MOL   C11712353  11.169   1.303   0.002  0.2524  0.2820  0.7396
   39MOL   C11812354  11.267   1.385   0.052 -1.3192  0.9181 -0.3474
   39MOL   C11912355  11.408   1.339   0.085 -0.0098  0.2655  0.4798
   39MOL   C12012356  11.234   1.518   0.074 -0.5647 -0.3990 -0.0424
   39MOL   C12112357  11.105   1.567   0.049 -0.0639 -0.0756  0.3299
   39MOL   H12212358  10.867   1.652  -0.041  0.0257  0.3116 -0.2183
   39MOL   H12312359  10.812   1.500  -0.107  2.8598  1.2361 -2.3500
   39MOL   H12412360  10.954   1.288  -0.058  0.5579 -0.7365  0.2811
   39MOL   H12512361  11.194   1.198   0.011 -0.1808  0.2225  1.3682
   39MOL   H12612362  11.457   1.416   0.145  0.5516  0.7441 -0.5658
   39MOL   H12712363  11.402   1.250   0.147 -2.2969 -0.8969 -1.3420
   39MOL   H12812364  11.311   1.589   0.101  0.0860 -0.4135 -1.8103
   39MOL   H12912365  11.085   1.673   0.053 -0.1842 -0.1791  2.7826
   39MOL   C13012366  11.485   1.312  -0.043 -0.6892  0.0476  0.3204
   39MOL   C13112367  11.623   1.254  -0.030  0.4668 -0.1976 -0.1664
   39MOL   C13212368  11.728   1.344  -0.020  0.3229 -0.3660  0.7503
   39MOL   C13312369  11.859   1.298  -0.016  0.5322 -0.6998 -0.1066
   39MOL   C13412370  11.890   1.161  -0.027 -0.3930  0.2689  0.0581
   39MOL   C13512371  12.035   1.124  -0.037 -0.6131 -0.0531 -0.4894
   39MOL   C13612372  11.787   1.070  -0.049 -0.4738 -0.6332 -0.9384
   39MOL   C13712373  11.652   1.112  -0.046 -0.4319  0.1680 -0.0925
   39MOL   H13812374  11.491   1.399  -0.108  1.0910 -0.8406 -0.7436
   39MOL   H13912375  11.432   1.239  -0.104  0.6703  0.9215 -1.9722
   39MOL   H14012376  11.698   1.447  -0.004  1.2154  0.2030 -1.0338
   39MOL   H14112377  11.938   1.370  -0.005  1.4296 -1.6848 -0.0769
   39MOL   H14212378  12.092   1.208   0.001 -0.2025  0.0341 -1.2748
   39MOL   H14312379  12.074   1.053   0.036  2.7549  1.1519 -1.0342
   39MOL   H14412380  11.811   0.965  -0.040 -1.1408 -0.7126  0.0638
   39MOL   H14512381  11.570   1.044  -0.065 -1.8863  1.6496  0.8440
   39MOL   C14612382  12.077   1.082  -0.180  0.2193  0.3240 -0.3200
   39MOL   C14712383  12.217   1.029  -0.184 -0.7021 -0.3584 -0.2272
   39MOL   C14812384  12.241   0.890  -0.169  0.3191 -0.4510 -0.5166
   39MOL   C14912385  12.370   0.838  -0.174  0.1135  0.4172 -0.1665
   39MOL   C15012386  12.481   0.928  -0.171 -0.0359 -0.2869 -1.2450
   39MOL   C15112387  12.628   0.874  -0.172  0.8990  0.1687  0.1273
   39MOL   C15212388  12.454   1.065  -0.178 -0.1338  0.4517 -0.6162
   39MOL   C15312389  12.327   1.114  -0.188  0.8153 -0.0704 -0.0190
   39MOL   H15412390  12.061   1.166  -0.247 -0.8514 -0.1534 -0.6761
   39MOL   H15512391  12.016   1.003  -0.223 -1.0597 -0.4766  2.8243
   39MOL   H15612392  12.155   0.828  -0.150 -0.3781  0.3055 -1.1950
   39MOL   H15712393  12.389   0.732  -0.166  0.5471  0.5450  0.5021
   39MOL   H15812394  12.627   0.773  -0.132  1.8863  0.2996  0.4923
   39MOL   H15912395  12.663   0.865  -0.274 -1.0746 -0.9888 -0.4622
   39MOL   H16012396  12.535   1.136  -0.182  2.0289 -1.7577  1.6346
   39MOL   H16112397  12.321   1.220  -0.208  1.5633  0.1427  0.8438
   39MOL   C16212398  12.726   0.953  -0.091  0.3658  0.1140 -0.8676
   39MOL   C16312399  12.862   0.904  -0.103 -0.2170 -0.1684 -0.5082
   39MOL   C16412400  12.904   0.799  -0.020  0.6547  0.6713 -0.3581
   39MOL   C16512401  13.028   0.732  -0.037 -0.3020  0.3809  0.1711
   39MOL   C16612402  13.104   0.765  -0.147  0.5729  0.0944  0.4676
   39MOL   C16712403  13.234   0.690  -0.170 -0.7263  0.2152 -0.3572
   39MOL   C16812404  13.062   0.861  -0.240 -0.2544 -0.1442 -0.5154
   39MOL   C16912405  12.943   0.934  -0.215  0.2048 -0.2370 -0.0254
   39MOL   H17012406  12.703   0.967   0.015 -1.5914  2.7926 -1.5889
   39MOL   H17112407  12.715   1.053  -0.132 -2.1584  0.7381  1.1538
   39MOL   H17212408  12.840   0.776   0.064 -0.0508 -2.0208 -1.5784
   39MOL   H17312409  13.064   0.655   0.030 -2.0587 -0.6923 -0.0765
   39MOL   H17412410  13.246   0.593  -0.121 -1.2263 -0.1720 -0.9947
   39MOL   H17512411  13.245   0.662  -0.275 -0.8860  0.4895 -0.4470
   39MOL   H17612412  13.115   0.884  -0.331  1.6762 -1.0755  0.3536
   39MOL   H17712413  12.915   1.003  -0.294 -0.4454  1.3876  1.5892
   39MOL   C17812414  13.357   0.770  -0.131 -0.3009  0.1520  0.1932
   39MOL   C17912415  13.490   0.704  -0.161  0.4332  0.2173  0.6905
   39MOL   C18012416  13.595   0.785  -0.126 -0.5847  0.4220  0.6145
   39MOL   C18112417  13.728   0.739  -0.157  0.4987  0.0756 -0.1341
   39MOL   C18212418  13.751   0.611  -0.210 -0.3136  0.0813 -0.0466
   39MOL   C18312419  13.894   0.556  -0.239 -0.5259 -0.7301  1.3044
   39MOL   C18412420  13.639   0.533  -0.238 -0.1357  0.6730 -0.0027
   39MOL   C18512421  13.506   0.583  -0.230  0.9357  0.0700 -0.2213
   39MOL   H18612422  13.362   0.812  -0.031  0.3785  0.8862 -0.1413
   39MOL   H18712423  13.366   0.851  -0.203  0.8716 -1.8341 -1.9590
   39MOL   H18812424  13.592   0.874  -0.064  1.5282  1.1863 -0.3186
   39MOL   H18912425  13.816   0.793  -0.124  1.5198 -2.9117  2.2929
   39MOL   H19012426  13.976   0.607  -0.189  0.0701 -1.6272  1.2547
   39MOL   H19112427  13.905   0.452  -0.207 -0.7806 -0.7606  1.2965
   39MOL   H19212428  13.642   0.429  -0.268  2.2199  0.7160 -0.0024
   39MOL   H19312429  13.417   0.529  -0.257 -0.7121  2.7546 -0.3982
   39MOL   C19412430  13.931   0.558  -0.387  0.1028 -0.3873 -0.6578
   39MOL   C19512431  14.067   0.494  -0.412  0.4910  0.2874 -0.4792
   39MOL   C19612432  14.064   0.354  -0.435 -0.5276  0.2155 -0.6937
   39MOL   C19712433  14.189   0.285  -0.454  0.3863  0.5297  0.1754
   39MOL   C19812434  14.309   0.354  -0.444  0.6876 -0.0259  0.0275
   39MOL   C19912435  14.444   0.284  -0.459 -0.2206  0.1013 -0.2721
   39MOL   C20012436  14.314   0.496  -0.433  0.1751 -0.0196 -0.5975
   39MOL   C20112437  14.188   0.564  -0.412  1.5212  0.6103 -0.2086
   39MOL   H20212438  13.935   0.665  -0.411 -1.2550  0.1939  1.5732
   39MOL   H20312439  13.847   0.521  -0.447 -0.8989  0.7325  0.0143
   39MOL   H20412440  13.980   0.288  -0.418  0.5004 -0.4485  2.1150
   39MOL   H20512441  14.194   0.177  -0.459 -0.6664  0.4354  0.8519
   39MOL   H20612442  14.507   0.307  -0.373 -1.0544 -0.6426  0.5490
   39MOL   H20712443  14.426   0.176  -0.454 -0.2615  0.0449 -1.4587
   39MOL   H20812444  14.407   0.550  -0.421  1.3471 -1.7241 -1.7675
   39MOL   H20912445  14.187   0.669  -0.390 -2.4855  0.3861  1.1405
   39MOL   C21012446  14.514   0.317  -0.589 -0.0801  0.4332  0.4186
   39MOL   C21112447  14.630   0.225  -0.611  0.6876  0.3225  0.4815
   39MOL   C21212448  14.611   0.093  -0.665 -0.3956  0.3813 -0.4244
   39MOL   C21312449  14.719   0.007  -0.676  0.4565  0.9201  0.8307
   39MOL   C21412450  14.849   0.053  -0.638 -0.0585  0.5033 -0.4103
   39MOL   C21512451  14.969  -0.042  -0.647 -0.4680 -0.1244 -0.0688
   39MOL   C21612452  14.868   0.187  -0.589 -0.2107  0.0688  0.2379
   39MOL   C21712453  14.755   0.271  -0.572  0.0387 -0.0605 -0.0413
   39MOL   H21812454  14.554   0.417  -0.575  2.1930 -0.6077  1.6214
   39MOL   H21912455  14.440   0.310  -0.669  0.9549  2.7949 -0.7922
   39MOL   H22012456  14.509   0.062  -0.684  0.0106  0.5752 -3.1112
   39MOL   H22112457  14.712  -0.092  -0.717  0.1480  1.2256  0.1262
   39MOL   H22212458  15.035  -0.021  -0.564  0.6015 -0.2447 -0.8802
   39MOL   H22312459  14.940  -0.147  -0.647  1.0268 -0.5415 -0.5338
   39MOL   H22412460  14.967   0.222  -0.565  1.1736 -2.6646 -1.2455
   39MOL   H22512461  14.767   0.371  -0.534 -1.1157  0.8547 -1.9870
   39MOL   C22612462  15.040  -0.003  -0.780 -0.1123 -0.3660 -0.0874
   39MOL   C22712463  15.158  -0.088  -0.809 -0.2030 -0.3112  0.4637
   39MOL   C22812464  15.147  -0.220  -0.854  0.2806  0.1798  0.9551
   39MOL   C22912465  15.258  -0.290  -0.907 -0.3156  0.5626  0.7247
   39MOL   C23012466  15.386  -0.230  -0.890 -0.2671  0.0366  0.3013
   39MOL   C23112467  15.508  -0.310  -0.942  0.6402  0.0977  0.3573
   39MOL   C23212468  15.403  -0.108  -0.824  1.2255 -0.5061 -0.1382
   39MOL   C23312469  15.286  -0.037  -0.794 -0.3359  0.5710 -0.1818
   39MOL   H23412470  15.073   0.099  -0.763  1.3202 -0.7735 -0.3566
   39MOL   H23512471  14.974  -0.011  -0.866 -0.8030  2.9543  0.0985
   39MOL   H23612472  15.053  -0.273  -0.849  0.4079 -0.0762  0.5709
   39MOL   H23712473  15.248  -0.393  -0.941  0.4066  0.8180 -0.2987
   39MOL   H23812474  15.469  -0.366  -1.027 -2.6752  0.7362  1.3854
   39MOL   H23912475  15.577  -0.235  -0.981  5.3268 -3.3048  1.7387
   39MOL   H24012476  15.501  -0.064  -0.812 -0.1073  2.0564  1.6662
   39MOL   H24112477  15.309   0.057  -0.744 -0.1220  0.3329  0.1729
   39MOL   C24212478  15.590  -0.364  -0.834  0.4250  0.5449  0.2411
   39MOL   C24312479  15.720  -0.413  -0.885 -0.5571 -0.0193 -0.0149
   39MOL   C24412480  15.736  -0.555  -0.914 -0.3554 -0.7938 -0.4933
   39MOL   C24512481  15.857  -0.603  -0.974  0.3111 -0.7628 -1.0159
   39MOL   C24612482  15.952  -0.511  -1.007  0.6945  0.0983 -0.4298
   39MOL   C24712483  16.085  -0.567  -1.063  0.0869 -0.2563  0.0557
   39MOL   C24812484  15.945  -0.373  -0.977 -0.4662  0.7818 -0.9200
   39MOL   C24912485  15.833  -0.329  -0.909  0.2194  0.3496  0.1537
   39MOL   H25012486  15.608  -0.292  -0.754  1.7901  0.1469  0.3147
   39MOL   H25112487  15.539  -0.436  -0.770 -1.4714  0.5286 -1.2419
   39MOL   H25212488  15.654  -0.624  -0.908 -1.8982  0.9085 -1.5215
   39MOL   H25312489  15.868  -0.710  -0.984 -0.5435 -1.3009  2.7178
   39MOL   H25412490  16.069  -0.638  -1.143  0.5095 -0.6316  0.3039
   39MOL   H25512491  16.144  -0.481  -1.095 -1.4814  1.2963  1.1842
   39MOL   H25612492  16.032  -0.312  -0.995  0.9832 -0.3597  1.8925
   39MOL   H25712493  15.830  -0.225  -0.879  0.7013  0.3311  0.2603
   39MOL   C25812494  16.172  -0.644  -0.967  0.3589 -0.5748 -0.3186
   39MOL   C25912495  16.306  -0.664  -1.036 -0.8095 -0.6134 -0.1095
   39MOL   C26012496  16.419  -0.599  -0.992  0.0494  0.6874  0.2794
   39MOL   C26112497  16.544  -0.622  -1.049  0.1863  0.5533 -0.1135
   39MOL   C26212498  16.563  -0.717  -1.153 -0.1117 -1.2273 -0.5584
   39MOL   C26312499  16.700  -0.756  -1.204  0.1239 -0.2965 -0.0950
   39MOL   C26412500  16.448  -0.776  -1.204  0.4693  0.8180  0.7096
   39MOL   C26512501  16.318  -0.759  -1.144 -0.0141 -0.1533 -0.2669
   39MOL   H26612502  16.117  -0.732  -0.934 -1.9716  1.0324  0.2479
   39MOL   H26712503  16.193  -0.569  -0.890 -3.4204  0.9933 -0.6611
   39MOL   H26812504  16.417  -0.535  -0.905 -2.8662 -0.1760  0.8985
   39MOL   H26912505  16.627  -0.569  -1.005  1.8299 -1.8227 -0.2734
   39MOL   H27012506  16.694  -0.805  -1.301  0.3869  2.8771 -1.7815
   39MOL   H27112507  16.752  -0.662  -1.221  1.8823 -0.9407  1.4715
   39MOL   H27212508  16.463  -0.852  -1.279 -0.7518  0.0726  1.2068
   39MOL   H27312509  16.232  -0.817  -1.174  0.8809 -1.2834 -0.6770
   39MOL   C27412510  16.775  -0.830  -1.095 -0.6721  0.1113  0.0405
   39MOL   C27512511  16.916  -0.842  -1.140 -0.8313  0.2452 -0.0801
   39MOL   C27612512  16.944  -0.931  -1.242 -0.7990 -0.5685 -0.4149
   39MOL   C27712513  17.078  -0.963  -1.274 -0.4440  0.4915 -0.0224
   39MOL   C27812514  17.186  -0.880  -1.228  0.3456  0.1620 -0.8180
   39MOL   C27912515  17.323  -0.902  -1.268  0.2185  0.1177 -0.2901
   39MOL   C28012516  17.156  -0.780  -1.131 -0.2097 -0.1779  0.4739
   39MOL   C28112517  17.023  -0.780  -1.074 -0.0357  0.1347 -0.2249
   39MOL   H28212518  16.774  -0.781  -0.998  1.4393  1.8949 -0.8235
   39MOL   H28312519  16.725  -0.925  -1.074  1.6420 -0.7564  1.8701
   39MOL   H28412520  16.863  -0.989  -1.282 -1.6052 -0.3734  0.8746
   39MOL   H28512521  17.092  -1.037  -1.351  0.9908  0.4294  0.2766
   39MOL   H28612522  17.329  -0.904  -1.377  1.1483  1.3535 -0.2736
   39MOL   H28712523  17.384  -0.816  -1.238  0.2004  0.1874 -0.4542
   39MOL   H28812524  17.237  -0.713  -1.106  1.1345 -1.6986  0.3147
   39MOL   H28912525  17.005  -0.713  -0.991  0.7856 -0.8624  0.7815
   39MOL   C29012526  17.389  -1.030  -1.224  0.4974  0.1969  0.4831
   39MOL   C29112527  17.531  -1.041  -1.277  0.8144 -0.2357  0.3116
   39MOL   C29212528  17.557  -1.126  -1.384 -0.0615  0.3088  0.8345
   39MOL   C29312529  17.691  -1.152  -1.421  0.1717  0.6623  0.3174
   39MOL   C29412530  17.794  -1.090  -1.346  0.7453 -0.0262 -0.5947
   39MOL   C29512531  17.938  -1.102  -1.392  0.2696 -0.4104  0.3893
   39MOL   C29612532  17.766  -0.999  -1.238  0.1049 -0.0147  0.3594
   39MOL   C29712533  17.630  -0.983  -1.200  0.2342 -0.1857 -0.2756
   39MOL   H29812534  17.334  -1.118  -1.258 -0.8060 -0.2465  3.6146
   39MOL   H29912535  17.391  -1.028  -1.115 -3.0130  0.3589  0.6058
   39MOL   H30012536  17.480  -1.174  -1.442  3.3023 -2.0268 -1.9530
   39MOL   H30112537  17.716  -1.219  -1.502  0.5438  0.1151  0.8712
   39MOL   H30212538  17.945  -1.076  -1.497 -0.5915 -2.3957 -0.1835
   39MOL   H30312539  18.003  -1.036  -1.333 -1.1173  1.1763  0.1671
   39MOL   H30412540  17.849  -0.959  -1.182  1.4205 -1.4780 -0.4827
   39MOL   H30512541  17.602  -0.923  -1.114 -1.8678 -2.9569  1.0362
   39MOL   C30612542  17.994  -1.241  -1.361 -0.7406  0.9873 -0.4392
   39MOL   C30712543  18.139  -1.259  -1.401 -0.5012  0.2559  0.2167
   39MOL   C30812544  18.173  -1.367  -1.485  0.0366  0.0425  0.7515
   39MOL   C30912545  18.299  -1.387  -1.541  0.2082 -0.1075  0.5115
   39MOL   C31012546  18.393  -1.299  -1.495 -0.0648 -0.1777  0.7296
   39MOL   C31112547  18.536  -1.312  -1.543  0.4003  0.2242 -0.0183
   39MOL   C31212548  18.368  -1.188  -1.413 -0.7273 -0.3500  0.2479
   39MOL   C31312549  18.242  -1.174  -1.351 -0.0389 -0.3466  1.2149
   39MOL   H31412550  17.937  -1.311  -1.422  0.7998 -1.0779  0.4295
   39MOL   H31512551  17.982  -1.260  -1.254 -1.5264 -0.3904 -0.7570
   39MOL   H31612552  18.097  -1.428  -1.533  2.5579  0.5860 -4.2751
   39MOL   H31712553  18.315  -1.472  -1.605  0.2112  0.6692 -0.5272
   39MOL   H31812554  18.604  -1.255  -1.480 -0.8171 -0.8847  2.3219
   39MOL   H31912555  18.578  -1.412  -1.544  1.1541  0.5432 -0.4042
   39MOL   H32012556  18.452  -1.128  -1.381 -0.4411 -0.4989 -0.2263
   39MOL   H32112557  18.231  -1.103  -1.270 -1.5364  0.9742 -0.1074
   39MOL   H32212558  18.540  -1.272  -1.645  1.0942  2.6360  0.9166
   40MOL     C112559   7.803   5.374   2.352  0.2110  0.0385 -0.1800
   40MOL     C212560   7.947   5.354   2.316  0.0874 -0.0815 -0.3908
   40MOL     C312561   8.047   5.457   2.318 -0.3052 -0.2485  0.0410
   40MOL     C412562   8.177   5.437   2.280  0.2707 -0.0764 -0.4012
   40MOL     C512563   8.213   5.314   2.227  0.6870 -0.3263 -0.4036
   40MOL     C612564   8.356   5.296   2.173 -0.6334  0.0180  0.2247
   40MOL     C712565   8.127   5.206   2.224  0.5346 -0.0951 -0.0415
   40MOL     C812566   7.992   5.230   2.263  0.1750 -0.3801  0.6449
   40MOL     H912567   7.763   5.439   2.274  1.3006  1.4565  0.4337
   40MOL    H1012568   7.760   5.273   2.346  1.9396 -0.7885  0.9970
   40MOL    H1112569   8.022   5.550   2.366 -1.1049 -0.7003  0.5162
   40MOL    H1212570   8.248   5.519   2.280 -0.3666  0.5748  2.9276
   40MOL    H1312571   8.339   5.245   2.078  1.5573  0.1425 -0.2680
   40MOL    H1412572   8.409   5.390   2.157  0.0037 -0.7874 -2.6928
   40MOL    H1512573   8.154   5.111   2.180  2.0587  1.1224 -1.7958
   40MOL    H1612574   7.916   5.158   2.238 -0.2871  0.6403 -0.9394
   40MOL    H1712575   7.790   5.416   2.451 -0.3287  0.9072 -0.6143
   40MOL    C1812576   8.459   5.225   2.268  0.1589  0.0982  0.0811
   40MOL    C1912577   8.600   5.208   2.207 -0.5121 -0.1018 -0.1476
   40MOL    C2012578   8.703   5.201   2.298 -0.3248 -0.1666  1.0339
   40MOL    C2112579   8.839   5.189   2.259  0.4656  0.3643  0.1856
   40MOL    C2212580   8.870   5.161   2.120  0.5084 -0.5011  1.0057
   40MOL    C2312581   9.012   5.131   2.074  0.1885  0.1424  0.3312
   40MOL    C2412582   8.761   5.157   2.028 -0.3963  0.4632 -0.9538
   40MOL    C2512583   8.624   5.187   2.070 -0.7497 -0.5301  0.3446
   40MOL    H2612584   8.475   5.278   2.361 -0.2846  1.4784 -0.6087
   40MOL    H2712585   8.421   5.126   2.291 -0.4929  0.4460  0.5174
   40MOL    H2812586   8.683   5.206   2.404  0.7191 -0.1904  1.2340
   40MOL    H2912587   8.908   5.191   2.342 -1.6612  0.6372  1.9948
   40MOL    H3012588   9.069   5.128   2.167 -2.4343 -2.0040  1.9433
   40MOL    H3112589   9.038   5.216   2.010 -2.1208  1.1264  0.6415
   40MOL    H3212590   8.789   5.132   1.926 -0.0972 -0.6915 -0.5940
   40MOL    H3312591   8.543   5.172   2.001 -0.1719 -2.9395  0.1560
   40MOL    C3412592   9.039   4.997   2.003 -0.1516  0.7070 -0.2598
   40MOL    C3512593   9.185   4.970   1.976 -0.4910 -0.3859 -0.8358
   40MOL    C3612594   9.249   4.848   2.012 -0.5067 -0.2355  0.0937
   40MOL    C3712595   9.384   4.825   1.983 -0.4228  0.2668  0.0054
   40MOL    C3812596   9.457   4.930   1.928  0.0946 -0.0747 -0.0300
   40MOL    C3912597   9.609   4.911   1.915 -0.3927  0.1725  0.5869
   40MOL    C4012598   9.392   5.051   1.897  0.4472  0.3572  0.6363
   40MOL    C4112599   9.256   5.068   1.907  0.0710 -0.0788 -0.5035
   40MOL    H4212600   9.009   5.000   1.898 -1.2784 -0.5350  0.0148
   40MOL    H4312601   8.983   4.916   2.049 -1.6794  1.2786 -1.0647
   40MOL    H4412602   9.188   4.779   2.069 -0.6436  0.3048  0.6013
   40MOL    H4512603   9.431   4.736   2.023  2.5589  0.2226 -3.3488
   40MOL    H4612604   9.654   5.002   1.876  0.5784 -0.5266  0.0639
   40MOL    H4712605   9.637   4.898   2.020  1.4289  2.3049  0.4155
   40MOL    H4812606   9.449   5.136   1.862  0.6238 -0.1416 -0.3040
   40MOL    H4912607   9.209   5.160   1.872 -0.6436 -0.4955 -0.6559
   40MOL    C5012608   9.644   4.789   1.829  0.5425 -0.1470  0.0850
   40MOL    C5112609   9.796   4.772   1.824  0.2409 -0.0478  0.1236
   40MOL    C5212610   9.869   4.695   1.912 -0.2408  0.2812 -0.3014
   40MOL    C5312611  10.005   4.674   1.888 -0.4609 -0.3879 -1.3540
   40MOL    C5412612  10.076   4.738   1.785 -0.0985  0.0756 -0.0586
   40MOL    C5512613  10.229   4.718   1.772  0.4955  0.5465 -0.0881
   40MOL    C5612614  10.008   4.832   1.705 -0.0661  0.4884 -0.1415
   40MOL    C5712615   9.865   4.848   1.724  0.2384 -1.0280  0.4055
   40MOL    H5812616   9.605   4.800   1.727  0.4977 -0.8904  0.0194
   40MOL    H5912617   9.592   4.701   1.866 -0.3858  1.2362  2.1300
   40MOL    H6012618   9.836   4.635   1.995  0.2610 -1.9459 -1.6736
   40MOL    H6112619  10.043   4.607   1.964  0.8504  0.6165 -1.1010
   40MOL    H6212620  10.257   4.650   1.852  0.3301  1.9406  1.1810
   40MOL    H6312621  10.249   4.668   1.677  1.8082  3.0368 -1.2018
   40MOL    H6412622  10.052   4.872   1.615  0.6230  1.3209  0.5455
   40MOL    H6512623   9.811   4.910   1.655 -0.2756 -1.4458  0.4297
   40MOL    C6612624  10.313   4.854   1.782  0.1215  0.2591 -0.5270
   40MOL    C6712625  10.469   4.823   1.785  0.4938  0.0963  1.0418
   40MOL    C6812626  10.545   4.876   1.682  0.0589 -0.2689  0.6066
   40MOL    C6912627  10.687   4.859   1.673 -0.8248  0.3554 -0.3810
   40MOL    C7012628  10.751   4.791   1.786 -0.4079  0.0223 -0.2494
   40MOL    C7112629  10.903   4.772   1.788  0.3047 -0.3663  0.1648
   40MOL    C7212630  10.672   4.743   1.891  0.1344  0.1168  0.5497
   40MOL    C7312631  10.526   4.756   1.891  0.6574 -0.2557  0.4787
   40MOL    H7412632  10.293   4.916   1.869 -1.9340 -1.4675  0.2794
   40MOL    H7512633  10.285   4.907   1.691  2.6627  2.1003 -0.2999
   40MOL    H7612634  10.507   4.937   1.601  1.0103  1.2110  1.2583
   40MOL    H7712635  10.743   4.882   1.583  1.6978  0.6855  1.2074
   40MOL    H7812636  10.927   4.794   1.891  2.0255 -0.2585 -0.2498
   40MOL    H7912637  10.961   4.841   1.727  2.3417 -1.3775  0.9290
   40MOL    H8012638  10.720   4.696   1.975  1.3516  1.7414  0.7859
   40MOL    H8112639  10.472   4.726   1.980 -2.2571  1.5608 -0.6129
   40MOL    C8212640  10.951   4.632   1.748 -0.9560  0.0886  0.1623
   40MOL    C8312641  11.095   4.599   1.768 -0.4602  0.5809  0.4471
   40MOL    C8412642  11.183   4.573   1.665  0.1055 -0.5189  0.2480
   40MOL    C8512643  11.316   4.551   1.689 -0.2505  0.5361 -0.5337
   40MOL    C8612644  11.355   4.523   1.826 -0.1516  0.7707  0.1417
   40MOL    C8712645  11.494   4.482   1.870 -0.4962 -0.4724  0.0267
   40MOL    C8812646  11.264   4.538   1.934 -0.4656  0.1034  0.9879
   40MOL    C8912647  11.134   4.577   1.905 -0.0815  0.3615  0.0082
   40MOL    H9012648  10.930   4.612   1.643  2.9295 -0.2620 -0.6409
   40MOL    H9112649  10.883   4.566   1.802 -2.0554  1.4816  0.5163
   40MOL    H9212650  11.153   4.579   1.562  0.3514  4.0285  0.3527
   40MOL    H9312651  11.385   4.537   1.608 -0.3222 -2.1005 -0.1951
   40MOL    H9412652  11.518   4.526   1.967  0.7474  0.9842 -0.9046
   40MOL    H9512653  11.564   4.528   1.799 -0.3264 -0.6306  0.0908
   40MOL    H9612654  11.283   4.520   2.038  1.8855 -2.0226  0.2424
   40MOL    H9712655  11.058   4.578   1.983  1.3023  1.7461  1.3822
   40MOL    C9812656  11.511   4.325   1.863  0.0048  0.5176  0.6371
   40MOL    C9912657  11.653   4.282   1.889 -0.0072 -0.5324  0.6196
   40MOL   C10012658  11.733   4.244   1.778 -0.2478  0.4778 -0.9322
   40MOL   C10112659  11.869   4.205   1.805 -0.7743  0.0930 -0.0803
   40MOL   C10212660  11.919   4.212   1.932  0.1432 -0.2137  0.4376
   40MOL   C10312661  12.067   4.185   1.950  0.4631 -0.3001  0.0415
   40MOL   C10412662  11.836   4.245   2.032  0.1459  0.7810 -0.1816
   40MOL   C10512663  11.706   4.284   2.016 -0.1885 -0.1924  0.2760
   40MOL   H10612664  11.490   4.288   1.763 -0.7130  0.9694  0.6173
   40MOL   H10712665  11.433   4.275   1.922 -1.1927  1.2547 -0.2986
   40MOL   H10812666  11.680   4.238   1.684 -0.7693 -1.0819 -0.5530
   40MOL   H10912667  11.939   4.179   1.727 -0.3885  0.4415  0.1473
   40MOL   H11012668  12.134   4.240   1.885  0.2327 -0.9322 -0.7292
   40MOL   H11112669  12.111   4.214   2.046  0.9434  2.2631 -0.9397
   40MOL   H11212670  11.880   4.266   2.129  1.3483  1.0812 -0.7799
   40MOL   H11312671  11.646   4.313   2.101 -1.8377 -0.9764 -0.6051
   40MOL   C11412672  12.090   4.027   1.941  0.3449  0.1963  0.0125
   40MOL   C11512673  12.231   3.983   1.974 -0.5066  0.5664 -0.2365
   40MOL   C11612674  12.292   3.898   1.882 -0.2446 -0.0459 -0.3514
   40MOL   C11712675  12.418   3.846   1.911 -0.2585  0.3933 -0.3944
   40MOL   C11812676  12.488   3.868   2.037  0.0880 -0.6544  0.2086
   40MOL   C11912677  12.612   3.788   2.076 -0.0911  0.5078  0.4230
   40MOL   C12012678  12.425   3.961   2.126  0.4418  0.1590  1.0165
   40MOL   C12112679  12.297   4.017   2.097 -0.2528  0.6888  0.3795
   40MOL   H12212680  12.059   3.994   1.843 -0.5937  0.2023  0.3021
   40MOL   H12312681  12.021   3.973   2.006  1.1594 -1.4624 -0.4740
   40MOL   H12412682  12.239   3.877   1.790 -1.0359  0.8495 -0.1128
   40MOL   H12512683  12.465   3.782   1.837 -0.5793  1.4691 -1.5490
   40MOL   H12612684  12.604   3.738   2.172  1.3285 -3.7237 -1.5483
   40MOL   H12712685  12.609   3.703   2.009  1.1058  1.3390 -0.7138
   40MOL   H12812686  12.471   3.976   2.222 -0.2432  0.9477  1.2315
   40MOL   H12912687  12.240   4.079   2.165 -2.0037  0.5805 -0.9586
   40MOL   C13012688  12.733   3.882   2.075 -0.1191 -0.1587  0.1299
   40MOL   C13112689  12.857   3.803   2.115  0.0171 -0.3544  0.1162
   40MOL   C13212690  12.877   3.741   2.240 -0.0331 -0.2421  0.3798
   40MOL   C13312691  12.991   3.670   2.273 -0.0010  0.0832 -0.5758
   40MOL   C13412692  13.099   3.666   2.183 -0.4018 -0.6375  0.1152
   40MOL   C13512693  13.235   3.597   2.211 -0.3317  0.6003 -0.3985
   40MOL   C13612694  13.078   3.713   2.054 -0.2080 -0.5321 -0.1096
   40MOL   C13712695  12.961   3.780   2.019  0.2295 -0.2605 -0.1665
   40MOL   H13812696  12.727   3.969   2.140  2.4962  0.2378 -0.1235
   40MOL   H13912697  12.750   3.942   1.985 -0.5406  1.6446  1.2376
   40MOL   H14012698  12.792   3.741   2.306 -0.1841 -2.0494  0.1979
   40MOL   H14112699  12.999   3.632   2.373  0.0793 -0.4881 -0.7970
   40MOL   H14212700  13.309   3.637   2.141 -0.4243 -0.6419 -1.2286
   40MOL   H14312701  13.274   3.603   2.312  0.5354 -0.0570 -0.6830
   40MOL   H14412702  13.147   3.706   1.971 -2.6054 -2.0965 -2.0574
   40MOL   H14512703  12.949   3.821   1.920 -2.7129  2.4571  1.2125
   40MOL   C14612704  13.237   3.452   2.182 -0.3944  0.6910 -0.2472
   40MOL   C14712705  13.385   3.398   2.182  0.2897 -0.4482  0.0218
   40MOL   C14812706  13.461   3.376   2.065 -0.0859  0.6172  0.3191
   40MOL   C14912707  13.595   3.322   2.071 -0.1496  0.1225 -0.2033
   40MOL   C15012708  13.647   3.276   2.190  0.7035  0.4940  0.7850
   40MOL   C15112709  13.791   3.239   2.204  0.2015  0.6963 -0.4508
   40MOL   C15212710  13.570   3.298   2.307 -1.2962 -0.0031 -0.4348
   40MOL   C15312711  13.446   3.366   2.308  0.3343  0.3758  0.1005
   40MOL   H15412712  13.182   3.425   2.092 -0.8910 -0.5222  0.4065
   40MOL   H15512713  13.189   3.389   2.257  3.2759 -1.8264  0.1687
   40MOL   H15612714  13.420   3.396   1.967  0.0459 -3.8346 -0.7940
   40MOL   H15712715  13.646   3.317   1.976 -0.5750 -0.4135 -0.4059
   40MOL   H15812716  13.862   3.298   2.146 -1.3976  2.3369 -0.7977
   40MOL   H15912717  13.820   3.272   2.303  0.3792 -1.8993  0.3834
   40MOL   H16012718  13.602   3.261   2.403 -0.9897  2.0757  0.2969
   40MOL   H16112719  13.391   3.380   2.399 -2.2569 -0.4688 -1.2883
   40MOL   C16212720  13.812   3.086   2.185 -0.6558 -0.8755  0.4999
   40MOL   C16312721  13.945   3.043   2.244 -0.2284  0.1057  0.2219
   40MOL   C16412722  13.974   3.052   2.381  0.6801 -0.6006 -0.6842
   40MOL   C16512723  14.098   3.013   2.438  0.2396  0.4366  0.5808
   40MOL   C16612724  14.203   2.975   2.352  0.4668 -0.3479  0.2600
   40MOL   C16712725  14.341   2.958   2.410 -0.1871 -0.3714  0.7828
   40MOL   C16812726  14.183   2.971   2.215 -1.0401 -0.4294 -0.1591
   40MOL   C16912727  14.049   2.990   2.164  0.3448 -0.7090  0.1749
   40MOL   H17012728  13.805   3.073   2.077  2.8532  1.0041 -0.0115
   40MOL   H17112729  13.734   3.028   2.236 -1.1879 -0.5796  0.0286
   40MOL   H17212730  13.915   3.109   2.451  0.5806 -0.5142 -0.8360
   40MOL   H17312731  14.114   3.016   2.544  0.4967  0.1334  0.5504
   40MOL   H17412732  14.416   2.991   2.338  0.1935  1.8442  2.1247
   40MOL   H17512733  14.356   3.015   2.502  1.9005  2.5752 -1.2849
   40MOL   H17612734  14.268   2.939   2.155  0.3406 -1.5015  2.2898
   40MOL   H17712735  14.039   2.993   2.057 -0.4410 -1.0584  0.2340
   40MOL   C17812736  14.346   2.809   2.441  0.3209  0.3931  0.6716
   40MOL   C17912737  14.490   2.773   2.443  0.0220 -0.2647 -0.4996
   40MOL   C18012738  14.562   2.739   2.326  0.0660 -0.8716 -0.8182
   40MOL   C18112739  14.694   2.695   2.336  0.5733 -0.8159  0.0887
   40MOL   C18212740  14.754   2.689   2.456 -0.6083 -0.0500 -0.2306
   40MOL   C18312741  14.896   2.658   2.468  0.3341 -0.1953 -0.3379
   40MOL   C18412742  14.684   2.722   2.575 -0.4531  0.1647  0.1656
   40MOL   C18512743  14.553   2.768   2.567 -0.6369 -0.4226  0.4483
   40MOL   H18612744  14.309   2.751   2.356 -0.2809 -0.5639  1.5749
   40MOL   H18712745  14.299   2.766   2.530  0.1739 -0.7969  0.0251
   40MOL   H18812746  14.513   2.740   2.230  1.0965  0.4290 -1.3501
   40MOL   H18912747  14.748   2.663   2.247 -0.5000 -1.0497 -0.4839
   40MOL   H19012748  14.939   2.729   2.398  0.4384  1.6209  1.5352
   40MOL   H19112749  14.941   2.692   2.561 -0.1810 -1.6218  0.4527
   40MOL   H19212750  14.744   2.730   2.665  1.1045  1.9974 -0.9770
   40MOL   H19312751  14.503   2.795   2.659 -1.5387  0.1682 -0.2039
   40MOL   C19412752  14.933   2.519   2.425 -0.1821 -0.2576 -0.3365
   40MOL   C19512753  15.083   2.520   2.390  0.0422 -1.3067  0.3804
   40MOL   C19612754  15.182   2.555   2.494  0.0803 -0.6461  0.8521
   40MOL   C19712755  15.317   2.557   2.454 -0.2454 -0.3794 -0.1785
   40MOL   C19812756  15.357   2.523   2.321  0.4442  0.1519 -0.9982
   40MOL   C19912757  15.503   2.517   2.298  0.0515  0.4565  0.2562
   40MOL   C20012758  15.260   2.502   2.214  0.3156  0.3309 -0.3697
   40MOL   C20112759  15.124   2.497   2.255  0.8711 -0.1536  0.1168
   40MOL   H20212760  14.868   2.491   2.342  0.1663 -2.8169  0.1862
   40MOL   H20312761  14.920   2.442   2.502 -0.5082  1.3714  1.2623
   40MOL   H20412762  15.155   2.573   2.597  0.7307  1.1781  0.7353
   40MOL   H20512763  15.400   2.572   2.522 -0.7226 -3.4703  1.1655
   40MOL   H20612764  15.521   2.570   2.204  0.0094  1.9390  1.0738
   40MOL   H20712765  15.566   2.579   2.362 -1.1774  1.7105  0.2545
   40MOL   H20812766  15.287   2.488   2.110  1.8803  0.5067 -0.0101
   40MOL   H20912767  15.057   2.478   2.172  0.4355  0.2275  0.3755
   40MOL   C21012768  15.548   2.367   2.312 -0.2196 -0.0938 -0.2934
   40MOL   C21112769  15.689   2.338   2.267  0.5766  0.2863 -0.0985
   40MOL   C21212770  15.712   2.312   2.127 -0.5291 -1.0023  0.4268
   40MOL   C21312771  15.845   2.305   2.084 -0.4691  0.6761  0.1820
   40MOL   C21412772  15.957   2.323   2.174 -0.1237 -0.2367 -0.1075
   40MOL   C21512773  16.103   2.322   2.127  0.6023  0.0666  0.3560
   40MOL   C21612774  15.927   2.339   2.310 -0.4627 -0.1217 -0.3303
   40MOL   C21712775  15.795   2.344   2.355  0.4547  0.2987  0.2972
   40MOL   H21812776  15.478   2.306   2.255 -1.6278  2.2393 -1.1426
   40MOL   H21912777  15.543   2.347   2.419 -0.2097  1.3355 -0.0088
   40MOL   H22012778  15.628   2.313   2.059  0.6501  0.0563 -1.0394
   40MOL   H22112779  15.866   2.289   1.979 -2.4600  1.4576 -0.3548
   40MOL   H22212780  16.124   2.387   2.042 -1.7453 -1.2562 -1.3126
   40MOL   H22312781  16.169   2.357   2.206 -1.2135  3.0275  0.6434
   40MOL   H22412782  16.013   2.341   2.376 -0.3967  1.5967 -0.4491
   40MOL   H22512783  15.776   2.377   2.456 -1.2029 -0.6312  0.3112
   40MOL   C22612784  16.150   2.183   2.092 -0.0146 -0.6727  0.1181
   40MOL   C22712785  16.295   2.187   2.052  0.0273 -0.1193 -0.1286
   40MOL   C22812786  16.324   2.210   1.915  0.4607  0.0335  0.4471
   40MOL   C22912787  16.457   2.193   1.877  0.2863 -0.3977 -0.5795
   40MOL   C23012788  16.559   2.173   1.969 -0.1582 -0.0377 -0.1692
   40MOL   C23112789  16.695   2.145   1.912 -0.3310  0.3768 -0.2040
   40MOL   C23212790  16.529   2.172   2.110 -0.5301  0.1952  0.5270
   40MOL   C23312791  16.393   2.173   2.149  0.3238 -0.5745  0.0372
   40MOL   H23412792  16.089   2.129   2.020  0.2614 -1.3160  0.3617
   40MOL   H23512793  16.130   2.114   2.174 -1.4128  0.6915  0.9324
   40MOL   H23612794  16.247   2.228   1.842 -0.0209  0.6852  1.1179
   40MOL   H23712795  16.498   2.202   1.777  1.6139 -0.8700 -0.0846
   40MOL   H23812796  16.696   2.172   1.806 -1.9331 -0.8010 -0.5308
   40MOL   H23912797  16.765   2.209   1.965  1.8516 -1.5522 -0.6418
   40MOL   H24012798  16.598   2.154   2.191 -1.5761 -0.7112  1.2474
   40MOL   H24112799  16.372   2.180   2.255  0.6556  1.5447 -0.0151
   40MOL   C24212800  16.744   1.999   1.923 -0.4485 -0.2389  0.4709
   40MOL   C24312801  16.888   1.986   1.889  0.2437 -0.3388 -0.6431
   40MOL   C24412802  16.987   1.980   1.990 -0.2809  0.2376  0.6067
   40MOL   C24512803  17.123   1.966   1.960 -0.1571  0.2242 -0.0158
   40MOL   C24612804  17.161   1.956   1.820 -0.1222  0.6320  0.2700
   40MOL   C24712805  17.297   1.942   1.781 -0.4144  0.1957  0.4538
   40MOL   C24812806  17.064   1.961   1.713  0.0722  0.2397  0.1428
   40MOL   C24912807  16.928   1.967   1.749 -0.0971 -0.3480 -0.5904
   40MOL   H25012808  16.738   1.967   2.027  0.3802 -0.6001  0.4148
   40MOL   H25112809  16.682   1.918   1.886 -1.4889  0.1555  1.3232
   40MOL   H25212810  16.954   1.995   2.092 -0.6846  2.1715  0.2112
   40MOL   H25312811  17.189   1.957   2.045 -0.1960 -0.4128 -0.0486
   40MOL   H25412812  17.318   1.972   1.678 -2.0465  1.1138  0.3763
   40MOL   H25512813  17.354   2.004   1.851  1.5352 -3.0163  1.8667
   40MOL   H25612814  17.088   1.940   1.610 -0.0855  0.1839  0.1163
   40MOL   H25712815  16.854   1.970   1.670 -1.6589 -0.6886  0.8375
   40MOL   C25812816  17.343   1.797   1.798 -0.0114 -0.8013 -0.4111
   40MOL   C25912817  17.488   1.767   1.768 -0.0838 -0.0323  0.4295
   40MOL   C26012818  17.576   1.732   1.874  0.0540 -0.0641  0.6147
   40MOL   C26112819  17.713   1.708   1.850  0.1259  0.5666  0.2312
   40MOL   C26212820  17.760   1.707   1.711 -0.2229 -0.9088 -0.4649
   40MOL   C26312821  17.906   1.689   1.674 -0.2958 -0.3046 -0.0212
   40MOL   C26412822  17.673   1.743   1.612  0.5164 -0.4499 -0.0480
   40MOL   C26512823  17.539   1.774   1.640  0.2275 -0.6400 -0.2084
   40MOL   H26612824  17.285   1.728   1.737 -0.9596 -1.1696  0.8905
   40MOL   H26712825  17.339   1.782   1.906 -0.6271  1.1736 -0.1308
   40MOL   H26812826  17.530   1.716   1.971 -1.5038 -0.1604 -0.1142
   40MOL   H26912827  17.777   1.663   1.925  0.6829  1.7603  0.4916
   40MOL   H27012828  17.932   1.740   1.581  0.7657  1.4986  1.2187
   40MOL   H27112829  17.975   1.745   1.738 -0.1896  0.8537 -1.1243
   40MOL   H27212830  17.707   1.741   1.509  1.8361 -0.5389  0.3814
   40MOL   H27312831  17.470   1.800   1.560  0.0996  0.6843  0.3156
   40MOL   C27412832  17.952   1.544   1.671 -0.6412  0.2447 -0.2489
   40MOL   C27512833  18.101   1.527   1.654  0.2531 -0.3808  0.5846
   40MOL   C27612834  18.157   1.535   1.525 -0.1171  0.1798  0.0996
   40MOL   C27712835  18.293   1.508   1.507 -0.2533  0.0768  0.1763
   40MOL   C27812836  18.378   1.466   1.611 -0.1592 -0.8273 -0.3618
   40MOL   C27912837  18.527   1.443   1.589 -0.8948 -0.5822 -0.3734
   40MOL   C28012838  18.326   1.455   1.739  0.2696  0.2999 -0.1214
   40MOL   C28112839  18.188   1.493   1.763  0.0410 -0.3804  0.3132
   40MOL   H28212840  17.919   1.507   1.768 -1.1455  0.4520 -0.3402
   40MOL   H28312841  17.894   1.486   1.599  0.5673  0.4654 -1.4176
   40MOL   H28412842  18.089   1.555   1.443 -0.0194  1.5675  0.3440
   40MOL   H28512843  18.320   1.519   1.403 -2.3825  2.1529 -0.1935
   40MOL   H28612844  18.548   1.438   1.482 -2.4565  1.9476 -0.8488
   40MOL   H28712845  18.585   1.526   1.629  0.7948 -1.3243 -1.2365
   40MOL   H28812846  18.391   1.424   1.820 -1.9657  0.0231  1.6234
   40MOL   H28912847  18.148   1.491   1.864 -1.9711  2.0207 -0.3884
   40MOL   C29012848  18.581   1.313   1.648 -1.3502  0.0578  0.1720
   40MOL   C29112849  18.725   1.295   1.627 -0.6270  0.4653  0.2727
   40MOL   C29212850  18.816   1.289   1.731  0.5452 -0.6119 -0.2236
   40MOL   C29312851  18.953   1.274   1.712 -0.6572  0.9492  0.1709
   40MOL   C29412852  18.997   1.248   1.576 -0.2204 -0.7812 -0.2476
   40MOL   C29512853  19.145   1.223   1.559  0.0665 -0.0915  0.5895
   40MOL   C29612854  18.909   1.258   1.469  0.1075 -0.6754  0.6357
   40MOL   C29712855  18.770   1.275   1.493 -0.2734 -0.6814  0.5490
   40MOL   H29812856  18.527   1.226   1.610 -1.9252  0.0006  1.1076
   40MOL   H29912857  18.564   1.315   1.755 -2.7412  2.3518 -0.0456
   40MOL   H30012858  18.778   1.309   1.830 -1.2155  0.7379 -1.1428
   40MOL   H30112859  19.016   1.276   1.799  0.8303 -0.6609 -0.8398
   40MOL   H30212860  19.171   1.244   1.455 -1.4341  1.1357  0.4455
   40MOL   H30312861  19.202   1.293   1.620  0.6716 -0.0995  0.0349
   40MOL   H30412862  18.942   1.263   1.366 -2.0225  2.4516  0.0222
   40MOL   H30512863  18.694   1.281   1.416  1.7078 -0.3106 -1.4255
   40MOL   C30612864  19.192   1.090   1.584 -0.1596  0.5086 -0.1695
   40MOL   C30712865  19.342   1.070   1.569  0.5356 -0.3003  0.3450
   40MOL   C30812866  19.391   1.035   1.442  0.1410 -0.3156 -0.1277
   40MOL   C30912867  19.527   1.008   1.432 -0.8003 -0.6108 -0.1133
   40MOL   C31012868  19.618   1.002   1.545 -0.4983  0.0016  0.0454
   40MOL   C31112869  19.758   0.963   1.525 -0.5273  0.2591 -0.2816
   40MOL   C31212870  19.571   1.034   1.677  0.0596  0.1690  0.1380
   40MOL   C31312871  19.432   1.068   1.683  0.7260 -1.4453  0.1293
   40MOL   H31412872  19.136   1.032   1.510  0.8032  1.2667 -1.5063
   40MOL   H31512873  19.162   1.065   1.685  2.2125 -2.3118 -0.0743
   40MOL   H31612874  19.334   1.042   1.351 -0.6702  1.2471  0.4736
   40MOL   H31712875  19.578   0.977   1.342 -0.0889  1.1079 -0.3182
   40MOL   H31812876  19.785   0.879   1.588 -1.1241  0.0757 -0.2661
   40MOL   H31912877  19.773   0.924   1.424  0.8254 -2.8482  1.0543
   40MOL   H32012878  19.632   1.026   1.765  5.0307  0.6212 -3.0449
   40MOL   H32112879  19.385   1.095   1.777  0.5579  2.9279 -1.0744
   40MOL   H32212880  19.833   1.038   1.552  0.0330  0.2900 -1.8752
   41MOL     C112881   1.450   6.104   0.272 -0.3893  0.3719 -0.3988
   41MOL     C212882   1.588   6.026   0.278 -1.0519  0.3716 -0.2591
   41MOL     C312883   1.695   6.076   0.352  0.5265 -0.1054  0.3465
   41MOL     C412884   1.818   6.008   0.359 -0.0084 -0.6611 -0.1240
   41MOL     C512885   1.832   5.886   0.286  0.1343  0.5240 -0.8178
   41MOL     C612886   1.959   5.801   0.299  0.5961  0.6464 -0.3706
   41MOL     C712887   1.724   5.834   0.214 -0.4739 -0.0106  0.7513
   41MOL     C812888   1.600   5.902   0.216 -0.1794 -0.5554  0.1922
   41MOL     H912889   1.464   6.194   0.211  2.3587 -0.4542 -1.0475
   41MOL    H1012890   1.379   6.027   0.242 -0.6630  0.1651  0.7490
   41MOL    H1112891   1.695   6.172   0.402 -1.6195 -0.9366  2.0133
   41MOL    H1212892   1.902   6.049   0.413  0.4416  0.9507 -1.9973
   41MOL    H1312893   2.025   5.856   0.366 -0.4268 -0.3074  1.4333
   41MOL    H1412894   1.933   5.705   0.343  0.0046  1.5396  1.2532
   41MOL    H1512895   1.741   5.743   0.159  2.7804  1.0755 -0.1839
   41MOL    H1612896   1.520   5.860   0.157 -2.3413  1.5402  1.5484
   41MOL    H1712897   1.410   6.127   0.371  0.6506  0.2192  0.0617
   41MOL    C1812898   2.023   5.797   0.158 -0.0976 -0.6183 -0.2312
   41MOL    C1912899   2.143   5.708   0.137  0.5929  0.4972  0.8530
   41MOL    C2012900   2.270   5.763   0.152 -0.0672  0.3841  0.3393
   41MOL    C2112901   2.382   5.685   0.136  0.0556 -0.6379 -0.1710
   41MOL    C2212902   2.370   5.548   0.098  0.0987 -0.1274 -0.9534
   41MOL    C2312903   2.492   5.459   0.094  0.4146  0.2994  0.0694
   41MOL    C2412904   2.244   5.493   0.078  0.4308  1.2689  0.0847
   41MOL    C2512905   2.131   5.573   0.093 -0.7206  0.3985 -0.2193
   41MOL    H2612906   1.951   5.760   0.085 -1.6709 -2.5739  2.2395
   41MOL    H2712907   2.055   5.896   0.125  0.0873 -0.6709 -0.2077
   41MOL    H2812908   2.281   5.863   0.192  2.5032  0.4199 -0.3910
   41MOL    H2912909   2.485   5.713   0.152  0.1142  0.1232 -1.7445
   41MOL    H3012910   2.456   5.357   0.106  0.5527  0.0650 -1.4266
   41MOL    H3112911   2.539   5.479   0.190  1.1901  1.7192 -0.5898
   41MOL    H3212912   2.232   5.387   0.061  0.4090  0.8866  2.2745
   41MOL    H3312913   2.031   5.532   0.090 -0.2010 -1.0166  1.0944
   41MOL    C3412914   2.584   5.475  -0.029  0.5526 -0.1412 -0.1940
   41MOL    C3512915   2.717   5.406  -0.017 -0.3329 -0.3517  0.0834
   41MOL    C3612916   2.836   5.476  -0.004  0.3145 -0.1817  0.1089
   41MOL    C3712917   2.961   5.406   0.007  0.9484 -0.2321  0.6368
   41MOL    C3812918   2.958   5.263  -0.011  0.3132 -0.3724  0.4011
   41MOL    C3912919   3.088   5.183  -0.028 -0.0756  0.2781  0.3948
   41MOL    C4012920   2.831   5.199  -0.025 -1.0189 -0.0757  0.1035
   41MOL    C4112921   2.712   5.267  -0.028 -0.1599  0.4094 -0.1074
   41MOL    H4212922   2.603   5.582  -0.032 -0.4467  0.0997  1.4649
   41MOL    H4312923   2.522   5.447  -0.114  1.8894 -1.9208 -0.6258
   41MOL    H4412924   2.842   5.584  -0.012 -1.7729 -0.0697 -0.4186
   41MOL    H4512925   3.052   5.463   0.013 -0.1914  1.6911 -0.1330
   41MOL    H4612926   3.177   5.238   0.000  1.1969 -0.5862 -1.8508
   41MOL    H4712927   3.088   5.100   0.043 -0.7268  0.8667  1.0886
   41MOL    H4812928   2.830   5.092  -0.037 -0.9664  0.2263 -3.0230
   41MOL    H4912929   2.624   5.207  -0.044 -2.1003  3.2588 -0.4993
   41MOL    C5012930   3.103   5.124  -0.173  0.0867  0.1814  0.0519
   41MOL    C5112931   3.247   5.070  -0.198  0.9336 -0.0788 -0.3738
   41MOL    C5212932   3.326   5.110  -0.304 -0.2945  0.1543  0.2212
   41MOL    C5312933   3.453   5.052  -0.322  0.2140 -0.0344  0.5750
   41MOL    C5412934   3.498   4.945  -0.238  0.0573  0.2862 -0.4710
   41MOL    C5512935   3.632   4.878  -0.259 -0.3402 -0.1534  0.1811
   41MOL    C5612936   3.413   4.900  -0.137 -0.3624 -0.2574  0.3522
   41MOL    C5712937   3.292   4.966  -0.115  0.3558  0.2065  0.1911
   41MOL    H5812938   3.090   5.204  -0.247 -0.0833 -0.9867 -1.1953
   41MOL    H5912939   3.031   5.046  -0.197  0.0437  0.1673  0.2287
   41MOL    H6012940   3.296   5.183  -0.378 -0.6747 -0.9948 -0.7831
   41MOL    H6112941   3.524   5.090  -0.394 -0.7231 -1.3164 -1.0521
   41MOL    H6212942   3.702   4.958  -0.234  0.3173 -0.0581 -1.8931
   41MOL    H6312943   3.637   4.803  -0.179 -1.6375 -1.5029 -0.9884
   41MOL    H6412944   3.443   4.818  -0.072  0.8995 -0.5354 -0.5562
   41MOL    H6512945   3.236   4.945  -0.025 -0.8639  0.5144 -0.4778
   41MOL    C6612946   3.654   4.831  -0.408 -0.5287 -0.5739 -0.1000
   41MOL    C6712947   3.780   4.755  -0.441  0.2590  1.0989 -0.1478
   41MOL    C6812948   3.814   4.639  -0.366 -0.8790  0.2493 -0.6066
   41MOL    C6912949   3.929   4.572  -0.404 -0.2624 -0.2532  0.1856
   41MOL    C7012950   4.004   4.606  -0.520 -0.2346 -0.1286 -0.2965
   41MOL    C7112951   4.119   4.528  -0.577 -0.6800  0.4350  0.1775
   41MOL    C7212952   3.974   4.728  -0.587 -0.1270 -0.3197 -0.1567
   41MOL    C7312953   3.865   4.802  -0.540  0.4151  0.4220  0.3118
   41MOL    H7412954   3.653   4.907  -0.486 -1.5646 -0.1936  0.2711
   41MOL    H7512955   3.564   4.772  -0.427  0.1124 -2.9271  3.6328
   41MOL    H7612956   3.769   4.617  -0.270 -0.7274 -0.2769 -0.6587
   41MOL    H7712957   3.965   4.486  -0.348  2.3254  0.6371 -0.0238
   41MOL    H7812958   4.143   4.575  -0.672  0.5731 -1.7230 -0.5950
   41MOL    H7912959   4.087   4.425  -0.590 -0.7456 -0.0896  3.8946
   41MOL    H8012960   4.028   4.754  -0.677  1.0459 -2.9942 -0.2850
   41MOL    H8112961   3.844   4.891  -0.598 -0.1642  0.0772 -0.0175
   41MOL    C8212962   4.238   4.526  -0.480  0.1121 -0.4197  0.5247
   41MOL    C8312963   4.360   4.442  -0.525 -0.4041 -0.2577  0.7337
   41MOL    C8412964   4.431   4.482  -0.645 -0.3511 -0.0271 -0.2219
   41MOL    C8512965   4.534   4.395  -0.690  0.2325  0.3211 -0.3123
   41MOL    C8612966   4.556   4.269  -0.636  0.3714 -0.7962  0.1377
   41MOL    C8712967   4.677   4.192  -0.685  0.0920  0.0006  0.3371
   41MOL    C8812968   4.475   4.226  -0.529 -0.1221 -0.4507  0.0983
   41MOL    C8912969   4.377   4.312  -0.477  0.0669  0.3716 -0.3386
   41MOL    H9012970   4.204   4.480  -0.386  1.7411  0.3524  1.5176
   41MOL    H9112971   4.273   4.626  -0.453  2.0192 -1.4857  2.1822
   41MOL    H9212972   4.417   4.586  -0.668 -2.1423  0.7469  3.9012
   41MOL    H9312973   4.599   4.427  -0.770  2.4778  0.7399  1.6512
   41MOL    H9412974   4.683   4.209  -0.793 -1.1654  1.6912  0.5168
   41MOL    H9512975   4.661   4.086  -0.668 -1.3724  0.1486 -0.0325
   41MOL    H9612976   4.499   4.130  -0.486  1.1316 -0.1567  0.0881
   41MOL    H9712977   4.322   4.277  -0.390  1.1929 -2.0097 -0.5436
   41MOL    C9812978   4.814   4.242  -0.624  0.4533 -0.0551 -0.1749
   41MOL    C9912979   4.941   4.178  -0.664  0.1142 -0.5195  0.8138
   41MOL   C10012980   4.958   4.141  -0.800 -0.0179  1.0877  0.3047
   41MOL   C10112981   5.067   4.062  -0.841 -0.0307  0.5078  0.0809
   41MOL   C10212982   5.179   4.050  -0.755 -0.4833  0.0924 -0.1864
   41MOL   C10312983   5.303   3.969  -0.796 -0.2812 -0.0092 -0.1338
   41MOL   C10412984   5.164   4.093  -0.626 -0.4658 -0.4392 -0.0304
   41MOL   C10512985   5.053   4.164  -0.583  0.3332  1.1223 -0.3233
   41MOL   H10612986   4.797   4.219  -0.519  2.2234  0.6904  0.2849
   41MOL   H10712987   4.816   4.350  -0.631  1.4490  0.2189  3.6527
   41MOL   H10812988   4.871   4.157  -0.863  0.4852 -0.5391 -0.8483
   41MOL   H10912989   5.087   4.011  -0.935  0.0667  0.6763  0.0106
   41MOL   H11012990   5.344   3.934  -0.701 -1.0874 -0.3255  0.1009
   41MOL   H11112991   5.282   3.882  -0.858  1.7000  0.2733 -1.2401
   41MOL   H11212992   5.246   4.065  -0.561 -0.0490 -0.9536 -0.7758
   41MOL   H11312993   5.046   4.199  -0.481  0.4301 -0.8950  0.4081
   41MOL   C11412994   5.401   4.049  -0.881 -0.2718  0.9573 -0.0902
   41MOL   C11512995   5.526   3.971  -0.908 -0.1882 -0.3962 -0.0527
   41MOL   C11612996   5.613   3.935  -0.806 -1.1218  0.3417  0.1606
   41MOL   C11712997   5.729   3.867  -0.845  0.6998  0.0949  0.8896
   41MOL   C11812998   5.774   3.849  -0.978  0.3159 -0.4035 -0.3221
   41MOL   C11912999   5.915   3.791  -1.005 -0.0279 -0.3758 -0.1822
   41MOL   C12013000   5.680   3.883  -1.079  0.7389 -0.2111  0.4532
   41MOL   C12113001   5.561   3.956  -1.044  0.0965 -0.2918  0.5838
   41MOL   H12213002   5.430   4.135  -0.820  0.7880  0.2923  0.3565
   41MOL   H12313003   5.350   4.082  -0.972 -1.8886 -1.9941 -0.3268
   41MOL   H12413004   5.605   3.960  -0.701  5.4688  4.0823  0.0175
   41MOL   H12513005   5.795   3.840  -0.764  1.2779  0.1548  0.4406
   41MOL   H12613006   5.972   3.801  -0.912  1.0157  1.4776 -1.0111
   41MOL   H12713007   5.925   3.684  -1.024  2.7192  0.3043 -2.8876
   41MOL   H12813008   5.705   3.867  -1.182 -0.7912 -0.6288  0.1346
   41MOL   H12913009   5.506   4.000  -1.126  1.8381  0.9859  0.0713
   41MOL   C13013010   5.983   3.860  -1.124 -0.3478 -0.1265  0.0094
   41MOL   C13113011   6.117   3.793  -1.158 -0.6058  0.2904  0.5852
   41MOL   C13213012   6.226   3.797  -1.065 -0.2435  0.4975  0.0166
   41MOL   C13313013   6.349   3.738  -1.100 -0.1008 -0.7717  0.5067
   41MOL   C13413014   6.368   3.676  -1.224 -0.5475 -0.4811  0.8594
   41MOL   C13513015   6.500   3.607  -1.262 -0.5217 -0.6706  0.2694
   41MOL   C13613016   6.256   3.660  -1.303  0.0963  0.8031 -0.0882
   41MOL   C13713017   6.134   3.722  -1.276  1.0187 -0.0324  0.5865
   41MOL   H13813018   5.983   3.964  -1.095  0.3135 -0.0648 -0.1902
   41MOL   H13913019   5.914   3.858  -1.208  1.5634  1.6703 -1.6614
   41MOL   H14013020   6.213   3.840  -0.967 -0.7116  0.4969 -0.0441
   41MOL   H14113021   6.436   3.745  -1.036  0.0350  0.8248  0.1644
   41MOL   H14213022   6.540   3.548  -1.179  2.4604  0.3786 -0.3601
   41MOL   H14313023   6.481   3.544  -1.349  0.0760  1.8001 -1.7298
   41MOL   H14413024   6.271   3.609  -1.396 -1.6663 -0.0339  0.0686
   41MOL   H14513025   6.058   3.712  -1.352  1.9104  1.5380 -0.5505
   41MOL   C14613026   6.610   3.704  -1.302 -0.0936  0.2121  0.4520
   41MOL   C14713027   6.747   3.632  -1.326 -0.7731  0.1927  0.4402
   41MOL   C14813028   6.778   3.570  -1.450  0.1690 -0.2070  0.2792
   41MOL   C14913029   6.906   3.509  -1.469 -0.3718  0.3094 -0.5207
   41MOL   C15013030   6.998   3.508  -1.361  0.6686 -0.3741  0.4109
   41MOL   C15113031   7.131   3.440  -1.378  0.4835  0.1592  0.6433
   41MOL   C15213032   6.961   3.571  -1.242 -0.4105 -0.2891  0.6581
   41MOL   C15313033   6.840   3.626  -1.222  1.0244  0.4505  0.4270
   41MOL   H15413034   6.625   3.780  -1.225 -1.6443 -0.4090  1.3980
   41MOL   H15513035   6.579   3.752  -1.394 -2.2694 -2.0137 -0.0228
   41MOL   H15613036   6.702   3.589  -1.525  0.2427  1.0643  0.5142
   41MOL   H15713037   6.928   3.460  -1.563  0.9125 -1.1623  0.5176
   41MOL   H15813038   7.179   3.434  -1.280  0.1854 -2.0637  0.6792
   41MOL   H15913039   7.127   3.335  -1.405  1.5626 -0.2258  1.9249
   41MOL   H16013040   7.022   3.577  -1.153 -0.3574 -1.7947  0.7398
   41MOL   H16113041   6.815   3.665  -1.124 -3.4204 -0.2199 -0.3252
   41MOL   C16213042   7.233   3.523  -1.465 -0.5883 -0.3754  0.0078
   41MOL   C16313043   7.373   3.480  -1.473 -0.1272 -0.2112 -1.3252
   41MOL   C16413044   7.467   3.489  -1.365  0.7549 -0.4604  0.2341
   41MOL   C16513045   7.591   3.433  -1.383 -0.2938 -0.5713 -0.6958
   41MOL   C16613046   7.639   3.382  -1.501  0.0928 -0.5291  0.1910
   41MOL   C16713047   7.774   3.313  -1.510  0.4582 -0.1829  0.1228
   41MOL   C16813048   7.550   3.380  -1.611  0.2672 -0.5335  1.1386
   41MOL   C16913049   7.421   3.431  -1.594 -0.0252 -0.1277  0.1954
   41MOL   H17013050   7.245   3.630  -1.447 -0.9855  0.0468 -2.0628
   41MOL   H17113051   7.185   3.536  -1.563 -3.2337  1.7890  1.5105
   41MOL   H17213052   7.440   3.526  -1.267  1.5939 -0.3662  0.4325
   41MOL   H17313053   7.656   3.443  -1.297  2.6452 -3.0228 -2.5064
   41MOL   H17413054   7.815   3.319  -1.410 -0.3347 -1.0590  0.5040
   41MOL   H17513055   7.747   3.213  -1.544 -0.0339 -0.7466  2.1290
   41MOL   H17613056   7.585   3.341  -1.705 -1.6111 -1.0043  0.6150
   41MOL   H17713057   7.356   3.430  -1.680 -0.7670  0.3301  0.7344
   41MOL   C17813058   7.864   3.376  -1.616  0.1747  0.0251  0.1515
   41MOL   C17913059   7.998   3.306  -1.640 -0.3206  0.3561 -0.5199
   41MOL   C18013060   8.089   3.312  -1.539  0.0860  0.3341  0.3743
   41MOL   C18113061   8.214   3.244  -1.548 -0.1079  0.3235 -0.6593
   41MOL   C18213062   8.252   3.178  -1.663  0.6821  0.1898 -0.0195
   41MOL   C18313063   8.378   3.099  -1.671 -0.1582  0.7010  0.0903
   41MOL   C18413064   8.159   3.187  -1.776  0.7055  0.1810  0.2763
   41MOL   C18513065   8.027   3.237  -1.760 -0.9892  0.5477  0.1980
   41MOL   H18613066   7.879   3.481  -1.594 -1.3198 -0.2547  2.6849
   41MOL   H18713067   7.810   3.386  -1.711 -3.0242 -1.6614  1.6902
   41MOL   H18813068   8.058   3.362  -1.448 -0.0669 -0.0605  0.5419
   41MOL   H18913069   8.286   3.248  -1.468 -0.6378 -0.4754 -0.1404
   41MOL   H19013070   8.392   3.042  -1.580  2.2573 -0.3358 -0.8633
   41MOL   H19113071   8.363   3.024  -1.748 -2.3497  1.1255  0.0710
   41MOL   H19213072   8.185   3.139  -1.869 -0.3408  0.7773 -0.3378
   41MOL   H19313073   7.958   3.226  -1.842 -1.4367 -2.6344  0.9545
   41MOL   C19413074   8.496   3.193  -1.719 -0.1461  0.3530 -0.0675
   41MOL   C19513075   8.631   3.128  -1.733 -0.3416 -0.6166 -0.3316
   41MOL   C19613076   8.661   3.048  -1.843 -0.4197 -0.4844  0.0483
   41MOL   C19713077   8.790   2.995  -1.851  0.1306  0.3347  0.0860
   41MOL   C19813078   8.885   3.020  -1.750 -0.1478  0.1889 -0.1778
   41MOL   C19913079   9.018   2.946  -1.762  0.1750 -0.0836  0.3427
   41MOL   C20013080   8.859   3.102  -1.641  0.0355 -0.2319 -0.1979
   41MOL   C20113081   8.730   3.154  -1.637 -0.4497 -0.5296  0.0288
   41MOL   H20213082   8.498   3.282  -1.657 -0.5252  0.8016 -0.6963
   41MOL   H20313083   8.465   3.230  -1.817  0.2628  1.1687  0.1103
   41MOL   H20413084   8.587   3.024  -1.917  1.0653 -0.2041 -1.5396
   41MOL   H20513085   8.811   2.934  -1.937  0.4400 -3.1010  2.5079
   41MOL   H20613086   9.062   2.936  -1.663  2.4985  2.3017 -0.3829
   41MOL   H20713087   9.022   2.843  -1.798  0.2442 -0.3144  1.0185
   41MOL   H20813088   8.936   3.125  -1.569 -0.0615  1.1478 -0.5393
   41MOL   H20913089   8.702   3.227  -1.562 -0.6420  1.2465 -1.7147
   41MOL   C21013090   9.113   3.015  -1.851 -0.3073 -0.0562  0.2087
   41MOL   C21113091   9.243   2.938  -1.871  0.7382 -0.1631  0.0898
   41MOL   C21213092   9.262   2.861  -1.991 -0.6479  0.2983  0.4384
   41MOL   C21313093   9.391   2.800  -2.006 -0.5214  1.2786 -0.0386
   41MOL   C21413094   9.491   2.816  -1.902  0.2019 -0.0112  0.6702
   41MOL   C21513095   9.618   2.740  -1.909  0.1095  0.5364  0.3242
   41MOL   C21613096   9.467   2.899  -1.787  0.2921  0.0168  0.2007
   41MOL   C21713097   9.342   2.961  -1.781 -0.2298 -0.6697 -0.5553
   41MOL   H21813098   9.135   3.117  -1.819  1.1961 -0.1277 -0.5641
   41MOL   H21913099   9.067   3.026  -1.949 -2.2574  1.8653  1.2865
   41MOL   H22013100   9.185   2.845  -2.065 -0.6878  0.5468  0.4256
   41MOL   H22113101   9.410   2.734  -2.089 -1.0667 -1.7236  2.1428
   41MOL   H22213102   9.653   2.704  -1.812 -1.8450  1.5458  1.4292
   41MOL   H22313103   9.609   2.649  -1.969  0.6763  0.5265  0.2487
   41MOL   H22413104   9.544   2.921  -1.714  1.4484 -2.3595 -0.2561
   41MOL   H22513105   9.323   3.023  -1.694  0.4017 -0.3762 -0.6237
   41MOL   C22613106   9.733   2.825  -1.972 -0.3900  0.0399 -0.6176
   41MOL   C22713107   9.856   2.735  -1.989  0.2940  0.0029 -0.0788
   41MOL   C22813108   9.883   2.681  -2.113  0.8674 -0.4730 -0.5886
   41MOL   C22913109  10.000   2.612  -2.136 -0.5998 -0.3604  0.1705
   41MOL   C23013110  10.097   2.591  -2.039  0.4120  0.4545 -0.1419
   41MOL   C23113111  10.229   2.524  -2.064 -0.6350  0.0180 -0.1229
   41MOL   C23213112  10.067   2.645  -1.911  0.4485  0.6949  0.4042
   41MOL   C23313113   9.949   2.720  -1.885  0.0110  0.0470 -0.0314
   41MOL   H23413114   9.752   2.921  -1.926 -0.7461 -0.4962  0.6751
   41MOL   H23513115   9.716   2.859  -2.074  2.5409  4.1160  0.1136
   41MOL   H23613116   9.814   2.693  -2.196  0.0983 -1.1060 -0.0414
   41MOL   H23713117  10.030   2.579  -2.235  0.9475  0.4157  0.3694
   41MOL   H23813118  10.251   2.445  -1.992  2.0490  0.7337 -0.1178
   41MOL   H23913119  10.223   2.488  -2.167 -0.7563 -0.1299 -0.0643
   41MOL   H24013120  10.129   2.621  -1.825  0.9556  0.2347 -0.0907
   41MOL   H24113121   9.926   2.762  -1.789 -0.8388  0.0886 -0.2510
   41MOL   C24213122  10.343   2.622  -2.072  0.5866  0.3576  0.7938
   41MOL   C24313123  10.483   2.564  -2.095 -0.4003  0.9010  0.6435
   41MOL   C24413124  10.596   2.643  -2.118  0.2024  1.0014 -0.1343
   41MOL   C24513125  10.727   2.588  -2.135 -0.6146  0.0914 -0.5270
   41MOL   C24613126  10.739   2.451  -2.130  0.0322  0.1082 -0.1139
   41MOL   C24713127  10.871   2.378  -2.154 -0.4717 -0.5308  0.1644
   41MOL   C24813128  10.629   2.368  -2.115 -0.2365  0.4043  0.4204
   41MOL   C24913129  10.504   2.422  -2.090  0.3628 -0.2730  0.1244
   41MOL   H25013130  10.330   2.688  -2.158  0.5395  0.4985  0.9079
   41MOL   H25113131  10.350   2.695  -1.992  4.2994  1.2452 -0.2678
   41MOL   H25213132  10.592   2.749  -2.136  1.5092  1.4724  2.1543
   41MOL   H25313133  10.811   2.651  -2.158 -1.6343  1.8089  0.3502
   41MOL   H25413134  10.928   2.367  -2.061  0.2873 -2.6115 -0.5115
   41MOL   H25513135  10.844   2.276  -2.180 -1.0687 -0.4663  0.5207
   41MOL   H25613136  10.651   2.263  -2.122 -0.4343  0.3866  0.0609
   41MOL   H25713137  10.413   2.365  -2.072 -1.1336  2.0396  0.0612
   41MOL   C25813138  10.952   2.425  -2.272  0.3444 -0.7884 -0.8840
   41MOL   C25913139  11.092   2.356  -2.270 -0.0892  0.1001  0.1375
   41MOL   C26013140  11.200   2.414  -2.194  0.4540 -0.2704 -0.0851
   41MOL   C26113141  11.324   2.352  -2.193 -0.6983  0.5572 -0.4598
   41MOL   C26213142  11.347   2.225  -2.257  0.7901 -1.1295 -0.1531
   41MOL   C26313143  11.489   2.160  -2.243  0.3523  0.0604 -0.3182
   41MOL   C26413144  11.243   2.171  -2.332 -0.3007 -0.1370  0.0948
   41MOL   C26513145  11.113   2.232  -2.339 -0.3848  0.4821 -0.6193
   41MOL   H26613146  10.975   2.532  -2.271 -0.2883 -0.6521 -0.6970
   41MOL   H26713147  10.896   2.409  -2.364 -0.6233  0.2163 -0.4831
   41MOL   H26813148  11.177   2.500  -2.134 -2.6079  0.5635 -2.3254
   41MOL   H26913149  11.396   2.405  -2.132  1.2637  1.6300 -3.5912
   41MOL   H27013150  11.538   2.206  -2.157 -0.3430  1.1497 -0.4917
   41MOL   H27113151  11.482   2.058  -2.205  0.6640  0.2626  0.2884
   41MOL   H27213152  11.263   2.079  -2.384 -2.3826 -0.5217 -0.0942
   41MOL   H27313153  11.033   2.189  -2.397  0.0621 -0.1917 -0.7431
   41MOL   C27413154  11.571   2.169  -2.374  0.5185  0.0982  0.2151
   41MOL   C27513155  11.720   2.132  -2.364 -0.5408 -0.2335 -0.4091
   41MOL   C27613156  11.767   1.995  -2.342  0.7959  0.2530  0.1157
   41MOL   C27713157  11.905   1.973  -2.319  0.1576  0.7454  0.0523
   41MOL   C27813158  12.003   2.075  -2.319  0.2761  0.3200  0.4497
   41MOL   C27913159  12.150   2.044  -2.293  0.3783  0.0309  0.8884
   41MOL   C28013160  11.959   2.207  -2.340 -0.9334  0.5801  0.3579
   41MOL   C28113161  11.819   2.234  -2.363  0.3611 -0.1318 -0.2603
   41MOL   H28213162  11.528   2.102  -2.449  0.5772 -2.2055  2.1698
   41MOL   H28313163  11.560   2.270  -2.413 -2.2828  0.0076  0.6511
   41MOL   H28413164  11.712   1.902  -2.352  2.4061 -0.4168 -3.2072
   41MOL   H28513165  11.934   1.873  -2.291  3.3151  1.5897 -0.0014
   41MOL   H28613166  12.207   2.136  -2.301  2.4313 -1.3809 -1.3342
   41MOL   H28713167  12.159   2.004  -2.192  0.8483 -1.2190  0.3617
   41MOL   H28813168  12.029   2.289  -2.344 -0.5220  0.3259  1.8240
   41MOL   H28913169  11.795   2.339  -2.366 -0.1151 -0.2840 -3.5434
   41MOL   C29013170  12.199   1.953  -2.412 -0.6261  0.6186  0.1922
   41MOL   C29113171  12.344   1.904  -2.388 -0.6892 -0.2168  0.0847
   41MOL   C29213172  12.368   1.764  -2.384 -0.0496 -0.1269  0.6501
   41MOL   C29313173  12.505   1.724  -2.391 -0.7731 -0.0897 -0.7397
   41MOL   C29413174  12.613   1.821  -2.396  0.4173 -0.0705  0.7826
   41MOL   C29513175  12.760   1.790  -2.411 -0.6927  0.0780 -0.0532
   41MOL   C29613176  12.580   1.959  -2.399 -0.2611 -0.4532  0.4001
   41MOL   C29713177  12.447   2.000  -2.395  0.0956 -0.4090  0.5105
   41MOL   H29813178  12.180   1.993  -2.511 -0.4596  0.4795  0.1037
   41MOL   H29913179  12.137   1.864  -2.413  1.0805 -0.6017  0.9727
   41MOL   H30013180  12.303   1.678  -2.385 -1.4385  0.8781  1.9340
   41MOL   H30113181  12.524   1.618  -2.384  1.5557  0.4578  2.5377
   41MOL   H30213182  12.812   1.850  -2.336 -0.1682 -1.8281  1.1421
   41MOL   H30313183  12.772   1.687  -2.377  0.4740 -0.1121 -1.0009
   41MOL   H30413184  12.657   2.033  -2.414 -0.3758 -0.8216 -2.1697
   41MOL   H30513185  12.421   2.105  -2.400 -2.2697 -1.0230 -0.5221
   41MOL   C30613186  12.822   1.811  -2.549  0.6690 -0.5367  0.3982
   41MOL   C30713187  12.973   1.760  -2.550 -0.4138  0.7170  0.4592
   41MOL   C30813188  13.003   1.619  -2.554 -0.1036 -0.1985  0.7624
   41MOL   C30913189  13.136   1.570  -2.585  0.5469 -0.0532 -0.2555
   41MOL   C31013190  13.243   1.666  -2.607  0.0301  0.0702  0.9002
   41MOL   C31113191  13.381   1.616  -2.651 -0.1215 -0.7094 -0.9497
   41MOL   C31213192  13.212   1.801  -2.591 -0.3640 -0.5629 -0.3892
   41MOL   C31313193  13.081   1.851  -2.554  0.0928 -0.3618 -0.1117
   41MOL   H31413194  12.825   1.918  -2.566  0.4511 -0.3435  1.5592
   41MOL   H31513195  12.763   1.764  -2.627  0.3129 -1.1312  1.0143
   41MOL   H31613196  12.919   1.552  -2.545 -0.5669  0.1485 -0.9625
   41MOL   H31713197  13.157   1.465  -2.596 -1.9816 -0.6420  0.1437
   41MOL   H31813198  13.435   1.695  -2.703  0.5501 -0.6043 -0.1100
   41MOL   H31913199  13.442   1.585  -2.566 -1.7359 -1.5692 -0.0951
   41MOL   H32013200  13.287   1.879  -2.599 -0.5228 -0.4457 -0.7500
   41MOL   H32113201  13.064   1.954  -2.527 -2.3756 -0.7547 -0.0131
   41MOL   H32213202  13.381   1.528  -2.715 -0.2308 -1.1949 -0.2796
   42MOL     C113203   7.579   0.837   3.186  0.0775  0.6540  0.2037
   42MOL     C213204   7.725   0.782   3.191  0.2031 -0.4541 -0.0379
   42MOL     C313205   7.812   0.790   3.079  0.8208  0.1039  0.3003
   42MOL     C413206   7.945   0.754   3.085 -0.4868 -0.6045  0.4225
   42MOL     C513207   7.994   0.687   3.203 -0.3143 -0.2023  0.4933
   42MOL     C613208   8.131   0.636   3.202 -0.7177 -0.1986 -0.1541
   42MOL     C713209   7.909   0.674   3.310  0.3175  0.0507 -0.4178
   42MOL     C813210   7.775   0.725   3.307  0.4353  0.2142 -0.8704
   42MOL     H913211   7.575   0.946   3.192  0.7367  0.6443  1.0882
   42MOL    H1013212   7.538   0.807   3.090  2.7362 -2.6937  0.0222
   42MOL    H1113213   7.783   0.840   2.987  2.1627 -0.1071 -0.2425
   42MOL    H1213214   8.011   0.780   3.003 -0.8133 -3.1327 -0.6954
   42MOL    H1313215   8.134   0.545   3.262  0.5272 -1.7408 -2.4679
   42MOL    H1413216   8.155   0.604   3.100 -0.2337 -0.5575  0.0683
   42MOL    H1513217   7.948   0.629   3.400  0.4350  1.8067  0.4331
   42MOL    H1613218   7.715   0.718   3.396 -0.3810 -0.9791 -1.4938
   42MOL    H1713219   7.521   0.809   3.274 -0.8033  1.5978 -0.0725
   42MOL    C1813220   8.232   0.734   3.249 -0.5442 -0.1616 -0.0833
   42MOL    C1913221   8.369   0.684   3.245 -1.1199 -0.4450  0.1888
   42MOL    C2013222   8.459   0.728   3.144  0.4685 -0.2801 -0.4367
   42MOL    C2113223   8.596   0.694   3.148  0.3899  0.5843 -0.1901
   42MOL    C2213224   8.647   0.604   3.248  0.6087 -0.2491  0.1674
   42MOL    C2313225   8.791   0.547   3.223 -0.1924 -0.0264 -0.2067
   42MOL    C2413226   8.558   0.553   3.341 -0.1405  0.2292  0.6632
   42MOL    C2513227   8.420   0.596   3.346  0.2434 -0.7943 -0.5133
   42MOL    H2613228   8.214   0.821   3.185 -0.3967 -0.5842 -0.7035
   42MOL    H2713229   8.207   0.775   3.347 -1.4623  0.9575 -0.7674
   42MOL    H2813230   8.430   0.804   3.073  1.3988  2.0446  1.6306
   42MOL    H2913231   8.658   0.738   3.072  0.5577  2.3575  0.9396
   42MOL    H3013232   8.847   0.612   3.156 -2.1537  0.8052 -1.0911
   42MOL    H3113233   8.776   0.455   3.166  0.0074 -1.5697  2.1592
   42MOL    H3213234   8.579   0.488   3.424 -0.7302 -0.8315 -0.0162
   42MOL    H3313235   8.358   0.556   3.426  1.6322 -2.4322 -0.2334
   42MOL    C3413236   8.862   0.533   3.356  0.4615  0.1998  0.4513
   42MOL    C3513237   8.997   0.472   3.332 -0.2505  0.0852 -0.7281
   42MOL    C3613238   9.016   0.335   3.352  0.1820  0.3822 -0.0943
   42MOL    C3713239   9.137   0.278   3.318  0.3436  0.0570  0.2678
   42MOL    C3813240   9.242   0.353   3.273 -0.8359  0.4532  1.1620
   42MOL    C3913241   9.368   0.286   3.235  0.3733 -0.6249  0.4066
   42MOL    C4013242   9.230   0.490   3.260  0.4955 -0.4785 -0.2143
   42MOL    C4113243   9.102   0.550   3.280 -0.2161 -0.3431  0.7142
   42MOL    H4213244   8.813   0.466   3.427  0.7430  0.2254  0.6718
   42MOL    H4313245   8.856   0.622   3.419 -1.0073  1.1286 -0.9604
   42MOL    H4413246   8.939   0.275   3.399 -0.6634  1.1435 -0.4942
   42MOL    H4513247   9.142   0.171   3.336  2.1544 -0.0351 -0.6594
   42MOL    H4613248   9.335   0.207   3.167 -0.1729  1.1790 -1.4826
   42MOL    H4713249   9.417   0.357   3.168 -1.6070  1.2468  0.8950
   42MOL    H4813250   9.313   0.557   3.240 -2.0075  2.5135 -0.9419
   42MOL    H4913251   9.086   0.654   3.254 -0.7428 -0.7107 -0.4781
   42MOL    C5013252   9.448   0.240   3.362 -1.0778  0.3730 -0.8771
   42MOL    C5113253   9.578   0.181   3.342  0.5049  0.5665  0.2395
   42MOL    C5213254   9.594   0.055   3.286 -0.0005  0.0336 -0.3280
   42MOL    C5313255   9.718   0.008   3.243 -0.5002 -0.3845  1.1581
   42MOL    C5413256   9.838   0.092   3.264  0.1589 -0.1738 -0.5558
   42MOL    C5513257   9.977   0.051   3.215  0.0686 -0.5330  0.4490
   42MOL    C5613258   9.817   0.215   3.333 -0.2465  0.2784 -0.2540
   42MOL    C5713259   9.689   0.263   3.365  0.2556 -0.6263 -0.4859
   42MOL    H5813260   9.385   0.162   3.406 -0.7704  0.9457  0.6147
   42MOL    H5913261   9.446   0.322   3.433  0.2090 -0.9599  0.7442
   42MOL    H6013262   9.504  -0.003   3.272  0.9250 -1.7523  0.9954
   42MOL    H6113263   9.735  -0.091   3.204 -1.4901 -0.6704  1.4477
   42MOL    H6213264   9.958  -0.017   3.131  2.2513 -2.6214  1.6066
   42MOL    H6313265  10.031   0.139   3.181 -2.6192  1.2942  0.7782
   42MOL    H6413266   9.904   0.278   3.338  0.0156 -0.1675  0.9508
   42MOL    H6513267   9.670   0.361   3.406  3.1726 -0.2325  0.0199
   42MOL    C6613268  10.050  -0.028   3.323  0.1909 -0.1822  0.4265
   42MOL    C6713269  10.180  -0.084   3.273  0.5326  0.1255  0.2664
   42MOL    C6813270  10.301  -0.018   3.300 -0.7350  0.3389 -0.4600
   42MOL    C6913271  10.424  -0.069   3.257  0.1783 -0.4056  0.4052
   42MOL    C7013272  10.426  -0.186   3.178  0.2375  0.0672 -0.5574
   42MOL    C7113273  10.559  -0.243   3.126 -0.0599 -0.3928 -0.3852
   42MOL    C7213274  10.304  -0.258   3.154  0.5185 -0.7815 -0.3630
   42MOL    C7313275  10.180  -0.205   3.201 -0.0210 -0.0570 -0.3664
   42MOL    H7413276   9.981  -0.103   3.362 -2.5562  1.7182 -0.6161
   42MOL    H7513277  10.079   0.037   3.407  0.5887 -0.6647  0.6641
   42MOL    H7613278  10.296   0.069   3.362  0.8485 -0.0324  0.2243
   42MOL    H7713279  10.519  -0.020   3.273  1.2821 -2.0919 -0.7999
   42MOL    H7813280  10.616  -0.162   3.081 -0.4978  0.0108 -0.2152
   42MOL    H7913281  10.548  -0.307   3.038  1.9368 -0.1190 -0.8726
   42MOL    H8013282  10.292  -0.355   3.106  0.0284 -0.7251 -0.3634
   42MOL    H8113283  10.089  -0.264   3.199  0.3671 -0.8023  2.0188
   42MOL    C8213284  10.642  -0.305   3.240 -1.1015  0.2064 -0.4451
   42MOL    C8313285  10.790  -0.333   3.213 -0.1590 -0.3462 -0.0412
   42MOL    C8413286  10.878  -0.238   3.255  0.3072  0.3134  0.1786
   42MOL    C8513287  11.016  -0.249   3.238 -0.1873 -0.1755  0.7299
   42MOL    C8613288  11.065  -0.362   3.167  0.0432  0.2992 -0.4176
   42MOL    C8713289  11.213  -0.385   3.135  0.1832  0.0426 -0.0722
   42MOL    C8813290  10.975  -0.463   3.131  0.3051  0.0366  0.2306
   42MOL    C8913291  10.835  -0.449   3.150 -0.7234  0.1649 -0.3718
   42MOL    H9013292  10.601  -0.404   3.255  0.8740 -0.4431  0.8703
   42MOL    H9113293  10.636  -0.260   3.339  0.4499 -0.0129 -0.2431
   42MOL    H9213294  10.838  -0.145   3.292 -0.5333 -0.8709  2.3408
   42MOL    H9313295  11.090  -0.180   3.277  1.5924 -1.0600 -0.9838
   42MOL    H9413296  11.246  -0.296   3.080 -0.4213 -1.5125 -3.0614
   42MOL    H9513297  11.221  -0.472   3.070  2.1618  1.6981 -2.1724
   42MOL    H9613298  11.009  -0.553   3.083  1.9558 -0.2090  1.8230
   42MOL    H9713299  10.766  -0.526   3.121 -1.0027  0.6838 -1.0943
   42MOL    C9813300  11.296  -0.403   3.264  0.1306 -0.6197 -0.2203
   42MOL    C9913301  11.438  -0.447   3.247 -0.0352  0.0496 -0.0351
   42MOL   C10013302  11.465  -0.577   3.204 -0.2611  0.1988 -0.0812
   42MOL   C10113303  11.592  -0.619   3.172  0.3206  0.1346  0.9980
   42MOL   C10213304  11.700  -0.532   3.195  0.0040 -0.1063  0.4638
   42MOL   C10313305  11.842  -0.580   3.180  0.5807 -0.6691  0.7445
   42MOL   C10413306  11.677  -0.402   3.239  0.0199  0.4401 -0.3119
   42MOL   C10513307  11.543  -0.359   3.268 -0.1372  0.3318 -0.6943
   42MOL   H10613308  11.250  -0.478   3.328  0.7008 -1.7592 -1.1330
   42MOL   H10713309  11.293  -0.319   3.334  2.5524 -0.8135  0.1486
   42MOL   H10813310  11.390  -0.655   3.201 -0.8964  0.7641  0.6271
   42MOL   H10913311  11.608  -0.717   3.129 -1.3193  0.4761 -0.4323
   42MOL   H11013312  11.849  -0.654   3.100 -0.4104  0.2988 -0.2472
   42MOL   H11113313  11.897  -0.488   3.163 -1.4136  1.0137  2.9722
   42MOL   H11213314  11.759  -0.334   3.255  0.8598 -0.4830 -0.6325
   42MOL   H11313315  11.523  -0.259   3.305 -0.9100  0.0299 -0.2915
   42MOL   C11413316  11.899  -0.646   3.306  0.8619 -0.5719 -0.2689
   42MOL   C11513317  12.043  -0.689   3.283  0.9096  0.2854  0.3433
   42MOL   C11613318  12.080  -0.817   3.235 -0.8565 -0.5223  0.1646
   42MOL   C11713319  12.216  -0.831   3.197 -0.6882 -0.9008 -0.1109
   42MOL   C11813320  12.316  -0.739   3.233  0.2221 -0.2196 -0.1889
   42MOL   C11913321  12.462  -0.772   3.224  0.1314 -0.4354 -0.0205
   42MOL   C12013322  12.270  -0.623   3.303  0.9088 -0.0690  0.3758
   42MOL   C12113323  12.134  -0.592   3.320 -0.8909 -0.2036  0.1819
   42MOL   H12213324  11.831  -0.726   3.337 -0.3472  0.0910 -1.1618
   42MOL   H12313325  11.894  -0.568   3.382  0.9208 -2.4274  1.7222
   42MOL   H12413326  12.009  -0.891   3.202  0.6996 -1.8980 -0.2141
   42MOL   H12513327  12.241  -0.929   3.160 -1.4280 -1.3897  0.6756
   42MOL   H12613328  12.477  -0.794   3.119 -1.6422  0.0261 -0.3811
   42MOL   H12713329  12.519  -0.685   3.258 -0.9362  0.4653 -0.4955
   42MOL   H12813330  12.344  -0.548   3.331  1.9705 -1.3076  0.9447
   42MOL   H12913331  12.102  -0.502   3.371  0.1603 -0.6408  1.6382
   42MOL   C13013332  12.508  -0.907   3.291  0.2755  0.5852 -0.1546
   42MOL   C13113333  12.645  -0.955   3.260 -0.5344 -0.1772 -0.2230
   42MOL   C13213334  12.673  -1.058   3.175 -0.1299 -0.3475  0.5775
   42MOL   C13313335  12.807  -1.092   3.150  0.4575 -0.7541  0.0726
   42MOL   C13413336  12.914  -1.021   3.208 -0.0592  0.4293  0.0472
   42MOL   C13513337  13.051  -1.076   3.203  0.1138 -0.1459  0.7727
   42MOL   C13613338  12.881  -0.907   3.289  1.0409 -0.3184 -0.5708
   42MOL   C13713339  12.746  -0.868   3.307 -0.2430 -0.0013 -0.4039
   42MOL   H13813340  12.424  -0.976   3.289  0.9302 -0.2002 -1.4074
   42MOL   H13913341  12.501  -0.887   3.398  1.1123  0.4801 -0.0776
   42MOL   H14013342  12.588  -1.118   3.144  0.5481 -0.7889 -0.4273
   42MOL   H14113343  12.818  -1.182   3.091  1.5034 -1.5089  1.3779
   42MOL   H14213344  13.029  -1.178   3.173  2.1240 -1.2742  2.9438
   42MOL   H14313345  13.113  -1.030   3.127  1.3725 -1.7617  0.8034
   42MOL   H14413346  12.963  -0.855   3.336 -0.5537  0.7268  1.1395
   42MOL   H14513347  12.716  -0.781   3.364  0.5630  0.8162 -1.2106
   42MOL   C14613348  13.130  -1.073   3.346  0.9037  0.1695  0.3533
   42MOL   C14713349  13.268  -1.127   3.318 -0.8756  0.0443 -0.2952
   42MOL   C14813350  13.283  -1.260   3.272  0.1314 -0.6876  0.1292
   42MOL   C14913351  13.409  -1.300   3.225 -0.4839  0.0808 -0.1905
   42MOL   C15013352  13.523  -1.220   3.244 -0.2321  0.9302 -0.3791
   42MOL   C15113353  13.656  -1.271   3.208 -0.3785 -0.0989 -0.0733
   42MOL   C15213354  13.505  -1.093   3.302  0.1215 -0.7593  0.1513
   42MOL   C15313355  13.381  -1.047   3.338 -0.6077  0.2913 -0.1277
   42MOL   H15413356  13.090  -1.146   3.417 -0.8056  0.9225  0.1858
   42MOL   H15513357  13.142  -0.973   3.387 -0.0731  0.5473 -0.2527
   42MOL   H15613358  13.196  -1.320   3.253 -2.0786  2.0338  1.3619
   42MOL   H15713359  13.416  -1.395   3.174  0.8735 -0.0501  0.2086
   42MOL   H15813360  13.645  -1.307   3.106  0.5514  1.0536 -0.5830
   42MOL   H15913361  13.733  -1.194   3.213 -1.6174  1.1116  0.7965
   42MOL   H16013362  13.588  -1.025   3.315 -1.8415  1.9373 -0.9655
   42MOL   H16113363  13.360  -0.943   3.359  0.9793  0.3892  1.0606
   42MOL   C16213364  13.693  -1.383   3.305 -0.7246 -0.7744  0.2926
   42MOL   C16313365  13.845  -1.402   3.319 -0.2138 -0.4561 -0.4739
   42MOL   C16413366  13.911  -1.349   3.430  0.7970  0.5634  0.3524
   42MOL   C16513367  14.051  -1.352   3.450 -0.0870 -0.5518  0.1910
   42MOL   C16613368  14.129  -1.401   3.336  0.6296  0.2399 -0.6972
   42MOL   C16713369  14.280  -1.385   3.342  0.0117  0.1606  0.1957
   42MOL   C16813370  14.062  -1.456   3.227  0.7432  0.2802  1.1450
   42MOL   C16913371  13.922  -1.463   3.219  0.7008  0.1583  0.5584
   42MOL   H17013372  13.649  -1.478   3.274  0.7562 -1.1330 -0.7294
   42MOL   H17113373  13.655  -1.358   3.405  0.6788  0.2398  0.5814
   42MOL   H17213374  13.846  -1.303   3.503  0.4029  0.6949 -0.0847
   42MOL   H17313375  14.094  -1.311   3.540  0.6990 -0.4692 -0.2168
   42MOL   H17413376  14.328  -1.370   3.246 -0.4147 -1.9849 -0.3722
   42MOL   H17513377  14.295  -1.297   3.404  2.9647 -0.0890 -0.1250
   42MOL   H17613378  14.120  -1.502   3.148 -1.9538  1.7401 -1.8315
   42MOL   H17713379  13.876  -1.503   3.129  1.7194 -1.0386  0.5581
   42MOL   C17813380  14.351  -1.489   3.426 -0.1845 -0.1445 -0.1526
   42MOL   C17913381  14.502  -1.489   3.407 -0.4101 -0.4600 -0.7415
   42MOL   C18013382  14.585  -1.422   3.498  0.1425 -0.3748 -0.0821
   42MOL   C18113383  14.721  -1.419   3.488  0.2268 -0.2733 -0.1702
   42MOL   C18213384  14.780  -1.498   3.387  0.2221 -0.0992 -0.2600
   42MOL   C18313385  14.927  -1.495   3.379 -0.4277 -0.2870  0.5018
   42MOL   C18413386  14.703  -1.570   3.294 -0.0860 -0.4242 -0.0325
   42MOL   C18513387  14.562  -1.563   3.299  0.2700  0.1907 -0.2715
   42MOL   H18613388  14.306  -1.587   3.408  1.4076 -0.7460 -0.9616
   42MOL   H18713389  14.328  -1.462   3.529 -3.2045 -1.0527 -0.5456
   42MOL   H18813390  14.545  -1.356   3.574  0.5847  0.7336 -0.7926
   42MOL   H18913391  14.788  -1.361   3.549 -0.0549 -0.2919  0.1556
   42MOL   H19013392  14.967  -1.503   3.278  1.3095  3.2509  0.8496
   42MOL   H19113393  14.955  -1.391   3.397 -0.1750  0.3140 -3.1210
   42MOL   H19213394  14.765  -1.627   3.227  0.5527 -0.3387  0.4711
   42MOL   H19313395  14.497  -1.611   3.228 -0.3841  1.1057 -0.2957
   42MOL   C19413396  14.986  -1.591   3.483  0.1494 -0.0456 -0.7235
   42MOL   C19513397  15.141  -1.596   3.487  0.1334 -0.5834  0.3818
   42MOL   C19613398  15.206  -1.536   3.596  0.5562  0.3154  0.5784
   42MOL   C19713399  15.346  -1.556   3.621  0.2433  0.4691 -0.2251
   42MOL   C19813400  15.419  -1.640   3.529 -0.6441 -0.2504 -0.0618
   42MOL   C19913401  15.560  -1.662   3.553  0.1631  0.4680  0.5455
   42MOL   C20013402  15.356  -1.695   3.417  0.6981 -0.5480  0.7874
   42MOL   C20113403  15.219  -1.677   3.401  0.1398 -0.4758 -1.0550
   42MOL   H20213404  14.951  -1.694   3.472 -1.9715  0.7153 -1.1775
   42MOL   H20313405  14.954  -1.555   3.581  0.0710 -0.2874 -0.6589
   42MOL   H20413406  15.143  -1.475   3.659 -1.2819 -0.3224 -0.5882
   42MOL   H20513407  15.382  -1.519   3.716  1.1829  0.4327 -0.5662
   42MOL   H20613408  15.615  -1.636   3.462 -1.4935  3.0324  0.2257
   42MOL   H20713409  15.594  -1.590   3.627  0.3044  1.5459 -0.5563
   42MOL   H20813410  15.413  -1.752   3.345  0.1757  1.0534 -0.9003
   42MOL   H20913411  15.168  -1.716   3.314 -0.1863 -1.3509 -0.4752
   42MOL   C21013412  15.605  -1.805   3.608  0.1432  0.4603  0.0948
   42MOL   C21113413  15.752  -1.811   3.648 -0.5446  0.1542 -0.3251
   42MOL   C21213414  15.842  -1.876   3.563 -0.1950  0.1652  0.4945
   42MOL   C21313415  15.979  -1.876   3.595  0.6973  0.8862 -0.3781
   42MOL   C21413416  16.029  -1.817   3.716  0.1740 -0.4908 -0.0298
   42MOL   C21513417  16.182  -1.817   3.740 -0.3591  0.4480  0.0592
   42MOL   C21613418  15.939  -1.744   3.801  0.3068  0.6174  0.1625
   42MOL   C21713419  15.798  -1.744   3.763  0.1911  0.1347  0.2776
   42MOL   H21813420  15.577  -1.887   3.542 -1.4721  1.4873 -0.5456
   42MOL   H21913421  15.555  -1.838   3.698  0.1935 -1.3532 -0.5302
   42MOL   H22013422  15.801  -1.927   3.477  0.5255 -1.6823  1.2331
   42MOL   H22113423  16.051  -1.918   3.526  2.0304 -0.4986  1.8148
   42MOL   H22213424  16.220  -1.813   3.843  0.0655 -3.7990  0.1957
   42MOL   H22313425  16.212  -1.917   3.707  0.5360  0.9204 -0.5647
   42MOL   H22413426  15.971  -1.687   3.886 -0.4965  1.4431 -0.0751
   42MOL   H22513427  15.729  -1.690   3.826  0.1031  1.1782 -0.6762
   42MOL   C22613428  16.263  -1.720   3.666 -0.8499  0.0674 -0.3648
   42MOL   C22713429  16.408  -1.759   3.678  0.0650  0.5623  0.0639
   42MOL   C22813430  16.500  -1.676   3.745  0.1230 -0.6159  0.4785
   42MOL   C22913431  16.635  -1.696   3.746 -0.1058 -0.2136 -0.4437
   42MOL   C23013432  16.683  -1.815   3.682 -0.2778 -0.6197 -0.2598
   42MOL   C23113433  16.827  -1.842   3.682 -0.2449  0.6900 -0.0144
   42MOL   C23213434  16.597  -1.908   3.621  0.2583 -0.3034  0.9965
   42MOL   C23313435  16.457  -1.884   3.620  0.4174 -0.6447 -0.1733
   42MOL   H23413436  16.248  -1.628   3.724  0.2333 -0.0398  0.1066
   42MOL   H23513437  16.233  -1.713   3.562 -0.8024  3.5223 -0.2164
   42MOL   H23613438  16.458  -1.594   3.802  2.4856  0.6903  0.3763
   42MOL   H23713439  16.704  -1.634   3.801  0.5165 -2.7304  1.7437
   42MOL   H23813440  16.877  -1.773   3.750 -1.1276 -1.0699  2.5147
   42MOL   H23913441  16.831  -1.945   3.719 -2.1347  1.4882  2.5268
   42MOL   H24013442  16.652  -1.992   3.580 -0.7001  0.2665 -1.5690
   42MOL   H24113443  16.387  -1.948   3.569 -1.5432  0.9854  0.4182
   42MOL   C24213444  16.891  -1.831   3.536 -0.3366  0.4438 -0.6659
   42MOL   C24313445  17.041  -1.809   3.540  0.1022  0.6921  0.1404
   42MOL   C24413446  17.128  -1.921   3.568 -0.5820 -0.0037 -0.5150
   42MOL   C24513447  17.266  -1.903   3.553  0.0725  0.1460 -0.5518
   42MOL   C24613448  17.324  -1.780   3.512  0.5852  0.2087  0.9010
   42MOL   C24713449  17.478  -1.758   3.495  1.1008  0.8359 -0.4918
   42MOL   C24813450  17.233  -1.669   3.497  0.4619  0.3721  0.2714
   42MOL   C24913451  17.096  -1.684   3.505 -0.1604  0.1589  0.4160
   42MOL   H25013452  16.872  -1.918   3.474  1.5009 -0.1423 -0.4524
   42MOL   H25113453  16.851  -1.740   3.491 -0.3214  2.5947  3.4397
   42MOL   H25213454  17.095  -2.019   3.599 -1.2223 -0.4657 -2.5921
   42MOL   H25313455  17.330  -1.985   3.580  1.5660  1.2134 -0.7910
   42MOL   H25413456  17.519  -1.657   3.504  0.4421  1.0714 -0.0437
   42MOL   H25513457  17.516  -1.815   3.580  1.2529 -1.6432 -2.1779
   42MOL   H25613458  17.277  -1.573   3.475 -1.5508  1.3582  0.4113
   42MOL   H25713459  17.043  -1.594   3.477 -1.5922 -1.2132 -1.4740
   42MOL   C25813460  17.522  -1.834   3.367  0.6565 -0.2440  1.0527
   42MOL   C25913461  17.671  -1.849   3.358 -0.2502 -0.6410  0.2685
   42MOL   C26013462  17.733  -1.961   3.423 -0.5566 -0.0101 -0.4835
   42MOL   C26113463  17.873  -1.954   3.439  0.2956 -0.1928  0.6057
   42MOL   C26213464  17.947  -1.846   3.384 -0.8319 -0.2958  0.0623
   42MOL   C26313465  18.100  -1.848   3.402 -0.0221  0.1376  0.1089
   42MOL   C26413466  17.885  -1.743   3.309  0.1618  0.0660 -0.2793
   42MOL   C26513467  17.746  -1.743   3.296  0.9755  0.7419 -0.4644
   42MOL   H26613468  17.496  -1.773   3.280  1.8900 -2.2359 -0.7690
   42MOL   H26713469  17.471  -1.928   3.347  1.2350 -0.5617  1.0635
   42MOL   H26813470  17.672  -2.045   3.452 -1.0160  0.4210 -0.1977
   42MOL   H26913471  17.931  -2.035   3.480  1.8043  0.8225  0.5138
   42MOL   H27013472  18.136  -1.745   3.389  0.3022 -0.1420 -1.2393
   42MOL   H27113473  18.121  -1.876   3.506 -0.8394  1.2403  0.5839
   42MOL   H27213474  17.940  -1.666   3.257  0.3129 -0.0551 -0.2976
   42MOL   H27313475  17.700  -1.657   3.250  1.1743  0.4525 -1.2206
   42MOL   C27413476  18.171  -1.954   3.319  0.1856 -0.0278 -0.0161
   42MOL   C27513477  18.315  -1.970   3.374  0.3701 -0.0841 -0.0443
   42MOL   C27613478  18.412  -1.868   3.348 -1.0687  0.1006 -0.5259
   42MOL   C27713479  18.543  -1.895   3.388 -0.6027 -0.0052 -0.5140
   42MOL   C27813480  18.574  -2.016   3.453  0.1843  0.2972 -0.4666
   42MOL   C27913481  18.717  -2.044   3.500  0.8232  0.7469 -0.5380
   42MOL   C28013482  18.478  -2.112   3.484  0.4783  0.1018  0.0731
   42MOL   C28113483  18.347  -2.092   3.442 -0.2026  0.6519 -0.1789
   42MOL   H28213484  18.120  -2.050   3.325 -2.0700  1.1163 -0.2606
   42MOL   H28313485  18.173  -1.938   3.211  3.4064  0.6155  0.1001
   42MOL   H28413486  18.395  -1.779   3.290 -0.4422  0.0692 -0.7618
   42MOL   H28513487  18.622  -1.823   3.374  1.0899 -1.9263 -1.1467
   42MOL   H28613488  18.771  -1.952   3.478 -0.7385  1.4885 -1.3314
   42MOL   H28713489  18.731  -2.049   3.608 -0.5077  2.2242 -0.2878
   42MOL   H28813490  18.505  -2.203   3.536 -0.4000 -0.2927 -0.1565
   42MOL   H28913491  18.276  -2.171   3.457 -0.6149  1.0926  0.2249
   42MOL   C29013492  18.783  -2.169   3.433 -0.6489  0.3977 -0.6556
   42MOL   C29113493  18.928  -2.196   3.481 -0.3998 -0.3188 -0.0447
   42MOL   C29213494  19.033  -2.098   3.459 -0.2764  0.5398 -0.0069
   42MOL   C29313495  19.158  -2.136   3.507 -0.7064 -0.2083  0.1357
   42MOL   C29413496  19.177  -2.249   3.581  0.3752  0.0866 -0.0219
   42MOL   C29513497  19.313  -2.277   3.634  0.6079  0.8423 -0.8421
   42MOL   C29613498  19.080  -2.347   3.582 -0.3356 -0.1103  0.3430
   42MOL   C29713499  18.950  -2.318   3.539  0.6958 -0.4676 -0.2857
   42MOL   H29813500  18.786  -2.143   3.327  0.0256 -0.9934 -0.9912
   42MOL   H29913501  18.713  -2.250   3.453 -1.0136  1.4312  2.5620
   42MOL   H30013502  19.007  -2.009   3.404  0.4542  0.3480 -0.6559
   42MOL   H30113503  19.243  -2.070   3.501 -0.8990  0.2371  2.0657
   42MOL   H30213504  19.362  -2.180   3.634  0.3550  0.9693 -1.5742
   42MOL   H30313505  19.297  -2.305   3.738 -1.7114 -3.2055 -2.1689
   42MOL   H30413506  19.093  -2.447   3.621  0.1925  0.0253  0.5149
   42MOL   H30513507  18.869  -2.388   3.530  0.1499  0.2589 -1.1287
   42MOL   C30613508  19.392  -2.373   3.539 -0.0848 -0.0976  0.4857
   42MOL   C30713509  19.534  -2.394   3.580 -0.0850  0.1462 -0.4046
   42MOL   C30813510  19.633  -2.311   3.542 -0.3665  0.6096  0.3310
   42MOL   C30913511  19.763  -2.332   3.595 -0.3900 -0.3302 -0.2070
   42MOL   C31013512  19.800  -2.440   3.675  1.2228  0.8502 -0.1657
   42MOL   C31113513  19.935  -2.464   3.732  0.1574 -0.0817 -0.1899
   42MOL   C31213514  19.695  -2.536   3.698  0.2421  0.6263 -0.0833
   42MOL   C31313515  19.562  -2.513   3.654  0.3206 -0.5418 -0.6417
   42MOL   H31413516  19.399  -2.329   3.440  1.6697 -0.6431  0.3647
   42MOL   H31513517  19.349  -2.470   3.516  0.8672 -0.2997 -0.4226
   42MOL   H31613518  19.606  -2.224   3.483 -0.7610  0.6815  0.6188
   42MOL   H31713519  19.828  -2.249   3.570  1.8074 -2.5499 -2.1369
   42MOL   H31813520  19.978  -2.554   3.688 -0.5885 -1.0517  1.0738
   42MOL   H31913521  20.002  -2.380   3.711 -0.2854 -0.1295 -1.8658
   42MOL   H32013522  19.721  -2.620   3.761 -0.5807 -0.4745 -1.1801
   42MOL   H32113523  19.477  -2.571   3.686  0.0034  1.4294  2.2563
   42MOL   H32213524  19.937  -2.479   3.840 -0.9903  0.2253 -0.1233
   43MOL     C113525   6.694   7.526   4.507 -0.0737 -0.7315 -0.6159
   43MOL     C213526   6.832   7.475   4.483  0.4019 -0.0272  0.0558
   43MOL     C313527   6.879   7.370   4.569  0.2455 -0.7230  0.0710
   43MOL     C413528   7.004   7.310   4.547  0.1175  0.1576 -0.5602
   43MOL     C513529   7.089   7.365   4.449 -0.5416  0.2209 -0.3839
   43MOL     C613530   7.233   7.313   4.422 -0.4340  0.3821  0.1614
   43MOL     C713531   7.042   7.464   4.368  0.5104  0.1892  0.9403
   43MOL     C813532   6.913   7.513   4.377 -0.0073 -0.2141  0.4606
   43MOL     H913533   6.687   7.607   4.580  0.2654 -2.0171  0.8780
   43MOL    H1013534   6.639   7.558   4.419 -2.4982  1.1002  1.4799
   43MOL    H1113535   6.816   7.318   4.641 -1.4718 -1.0236 -1.6054
   43MOL    H1213536   7.037   7.238   4.621 -1.9259 -1.4854 -1.2029
   43MOL    H1313537   7.249   7.317   4.315  1.1035 -0.9818  0.3291
   43MOL    H1413538   7.301   7.391   4.457  1.9883 -0.8234 -1.7050
   43MOL    H1513539   7.097   7.513   4.289  0.2571 -0.7393  0.1877
   43MOL    H1613540   6.881   7.587   4.305  2.9380  0.6979  0.0283
   43MOL    H1713541   6.631   7.444   4.541  1.0674 -0.8362  1.3633
   43MOL    C1813542   7.264   7.177   4.489 -0.1455  0.4147  0.6767
   43MOL    C1913543   7.403   7.128   4.451  0.1431 -0.6384  0.0761
   43MOL    C2013544   7.438   6.999   4.500 -0.1670  0.5817  0.1297
   43MOL    C2113545   7.570   6.951   4.494 -0.5806  0.4549  0.4196
   43MOL    C2213546   7.670   7.035   4.440 -0.8027  0.5509 -0.3563
   43MOL    C2313547   7.816   6.995   4.463 -0.2827 -0.5253 -0.5968
   43MOL    C2413548   7.630   7.164   4.387  0.2367  0.4631 -0.1056
   43MOL    C2513549   7.495   7.203   4.381  0.1056 -0.4417 -0.5494
   43MOL    H2613550   7.259   7.189   4.597  0.1056 -1.0234  0.8583
   43MOL    H2713551   7.201   7.093   4.457  2.5459 -1.9793  1.4430
   43MOL    H2813552   7.368   6.942   4.558  0.8927  0.3092  1.1545
   43MOL    H2913553   7.588   6.854   4.537  1.1567  1.4812  2.0887
   43MOL    H3013554   7.822   6.980   4.571  0.1253 -1.6071 -0.7642
   43MOL    H3113555   7.875   7.085   4.445 -0.8567 -0.2821 -1.2493
   43MOL    H3213556   7.707   7.235   4.359 -0.3969  1.0633 -0.3292
   43MOL    H3313557   7.472   7.303   4.347 -0.9332  0.6541  3.0739
   43MOL    C3413558   7.868   6.877   4.384 -0.2428 -0.0145  0.0709
   43MOL    C3513559   8.007   6.840   4.435 -0.5226 -0.0878 -0.1734
   43MOL    C3613560   8.035   6.728   4.512  0.8311 -0.4293 -0.2322
   43MOL    C3713561   8.163   6.698   4.563  0.5646 -0.3864  0.6291
   43MOL    C3813562   8.271   6.776   4.507  0.4123  0.4337 -0.2328
   43MOL    C3913563   8.413   6.745   4.552  0.1184 -0.0967  0.0293
   43MOL    C4013564   8.246   6.885   4.425 -0.8446  0.0110 -0.3517
   43MOL    C4113565   8.113   6.919   4.391 -0.5592 -0.1384  0.6876
   43MOL    H4213566   7.864   6.907   4.280 -0.7771 -2.0505 -0.5190
   43MOL    H4313567   7.810   6.784   4.382  1.7923 -1.3090  0.0874
   43MOL    H4413568   7.950   6.665   4.536  0.8363 -1.2190 -2.2287
   43MOL    H4513569   8.180   6.623   4.639 -0.4119 -0.8331  0.4103
   43MOL    H4613570   8.453   6.822   4.618  1.8358 -2.3238  1.6377
   43MOL    H4713571   8.401   6.657   4.615  1.5968  0.9136  1.7660
   43MOL    H4813572   8.326   6.944   4.382 -0.9982 -1.2028 -2.3697
   43MOL    H4913573   8.096   6.997   4.318 -3.7508 -0.6767  0.8058
   43MOL    C5013574   8.517   6.714   4.431  0.1265 -1.1367  0.0916
   43MOL    C5113575   8.663   6.720   4.464  0.0243  0.0124 -0.0903
   43MOL    C5213576   8.710   6.648   4.583 -0.1192 -0.6728 -0.3177
   43MOL    C5313577   8.851   6.641   4.614 -0.1809  0.7788 -0.3246
   43MOL    C5413578   8.945   6.693   4.521 -0.2187 -0.4966 -0.1633
   43MOL    C5513579   9.090   6.676   4.540  0.0298 -0.5009 -0.3363
   43MOL    C5613580   8.894   6.755   4.399 -0.6944  0.1279 -0.6510
   43MOL    C5713581   8.757   6.773   4.375 -0.2727 -0.0518  0.0867
   43MOL    H5813582   8.499   6.790   4.355  1.1916  0.0545  1.0194
   43MOL    H5913583   8.491   6.615   4.395  0.0486 -1.1153  0.0891
   43MOL    H6013584   8.640   6.589   4.640  0.0578  0.6360  1.2913
   43MOL    H6113585   8.882   6.585   4.701  0.5970 -0.5807 -1.4550
   43MOL    H6213586   9.129   6.774   4.567  0.1192 -0.2275 -1.4381
   43MOL    H6313587   9.094   6.615   4.630  0.1531 -0.4318 -0.2955
   43MOL    H6413588   8.963   6.804   4.332 -1.3138 -0.0251 -1.4039
   43MOL    H6513589   8.723   6.827   4.288 -0.7005 -1.2660 -0.5165
   43MOL    C6613590   9.171   6.622   4.419 -0.0996 -0.0350  1.0126
   43MOL    C6713591   9.317   6.607   4.438  0.3330 -0.0291 -0.1789
   43MOL    C6813592   9.395   6.583   4.322  0.4002  0.3710 -0.3427
   43MOL    C6913593   9.537   6.577   4.340 -0.0151  0.6069 -0.0410
   43MOL    C7013594   9.598   6.609   4.461 -0.3332  0.0813  0.5305
   43MOL    C7113595   9.755   6.616   4.467 -0.5077 -0.0979 -0.6209
   43MOL    C7213596   9.519   6.633   4.574 -0.0905 -0.2670 -0.2977
   43MOL    C7313597   9.382   6.628   4.562  0.0246  0.7025 -0.4958
   43MOL    H7413598   9.157   6.698   4.342 -0.2975 -0.2986  0.7859
   43MOL    H7513599   9.130   6.527   4.386 -1.0700  0.4378  0.8131
   43MOL    H7613600   9.355   6.570   4.222 -0.8134  2.9660 -0.2460
   43MOL    H7713601   9.594   6.569   4.248  0.2335 -0.6432  0.2135
   43MOL    H7813602   9.797   6.618   4.367 -0.8033  1.2638 -0.7327
   43MOL    H7913603   9.800   6.525   4.506 -1.8416 -0.6065 -0.2299
   43MOL    H8013604   9.561   6.652   4.671 -2.6689  2.1949  0.3801
   43MOL    H8113605   9.324   6.661   4.647 -0.2322  1.1238 -0.8304
   43MOL    C8213606   9.825   6.727   4.546 -0.1528  0.0955 -0.3732
   43MOL    C8313607   9.765   6.868   4.527  0.5091  0.8592 -0.3179
   43MOL    C8413608   9.778   6.940   4.413  0.2582 -0.1537  0.1327
   43MOL    C8513609   9.730   7.066   4.397  0.9611 -0.7403 -0.1954
   43MOL    C8613610   9.657   7.128   4.498 -0.2710 -0.3401 -0.3499
   43MOL    C8713611   9.598   7.267   4.473 -0.2181  0.1152  0.4103
   43MOL    C8813612   9.642   7.056   4.621  0.3499  0.5180 -0.3536
   43MOL    C8913613   9.705   6.929   4.635 -0.6958 -0.0127 -0.7050
   43MOL    H9013614   9.932   6.730   4.527  0.1508  2.2879  1.4678
   43MOL    H9113615   9.813   6.699   4.651  2.0143  2.0416  0.4413
   43MOL    H9213616   9.840   6.898   4.335 -1.3222  0.3724 -1.4461
   43MOL    H9313617   9.756   7.111   4.302 -1.2953  1.1725  0.0427
   43MOL    H9413618   9.670   7.322   4.413  2.8629 -2.3752  1.6865
   43MOL    H9513619   9.588   7.313   4.571 -0.0189  0.1838  0.3985
   43MOL    H9613620   9.601   7.106   4.708 -0.4710  0.0929 -0.4973
   43MOL    H9713621   9.684   6.875   4.726  0.7769  2.9195  1.4595
   43MOL    C9813622   9.453   7.245   4.424 -0.2557  0.3470 -0.2302
   43MOL    C9913623   9.387   7.378   4.418  0.2197  0.1870  0.3672
   43MOL   C10013624   9.260   7.385   4.469 -0.1405  0.1035  0.7187
   43MOL   C10113625   9.183   7.501   4.443  0.4380  0.2846  0.1753
   43MOL   C10213626   9.244   7.622   4.391 -0.2779 -0.4101  0.4865
   43MOL   C10313627   9.158   7.743   4.367  0.0891 -0.5846 -0.2976
   43MOL   C10413628   9.379   7.618   4.358  0.2294  0.1184 -0.7302
   43MOL   C10513629   9.442   7.489   4.356 -0.0721 -0.6053  0.0129
   43MOL   H10613630   9.394   7.172   4.479  0.4814  0.5985  0.9066
   43MOL   H10713631   9.468   7.204   4.324 -1.1835  1.4308 -0.8215
   43MOL   H10813632   9.209   7.295   4.499  0.8012 -0.7223 -0.1637
   43MOL   H10913633   9.081   7.507   4.478  0.4681  0.6341  0.2097
   43MOL   H11013634   9.072   7.741   4.433  0.5453 -0.3693  0.3081
   43MOL   H11113635   9.215   7.831   4.397 -2.3480  0.6912  0.7574
   43MOL   H11213636   9.429   7.702   4.312  1.0953 -0.2115 -0.4039
   43MOL   H11313637   9.544   7.480   4.321 -0.1728  1.7722 -1.0156
   43MOL   C11413638   9.122   7.774   4.218  0.7303  0.0679 -0.5293
   43MOL   C11513639   9.004   7.870   4.190  0.2525 -0.5610 -0.3268
   43MOL   C11613640   8.890   7.883   4.275 -0.5683  0.3732  0.5897
   43MOL   C11713641   8.783   7.955   4.233  0.0065  0.1985  0.0407
   43MOL   C11813642   8.785   8.035   4.116 -0.1731  0.0193 -0.2865
   43MOL   C11913643   8.660   8.121   4.079 -0.2397  0.6653  0.5616
   43MOL   C12013644   8.898   8.030   4.034  0.0345  0.0508  0.3525
   43MOL   C12113645   9.009   7.952   4.072  0.0585  0.1136 -0.6618
   43MOL   H12213646   9.102   7.682   4.163  1.0086  0.7426 -1.7736
   43MOL   H12313647   9.218   7.800   4.174  1.1350  0.5471  0.6199
   43MOL   H12413648   8.890   7.835   4.372 -2.8133 -0.3734  0.2491
   43MOL   H12513649   8.697   7.948   4.297 -0.7438 -2.2051 -1.1729
   43MOL   H12613650   8.571   8.060   4.096  0.2002  0.4609  2.2168
   43MOL   H12713651   8.632   8.194   4.155 -1.0265  0.0071  0.9073
   43MOL   H12813652   8.895   8.073   3.935  1.6742  0.2145  0.3571
   43MOL   H12913653   9.094   7.953   4.007 -0.3820  2.4380 -1.2247
   43MOL   C13013654   8.675   8.188   3.944  0.1968  0.5045 -0.1220
   43MOL   C13113655   8.549   8.265   3.915 -0.2692  0.6591  0.1718
   43MOL   C13213656   8.445   8.204   3.837 -0.0921  0.0463 -0.0018
   43MOL   C13313657   8.331   8.274   3.810 -0.0027 -0.4310 -0.1869
   43MOL   C13413658   8.318   8.401   3.858  0.2297  0.3662  0.2013
   43MOL   C13513659   8.182   8.470   3.842  0.4516  0.1910  0.5266
   43MOL   C13613660   8.424   8.466   3.931  0.0415  0.0069 -0.3107
   43MOL   C13713661   8.545   8.399   3.955  0.2721 -0.4734 -0.3544
   43MOL   H13813662   8.686   8.124   3.856 -1.3619  0.3852 -0.2386
   43MOL   H13913663   8.755   8.262   3.940  1.0854 -0.3891  0.7305
   43MOL   H14013664   8.466   8.109   3.789 -2.0077 -0.4530  0.0969
   43MOL   H14113665   8.249   8.240   3.749 -0.6422  1.3850 -0.3718
   43MOL   H14213666   8.216   8.573   3.837 -0.2194  0.3581 -0.7291
   43MOL   H14313667   8.137   8.452   3.744  0.8224 -0.5318  0.4837
   43MOL   H14413668   8.408   8.564   3.972  0.4415  0.8083 -2.0064
   43MOL   H14513669   8.617   8.451   4.017  0.4297  0.4890 -1.3214
   43MOL   C14613670   8.073   8.433   3.956  0.2590 -0.6251 -0.3809
   43MOL   C14713671   7.934   8.484   3.927  0.1126  0.3869  0.3091
   43MOL   C14813672   7.889   8.606   3.979  0.4096  0.5268 -0.1988
   43MOL   C14913673   7.765   8.668   3.941 -0.5867  0.3199  0.1577
   43MOL   C15013674   7.677   8.600   3.850 -0.4841  0.8409 -0.5644
   43MOL   C15113675   7.552   8.671   3.794 -0.6280 -0.2208  0.0021
   43MOL   C15213676   7.723   8.480   3.794  0.8583 -0.5421 -0.4453
   43MOL   C15313677   7.846   8.418   3.834 -0.6633  0.2166 -0.3469
   43MOL   H15413678   8.113   8.468   4.051 -0.9977 -3.0087  1.0676
   43MOL   H15513679   8.065   8.325   3.962  4.1322 -0.9291  0.6782
   43MOL   H15613680   7.952   8.650   4.054  1.3280  1.1390 -1.3132
   43MOL   H15713681   7.747   8.766   3.981  0.9983  0.3447  0.8434
   43MOL   H15813682   7.562   8.717   3.696 -2.3824 -0.6653 -0.4041
   43MOL   H15913683   7.481   8.589   3.785  0.8488 -1.7310  1.7219
   43MOL   H16013684   7.664   8.444   3.711 -0.6471  0.7798  0.0338
   43MOL   H16113685   7.870   8.330   3.777 -1.0268  0.0595 -0.2640
   43MOL   C16213686   7.491   8.768   3.892  0.0388  0.1571 -0.6633
   43MOL   C16313687   7.359   8.817   3.848  0.4486 -0.6694  0.3570
   43MOL   C16413688   7.340   8.931   3.771  0.0766 -0.2829  0.6306
   43MOL   C16513689   7.217   8.975   3.741  0.5220 -0.8543  0.5340
   43MOL   C16613690   7.103   8.908   3.784 -1.0465  0.7749  0.2240
   43MOL   C16713691   6.962   8.964   3.756 -0.1672 -0.3990 -0.3310
   43MOL   C16813692   7.111   8.789   3.860 -0.3516  0.5254  0.2807
   43MOL   C16913693   7.243   8.750   3.896  0.0319  0.0405  0.5236
   43MOL   H17013694   7.553   8.853   3.921 -1.5531  0.9305  0.5748
   43MOL   H17113695   7.469   8.709   3.981  0.1610 -0.4527 -1.0318
   43MOL   H17213696   7.425   8.984   3.732  0.7454  1.1778  3.9444
   43MOL   H17313697   7.207   9.064   3.681 -0.1206 -2.5420 -1.9496
   43MOL   H17413698   6.959   9.025   3.665 -1.5042  0.2692  0.1476
   43MOL   H17513699   6.887   8.885   3.750  1.5037 -1.8741 -2.6776
   43MOL   H17613700   7.021   8.747   3.903  1.3288 -0.4563  2.9851
   43MOL   H17713701   7.248   8.663   3.959 -1.0352  0.0141  0.5854
   43MOL   C17813702   6.922   9.072   3.854 -0.2650  0.0675 -0.5754
   43MOL   C17913703   6.779   9.121   3.842  0.8251 -0.2423 -0.8534
   43MOL   C18013704   6.747   9.241   3.775 -0.0690 -0.0455 -0.4649
   43MOL   C18113705   6.613   9.274   3.763 -0.2023  0.0574 -0.1145
   43MOL   C18213706   6.512   9.192   3.817 -0.0222 -0.0266  0.1182
   43MOL   C18313707   6.363   9.210   3.785  0.2707  0.3693 -0.4231
   43MOL   C18413708   6.546   9.078   3.890 -0.8787 -0.1854  1.1391
   43MOL   C18513709   6.680   9.040   3.897  0.1497  0.0705 -0.4791
   43MOL   H18613710   6.992   9.151   3.827 -0.9102  1.0988  0.6857
   43MOL   H18713711   6.947   9.049   3.958 -0.3375  2.0204 -0.1029
   43MOL   H18813712   6.824   9.299   3.728 -0.8506  0.9289 -0.5580
   43MOL   H18913713   6.580   9.366   3.717  3.2113  1.2819 -0.2141
   43MOL   H19013714   6.356   9.264   3.691  1.4140 -1.1038 -1.3750
   43MOL   H19113715   6.321   9.111   3.765 -0.5041  0.6889 -0.3880
   43MOL   H19213716   6.472   9.023   3.946 -0.6167 -1.7818 -0.0375
   43MOL   H19313717   6.704   8.957   3.962  0.8590  1.3044  0.8694
   43MOL   C19413718   6.286   9.275   3.899  0.2482 -0.1024 -0.7269
   43MOL   C19513719   6.137   9.302   3.883 -0.2651 -0.3888  0.2486
   43MOL   C19613720   6.089   9.384   3.781 -0.8745 -0.4716 -0.0760
   43MOL   C19713721   5.960   9.419   3.770 -0.3660  0.5448  0.3334
   43MOL   C19813722   5.859   9.371   3.856 -0.7555  0.1862  0.8093
   43MOL   C19913723   5.712   9.404   3.836 -0.3194 -0.0708 -0.0599
   43MOL   C20013724   5.900   9.284   3.960  1.1604 -0.3513  0.0358
   43MOL   C20113725   6.041   9.249   3.970  0.2527 -0.1264 -0.0738
   43MOL   H20213726   6.334   9.364   3.941 -0.5262  1.0698 -2.2653
   43MOL   H20313727   6.308   9.210   3.984 -2.7446 -0.5155 -0.2287
   43MOL   H20413728   6.152   9.429   3.705 -3.2502  2.0308 -0.6704
   43MOL   H20513729   5.930   9.488   3.693 -0.9743  0.3377  0.3776
   43MOL   H20613730   5.695   9.437   3.734  1.3587 -0.7102 -0.5707
   43MOL   H20713731   5.651   9.315   3.853 -0.7630 -0.4262 -3.1554
   43MOL   H20813732   5.826   9.251   4.030  1.0294 -0.3145 -0.0855
   43MOL   H20913733   6.066   9.190   4.057  2.5263 -0.7570 -1.1209
   43MOL   C21013734   5.668   9.513   3.940 -1.5538 -0.7077 -0.7599
   43MOL   C21113735   5.518   9.547   3.934  0.2472 -0.1698  0.5216
   43MOL   C21213736   5.430   9.498   4.032  0.0883 -0.3836 -0.2143
   43MOL   C21313737   5.294   9.531   4.029 -0.3346 -0.2282 -0.4476
   43MOL   C21413738   5.243   9.610   3.925  0.1850  0.0837  0.1505
   43MOL   C21513739   5.092   9.627   3.919 -0.1071 -0.3871 -0.4524
   43MOL   C21613740   5.329   9.666   3.830  0.3106 -0.6427  1.0116
   43MOL   C21713741   5.466   9.634   3.834  0.2922  0.8082 -0.4544
   43MOL   H21813742   5.728   9.600   3.915 -0.1629 -0.1278  4.1351
   43MOL   H21913743   5.686   9.480   4.042  1.5514  1.3798 -0.5804
   43MOL   H22013744   5.456   9.431   4.113  1.7283 -0.4186 -0.7613
   43MOL   H22113745   5.235   9.472   4.098  1.4229 -1.3071  0.1730
   43MOL   H22213746   5.047   9.574   3.835 -2.4784  1.1785 -0.2329
   43MOL   H22313747   5.052   9.593   4.015 -0.7199  0.1088 -0.5294
   43MOL   H22413748   5.293   9.739   3.759  0.1324 -1.5394  0.1781
   43MOL   H22513749   5.536   9.669   3.760  0.7553  0.2834 -0.2670
   43MOL   C22613750   5.048   9.780   3.917 -0.2274 -0.3684  0.6444
   43MOL   C22713751   4.897   9.794   3.934  0.5210  0.1410 -0.2818
   43MOL   C22813752   4.826   9.830   3.819 -0.1753 -0.2174  0.3149
   43MOL   C22913753   4.688   9.854   3.835 -0.2101  0.2504 -0.3563
   43MOL   C23013754   4.619   9.841   3.958  0.0340 -0.2016 -0.0193
   43MOL   C23113755   4.468   9.850   3.967  0.9144  0.5062 -0.1687
   43MOL   C23213756   4.697   9.808   4.070  0.3873  0.3161  0.3600
   43MOL   C23313757   4.834   9.789   4.062 -0.5414  0.3652  1.2378
   43MOL   H23413758   5.071   9.828   3.822  0.5696  0.9565  1.4894
   43MOL   H23513759   5.090   9.844   3.994  0.0849  2.7377 -2.0161
   43MOL   H23613760   4.878   9.841   3.725  0.9895  0.2639  0.9970
   43MOL   H23713761   4.626   9.866   3.747 -1.4486 -1.7938  0.1892
   43MOL   H23813762   4.433   9.801   3.876 -0.2709 -0.4375  0.7807
   43MOL   H23913763   4.432   9.788   4.049  2.6237  0.5357  0.6151
   43MOL   H24013764   4.647   9.784   4.163  1.3463 -1.2630  0.4781
   43MOL   H24113765   4.889   9.778   4.154 -1.1006  1.4419  1.7099
   43MOL   C24213766   4.432   9.992   3.994 -0.0415 -0.3517  0.4459
   43MOL   C24313767   4.282  10.021   4.009  0.2930  0.1032 -0.5528
   43MOL   C24413768   4.208  10.072   3.901 -0.4574  0.9266 -0.1040
   43MOL   C24513769   4.070  10.091   3.912 -0.6257 -0.0824  0.6143
   43MOL   C24613770   4.006  10.059   4.034  0.0894  0.2775 -0.1404
   43MOL   C24713771   3.857  10.078   4.045 -0.6876 -0.1932  0.4108
   43MOL   C24813772   4.083  10.003   4.137  0.3609 -0.1325 -0.0278
   43MOL   C24913773   4.219   9.990   4.127 -0.1261 -0.1796  0.7107
   43MOL   H25013774   4.480  10.032   4.083 -1.0359 -2.9705  2.2166
   43MOL   H25113775   4.465  10.050   3.908 -1.7533 -0.9634 -0.6569
   43MOL   H25213776   4.260  10.089   3.807 -0.1405  0.9929  0.0812
   43MOL   H25313777   4.015  10.114   3.821  0.6732  2.0158  0.3215
   43MOL   H25413778   3.818  10.030   3.955  0.7916 -2.2002  0.7920
   43MOL   H25513779   3.819  10.023   4.130 -2.3912 -1.5623 -1.1834
   43MOL   H25613780   4.024   9.967   4.220 -1.7848  1.9413 -0.5846
   43MOL   H25713781   4.275   9.958   4.213 -0.0231 -1.7514  0.0640
   43MOL   C25813782   3.825  10.228   4.049 -0.7040  0.1095 -0.1755
   43MOL   C25913783   3.680  10.252   4.043 -0.1012 -0.2328 -0.3970
   43MOL   C26013784   3.616  10.287   3.926 -0.1974  0.2874  0.1859
   43MOL   C26113785   3.478  10.320   3.931  0.2413 -0.0303  0.7049
   43MOL   C26213786   3.404  10.294   4.049  0.1663  0.1616  0.0753
   43MOL   C26313787   3.251  10.310   4.054  0.3000 -0.5737  0.1813
   43MOL   C26413788   3.470  10.236   4.161 -0.8800 -0.3266  0.2162
   43MOL   C26513789   3.613  10.223   4.163  0.0824 -0.2448  0.0884
   43MOL   H26613790   3.877  10.295   3.981  2.2652 -0.5890  1.3367
   43MOL   H26713791   3.856  10.265   4.147 -0.3836 -0.5756 -0.0199
   43MOL   H26813792   3.682  10.294   3.840  0.5133 -0.2437  0.6870
   43MOL   H26913793   3.438  10.357   3.838 -2.6563 -2.0630  1.0612
   43MOL   H27013794   3.220  10.375   3.972  3.0236 -0.5163 -0.8670
   43MOL   H27113795   3.203  10.217   4.022  0.1741 -0.5168  0.2051
   43MOL   H27213796   3.411  10.204   4.246  1.3538  2.5363  2.9516
   43MOL   H27313797   3.660  10.188   4.253 -0.4475 -1.3584 -0.0678
   43MOL   C27413798   3.186  10.361   4.184 -0.1553 -0.8925  0.3315
   43MOL   C27513799   3.035  10.369   4.176 -0.6733  0.0870  0.4372
   43MOL   C27613800   2.950  10.253   4.163 -0.4773  0.8266 -0.0190
   43MOL   C27713801   2.809  10.270   4.166 -0.0921  0.1063 -0.4751
   43MOL   C27813802   2.752  10.405   4.164  0.3665 -0.3030  0.7886
   43MOL   C27913803   2.602  10.423   4.154  0.4419  0.1842 -0.6131
   43MOL   C28013804   2.839  10.514   4.176 -0.1566  0.3341  0.4235
   43MOL   C28113805   2.974  10.495   4.182  0.1469  0.2971  0.3820
   43MOL   H28213806   3.205  10.291   4.265  2.2727  0.0022  0.5863
   43MOL   H28313807   3.237  10.451   4.218  2.7146 -2.4548  0.2924
   43MOL   H28413808   2.995  10.156   4.152  0.8356  1.3414  0.6475
   43MOL   H28513809   2.736  10.191   4.159 -0.7491  0.6802 -0.1781
   43MOL   H28613810   2.582  10.530   4.155  0.5988  0.2047  1.9652
   43MOL   H28713811   2.560  10.378   4.064  0.1103 -1.3641  0.3055
   43MOL   H28813812   2.795  10.613   4.171 -1.2104 -0.1480  0.2426
   43MOL   H28913813   3.036  10.582   4.191  0.1752  0.1203  1.9433
   43MOL   C29013814   2.523  10.367   4.275 -0.8101  0.4582 -0.6915
   43MOL   C29113815   2.373  10.377   4.274  0.1911 -0.2672 -0.3467
   43MOL   C29213816   2.292  10.263   4.272  0.1028  0.0147  0.3800
   43MOL   C29313817   2.152  10.272   4.270  0.0070 -0.7838  0.3859
   43MOL   C29413818   2.089  10.401   4.277 -0.1754  0.5138 -0.3508
   43MOL   C29513819   1.945  10.419   4.272 -0.2143  0.6972 -0.1184
   43MOL   C29613820   2.170  10.512   4.284 -0.3194  0.5995 -0.0665
   43MOL   C29713821   2.312  10.500   4.291  0.5359 -0.2199  0.0885
   43MOL   H29813822   2.562  10.415   4.365  0.0549 -0.4471 -0.5716
   43MOL   H29913823   2.551  10.262   4.287  1.4337  1.1011  0.1272
   43MOL   H30013824   2.338  10.166   4.260 -0.2227 -0.0275 -0.6066
   43MOL   H30113825   2.099  10.183   4.239 -1.5284  0.0268  0.6147
   43MOL   H30213826   1.918  10.521   4.247  1.3307  0.5835 -2.3934
   43MOL   H30313827   1.905  10.357   4.192  1.0624  0.4774 -0.6090
   43MOL   H30413828   2.127  10.610   4.298  3.8805  2.4551  0.6962
   43MOL   H30513829   2.376  10.588   4.291  1.2578 -0.7315  0.9558
   43MOL   C30613830   1.894  10.387   4.412 -0.4297 -0.0243 -0.4006
   43MOL   C30713831   1.744  10.382   4.436  0.3050  0.1393 -0.2382
   43MOL   C30813832   1.682  10.458   4.538  0.4689 -0.1261 -0.2489
   43MOL   C30913833   1.544  10.443   4.565 -0.0914 -0.0354  0.6682
   43MOL   C31013834   1.465  10.358   4.482 -1.0752  0.0374  0.3045
   43MOL   C31113835   1.322  10.335   4.524  0.0758  0.0383 -0.0907
   43MOL   C31213836   1.526  10.295   4.375 -0.4509  0.2945  0.0108
   43MOL   C31313837   1.665  10.302   4.353 -0.1128  0.2050 -0.0718
   43MOL   H31413838   1.940  10.455   4.483 -0.0772  0.2196 -0.8624
   43MOL   H31513839   1.922  10.285   4.437 -2.4837 -0.3719  0.5454
   43MOL   H31613840   1.736  10.513   4.614 -2.1196  0.9404  0.8565
   43MOL   H31713841   1.504  10.488   4.654 -1.8005 -0.2597  0.0447
   43MOL   H31813842   1.289  10.250   4.463 -0.9237  0.2615  0.1242
   43MOL   H31913843   1.327  10.319   4.631  2.3568  0.3287 -0.1388
   43MOL   H32013844   1.467  10.233   4.309 -0.4877  0.8630 -0.4865
   43MOL   H32113845   1.701  10.242   4.271 -0.2010 -1.6001  1.1889
   43MOL   H32213846   1.258  10.422   4.508  0.4193  0.2863 -0.1203
   44MOL     C113847   7.110   0.040   1.801  0.0270 -0.0057  0.7887
   44MOL     C213848   7.250  -0.019   1.811  0.0611  0.2459 -0.0359
   44MOL     C313849   7.326  -0.025   1.926 -0.7027  0.6057 -0.3281
   44MOL     C413850   7.458  -0.072   1.926 -0.3038  0.3644  0.0525
   44MOL     C513851   7.511  -0.136   1.809  0.3000 -0.3737 -0.5864
   44MOL     C613852   7.655  -0.187   1.809  0.2277 -0.0600  0.8484
   44MOL     C713853   7.433  -0.127   1.688  0.0217  0.1126 -0.9387
   44MOL     C813854   7.308  -0.069   1.695  0.4724 -0.2085  0.3813
   44MOL     H913855   7.074   0.005   1.704  1.0197 -2.2166  1.1776
   44MOL    H1013856   7.046   0.007   1.883 -0.5092 -1.8327 -0.3360
   44MOL    H1113857   7.290   0.022   2.016  0.1222 -0.1215  0.3844
   44MOL    H1213858   7.511  -0.055   2.018  3.2846 -1.7919 -1.5113
   44MOL    H1313859   7.687  -0.226   1.906  1.7380  0.8223  0.7167
   44MOL    H1413860   7.662  -0.282   1.756  0.8526  0.6255 -0.3054
   44MOL    H1513861   7.466  -0.164   1.592 -1.2228 -0.6973 -1.0653
   44MOL    H1613862   7.270  -0.053   1.595  0.2952 -0.1583  0.4564
   44MOL    H1713863   7.115   0.147   1.782 -1.9231 -0.4715 -2.7650
   44MOL    C1813864   7.756  -0.082   1.750  0.3644 -0.6444  0.1747
   44MOL    C1913865   7.900  -0.125   1.731  0.8451  0.5144  0.2487
   44MOL    C2013866   7.938  -0.255   1.690 -0.2177 -0.4822  0.5690
   44MOL    C2113867   8.074  -0.300   1.691  0.2350  0.0379  0.0953
   44MOL    C2213868   8.171  -0.208   1.737  0.3090  0.3210 -0.4092
   44MOL    C2313869   8.312  -0.237   1.702  0.3969 -0.3757  0.8302
   44MOL    C2413870   8.135  -0.078   1.776  0.3319 -0.0349  0.4314
   44MOL    C2513871   8.001  -0.032   1.765 -0.4215  0.6334 -0.6867
   44MOL    H2613872   7.712  -0.061   1.653  0.8049  0.5108  0.2213
   44MOL    H2713873   7.756   0.016   1.797  0.3919 -1.5150  2.0630
   44MOL    H2813874   7.857  -0.314   1.650  2.0629 -1.1873 -3.3870
   44MOL    H2913875   8.101  -0.397   1.652 -1.4891 -0.4862  0.1278
   44MOL    H3013876   8.380  -0.155   1.721  0.1787  0.1691 -0.7174
   44MOL    H3113877   8.318  -0.256   1.595  0.6893 -2.0929  1.1320
   44MOL    H3213878   8.212  -0.007   1.803  1.1936 -0.6089 -0.4977
   44MOL    H3313879   7.978   0.069   1.795  2.4806  0.4235  2.4985
   44MOL    C3413880   8.372  -0.355   1.782  0.0485  0.4978 -0.6428
   44MOL    C3513881   8.514  -0.395   1.749  0.0113  0.9046  0.0567
   44MOL    C3613882   8.545  -0.475   1.632 -0.0156 -0.1818  0.4934
   44MOL    C3713883   8.675  -0.496   1.599 -0.4430  0.2341 -1.0911
   44MOL    C3813884   8.780  -0.464   1.686  0.3056  0.4046  0.1850
   44MOL    C3913885   8.923  -0.506   1.652  0.8474  0.5238 -0.4658
   44MOL    C4013886   8.750  -0.401   1.810 -0.2630  0.1910 -0.6411
   44MOL    C4113887   8.618  -0.358   1.837 -1.0879  0.7246 -0.0030
   44MOL    H4213888   8.309  -0.440   1.753  0.8684 -0.1077 -0.6562
   44MOL    H4313889   8.368  -0.351   1.891  1.2688 -0.0857 -0.5664
   44MOL    H4413890   8.467  -0.513   1.569 -1.1459  1.2790  0.9723
   44MOL    H4513891   8.699  -0.540   1.503  0.4881  0.2905 -0.8881
   44MOL    H4613892   8.928  -0.496   1.543  2.2181 -1.4163 -0.6063
   44MOL    H4713893   8.983  -0.429   1.700  1.3382  0.1444 -0.4660
   44MOL    H4813894   8.833  -0.378   1.874 -1.9185 -0.6458  1.9042
   44MOL    H4913895   8.591  -0.307   1.929 -0.8172  4.5220 -1.9287
   44MOL    C5013896   8.970  -0.642   1.713  0.3342  0.3751 -0.2639
   44MOL    C5113897   9.111  -0.658   1.676 -0.2105  0.0398  0.3140
   44MOL    C5213898   9.148  -0.692   1.545 -0.0066  0.5149 -0.2107
   44MOL    C5313899   9.269  -0.751   1.518  0.8564  0.0858 -0.0835
   44MOL    C5413900   9.370  -0.765   1.617  0.1445  0.3573  0.1403
   44MOL    C5513901   9.504  -0.813   1.584  0.2490  0.4835 -0.0454
   44MOL    C5613902   9.331  -0.730   1.748  0.3752  0.1749  0.1599
   44MOL    C5713903   9.204  -0.672   1.772  0.3881 -0.5061  0.3175
   44MOL    H5813904   8.905  -0.724   1.686 -2.0772  0.9800  3.4465
   44MOL    H5913905   8.952  -0.639   1.820 -1.6879  1.6841 -0.6193
   44MOL    H6013906   9.076  -0.676   1.466 -2.3984 -2.6893  1.1779
   44MOL    H6113907   9.295  -0.788   1.420  0.1302  0.5040 -0.4401
   44MOL    H6213908   9.519  -0.910   1.632  1.9020 -0.8196 -2.9945
   44MOL    H6313909   9.514  -0.817   1.475  0.9920 -0.6433  0.0415
   44MOL    H6413910   9.388  -0.740   1.839  2.0210 -1.1136 -0.9832
   44MOL    H6513911   9.181  -0.639   1.873 -1.2234  0.9611 -0.5001
   44MOL    C6613912   9.618  -0.718   1.626 -0.0604  0.6345 -0.5763
   44MOL    C6713913   9.755  -0.781   1.610 -0.1566 -0.3987 -0.1968
   44MOL    C6813914   9.806  -0.777   1.481 -0.3369 -0.3134  0.0245
   44MOL    C6913915   9.929  -0.841   1.447  0.6552  0.4928  0.4388
   44MOL    C7013916   9.988  -0.920   1.541  0.1102  0.2553 -0.2377
   44MOL    C7113917  10.112  -0.997   1.523  0.2376 -0.3500  0.0004
   44MOL    C7213918   9.947  -0.917   1.678 -0.3430 -0.7348  0.3935
   44MOL    C7313919   9.823  -0.852   1.716  0.6167  0.0559 -0.8971
   44MOL    H7413920   9.599  -0.703   1.732 -3.0069 -1.1067 -0.8047
   44MOL    H7513921   9.613  -0.619   1.581  0.9819  0.4390 -1.1371
   44MOL    H7613922   9.754  -0.721   1.404 -0.3033 -1.3941 -0.8038
   44MOL    H7713923   9.975  -0.838   1.350  0.6233  0.1580  0.4110
   44MOL    H7813924  10.116  -1.035   1.420  0.1738 -3.2086  1.0018
   44MOL    H7913925  10.100  -1.083   1.588  2.6004 -0.7555 -0.0808
   44MOL    H8013926  10.005  -0.969   1.752  0.6982 -1.0339 -0.6085
   44MOL    H8113927   9.777  -0.854   1.814 -2.1720  1.7765 -2.1097
   44MOL    C8213928  10.236  -0.906   1.534  0.1351  0.1464 -0.5786
   44MOL    C8313929  10.371  -0.974   1.546  0.3429 -0.3258  0.8718
   44MOL    C8413930  10.411  -1.057   1.653  0.0480 -0.2187  0.3023
   44MOL    C8513931  10.537  -1.121   1.652  0.0032 -0.2661  0.0363
   44MOL    C8613932  10.623  -1.100   1.548 -0.5936 -0.0481  0.2942
   44MOL    C8713933  10.748  -1.183   1.530 -0.5955 -0.9600 -0.0979
   44MOL    C8813934  10.590  -1.014   1.443  0.2914  0.3464 -0.6400
   44MOL    C8913935  10.468  -0.944   1.448 -0.2114 -0.1999  0.3286
   44MOL    H9013936  10.236  -0.861   1.634 -0.4896 -2.2517  0.5387
   44MOL    H9113937  10.232  -0.827   1.460  0.1340  0.9235  0.2383
   44MOL    H9213938  10.327  -1.072   1.719 -0.2124  3.3206  0.8999
   44MOL    H9313939  10.568  -1.195   1.725 -1.1528  0.4107  1.2448
   44MOL    H9413940  10.764  -1.216   1.427 -1.3110 -0.8231 -0.2614
   44MOL    H9513941  10.741  -1.274   1.590  0.1649 -0.1261  1.2675
   44MOL    H9613942  10.653  -0.988   1.359  1.5147  0.5807  0.3446
   44MOL    H9713943  10.435  -0.872   1.375 -1.9355 -0.8662  0.4065
   44MOL    C9813944  10.880  -1.112   1.576  0.1431  0.1262  0.5057
   44MOL    C9913945  11.007  -1.185   1.553  0.0788 -0.6696 -0.2491
   44MOL   C10013946  11.086  -1.151   1.449  0.5759 -1.0217 -0.7948
   44MOL   C10113947  11.201  -1.225   1.422  0.0271  0.6389  0.8541
   44MOL   C10213948  11.241  -1.326   1.509 -0.2098  0.2172  0.3638
   44MOL   C10313949  11.380  -1.386   1.496  0.0205 -0.4736 -0.1867
   44MOL   C10413950  11.157  -1.363   1.612  0.8761 -0.5026  0.0502
   44MOL   C10513951  11.034  -1.292   1.638  0.8384  0.2973 -0.0848
   44MOL   H10613952  10.871  -1.098   1.684 -1.6499 -0.3556  0.4368
   44MOL   H10713953  10.884  -1.010   1.537  0.2260  0.1053  0.4583
   44MOL   H10813954  11.064  -1.069   1.383 -2.8622 -0.6972  0.6626
   44MOL   H10913955  11.273  -1.199   1.346 -1.4778 -0.1940 -0.8948
   44MOL   H11013956  11.375  -1.494   1.513  2.2475 -0.3681  1.4123
   44MOL   H11113957  11.416  -1.380   1.393 -0.9139  2.7186 -0.3734
   44MOL   H11213958  11.193  -1.433   1.686  0.4511  0.0429  0.7795
   44MOL   H11313959  10.973  -1.313   1.724  0.1764  0.8461 -0.4227
   44MOL   C11413960  11.479  -1.327   1.601 -0.3150 -0.1498  0.0968
   44MOL   C11513961  11.603  -1.422   1.608 -0.1801 -0.3059  0.2782
   44MOL   C11613962  11.617  -1.513   1.713  0.3316 -0.3347 -0.6247
   44MOL   C11713963  11.724  -1.601   1.712 -0.1771  0.1551 -0.4023
   44MOL   C11813964  11.822  -1.605   1.612  0.4413  0.1576 -0.1783
   44MOL   C11913965  11.939  -1.704   1.615 -0.1224 -0.3819  0.4116
   44MOL   C12013966  11.811  -1.512   1.508 -0.1995 -0.6154 -0.1915
   44MOL   C12113967  11.701  -1.423   1.502 -0.4487  0.6486  0.3227
   44MOL   H12213968  11.431  -1.321   1.699 -0.0159 -1.0462  0.3101
   44MOL   H12313969  11.504  -1.224   1.578 -2.0616  0.6975  1.8819
   44MOL   H12413970  11.555  -1.517   1.801  1.1625  0.2247 -0.0046
   44MOL   H12513971  11.728  -1.677   1.788 -0.5117  1.0373  0.5163
   44MOL   H12613972  11.910  -1.787   1.679 -0.7783 -1.7058 -1.5604
   44MOL   H12713973  11.955  -1.740   1.513  0.7100  2.0008 -0.3342
   44MOL   H12813974  11.891  -1.515   1.435  0.1699  0.2233  0.1693
   44MOL   H12913975  11.694  -1.353   1.420 -0.0220  0.5222  0.1749
   44MOL   C13013976  12.068  -1.630   1.640 -0.4636  0.3899 -0.3792
   44MOL   C13113977  12.194  -1.714   1.633 -1.1037  0.4493 -0.6431
   44MOL   C13213978  12.291  -1.692   1.540 -0.2423 -0.2674  0.6381
   44MOL   C13313979  12.405  -1.775   1.538  0.3696  0.1931  0.2601
   44MOL   C13413980  12.417  -1.886   1.623 -0.1078 -0.4961  0.4822
   44MOL   C13513981  12.543  -1.974   1.616 -0.4366  0.7749  0.6948
   44MOL   C13613982  12.318  -1.909   1.718 -1.0059  0.3232  0.0225
   44MOL   C13713983  12.206  -1.820   1.732 -0.3891  0.8137 -0.0005
   44MOL   H13813984  12.061  -1.570   1.731 -2.2325  1.3906 -1.1521
   44MOL   H13913985  12.087  -1.552   1.566 -0.3117 -0.0496 -0.8032
   44MOL   H14013986  12.268  -1.618   1.465  0.9434  0.3362  0.8661
   44MOL   H14113987  12.486  -1.754   1.470  0.4485 -0.3791  0.1730
   44MOL   H14213988  12.505  -2.072   1.642  1.1778 -0.3680 -1.0726
   44MOL   H14313989  12.581  -1.978   1.513 -1.0855  0.5588  0.4643
   44MOL   H14413990  12.336  -1.985   1.792  0.7265  0.5461 -0.1504
   44MOL   H14513991  12.133  -1.832   1.810  0.8966  0.1277  1.1298
   44MOL   C14613992  12.655  -1.930   1.705  0.1235  0.4494  0.3264
   44MOL   C14713993  12.783  -2.016   1.693  0.6868  0.5853 -0.8910
   44MOL   C14813994  12.784  -2.139   1.755  0.3619  0.5635 -0.8003
   44MOL   C14913995  12.899  -2.216   1.749 -0.7023  0.3460  1.0405
   44MOL   C15013996  13.008  -2.181   1.666  0.3595  0.1958  0.3026
   44MOL   C15113997  13.130  -2.276   1.673 -0.5969  0.0170 -0.6928
   44MOL   C15213998  13.012  -2.059   1.602 -0.3914 -0.0900  0.0310
   44MOL   C15313999  12.904  -1.968   1.628  0.0920 -0.2412  0.1523
   44MOL   H15414000  12.621  -1.934   1.808 -0.1811  1.4345  0.2724
   44MOL   H15514001  12.687  -1.830   1.674 -1.0013  0.6316 -0.2675
   44MOL   H15614002  12.709  -2.158   1.830  1.0077 -0.1859 -0.3251
   44MOL   H15714003  12.900  -2.308   1.806  1.0917 -2.0047 -2.5859
   44MOL   H15814004  13.109  -2.369   1.725 -0.2369  0.5801  0.4705
   44MOL   H15914005  13.161  -2.305   1.572 -2.0720 -3.0527 -0.3302
   44MOL   H16014006  13.105  -2.023   1.561  0.2651 -1.7802  0.0131
   44MOL   H16114007  12.901  -1.874   1.574  0.1081  0.2735  1.0481
   44MOL   C16214008  13.254  -2.217   1.738 -0.4698  0.0283  0.5008
   44MOL   C16314009  13.373  -2.318   1.720 -0.4049 -0.0000  0.9115
   44MOL   C16414010  13.485  -2.294   1.633  0.1967 -0.1445  0.3997
   44MOL   C16514011  13.594  -2.385   1.633  0.2261 -0.0648 -0.2191
   44MOL   C16614012  13.592  -2.499   1.721  0.4671  0.3710 -0.0313
   44MOL   C16714013  13.706  -2.598   1.714  0.1095  0.6770  0.1671
   44MOL   C16814014  13.489  -2.509   1.813 -0.2663 -0.5526 -0.0390
   44MOL   C16914015  13.378  -2.428   1.805  0.1421  0.0252  0.2245
   44MOL   H17014016  13.239  -2.202   1.845 -1.8824  0.0678  0.3122
   44MOL   H17114017  13.275  -2.116   1.703 -2.1889  0.4178  0.5193
   44MOL   H17214018  13.487  -2.221   1.554 -2.0998 -0.1448  0.3002
   44MOL   H17314019  13.668  -2.376   1.555  2.8267  1.3606  2.3471
   44MOL   H17414020  13.666  -2.685   1.767 -0.8225  0.3964 -0.9681
   44MOL   H17514021  13.708  -2.623   1.608  0.7589 -1.2556  0.6086
   44MOL   H17614022  13.489  -2.587   1.887  1.6733  1.3544  2.0408
   44MOL   H17714023  13.304  -2.436   1.883 -0.4542  0.1449 -0.3271
   44MOL   C17814024  13.832  -2.543   1.776  0.3956  0.2731 -0.5141
   44MOL   C17914025  13.956  -2.624   1.745 -0.5408 -0.2753 -0.0311
   44MOL   C18014026  14.001  -2.725   1.830  0.7308  0.3175  0.4852
   44MOL   C18114027  14.126  -2.792   1.803 -0.3865  0.0245  0.2124
   44MOL   C18214028  14.203  -2.754   1.690  0.3704 -0.1069  0.0438
   44MOL   C18314029  14.320  -2.841   1.651 -0.3599  0.1640  0.5956
   44MOL   C18414030  14.169  -2.638   1.617  0.1745  0.7419  0.7086
   44MOL   C18514031  14.043  -2.578   1.641  0.2024 -0.5358 -0.6891
   44MOL   H18614032  13.807  -2.529   1.881  2.0713  0.7893 -0.1622
   44MOL   H18714033  13.846  -2.446   1.729 -1.3148  0.7832  0.0178
   44MOL   H18814034  13.939  -2.757   1.912 -1.7602 -0.4657 -1.6090
   44MOL   H18914035  14.155  -2.875   1.866 -0.5492  0.0696  0.3453
   44MOL   H19014036  14.407  -2.825   1.714 -0.3984 -1.3408  1.0504
   44MOL   H19114037  14.279  -2.940   1.668 -1.7337  0.1711 -2.3481
   44MOL   H19214038  14.238  -2.597   1.544 -0.1046  0.9667  0.5724
   44MOL   H19314039  14.003  -2.498   1.580  2.3239  0.8641 -0.3193
   44MOL   C19414040  14.349  -2.837   1.504 -0.4044  0.5963  0.2872
   44MOL   C19514041  14.458  -2.940   1.480 -0.5493 -0.2080  0.3268
   44MOL   C19614042  14.597  -2.905   1.483  0.4429  0.2733 -0.0202
   44MOL   C19714043  14.684  -3.008   1.447  0.1168 -0.3188 -0.3671
   44MOL   C19814044  14.645  -3.138   1.418  0.6794 -0.5007 -0.2841
   44MOL   C19914045  14.743  -3.242   1.371 -0.5598  0.3608  0.2808
   44MOL   C20014046  14.504  -3.164   1.412  0.8535 -0.2650 -0.0719
   44MOL   C20114047  14.413  -3.067   1.439 -0.5212 -1.1260  0.2985
   44MOL   H20214048  14.397  -2.743   1.475 -0.0724  0.0610 -0.8747
   44MOL   H20314049  14.264  -2.860   1.439 -0.1062  2.0830 -0.6637
   44MOL   H20414050  14.631  -2.805   1.508 -1.6714  1.0213 -0.0058
   44MOL   H20514051  14.789  -2.983   1.439 -0.2464  1.5772  0.4917
   44MOL   H20614052  14.696  -3.303   1.294 -0.1186  2.6443 -1.8823
   44MOL   H20714053  14.823  -3.197   1.312 -0.1881 -0.4390  0.1673
   44MOL   H20814054  14.480  -3.268   1.392 -1.2500  0.5626 -2.1541
   44MOL   H20914055  14.308  -3.088   1.424 -0.9542  1.3124 -0.4774
   44MOL   C21014056  14.806  -3.315   1.488 -0.4148 -0.1954 -0.4302
   44MOL   C21114057  14.914  -3.411   1.458 -0.3303  0.4654 -0.4409
   44MOL   C21214058  15.036  -3.402   1.531 -0.0274 -0.3481 -0.0690
   44MOL   C21314059  15.137  -3.492   1.505 -0.1535  1.0618  0.2696
   44MOL   C21414060  15.118  -3.604   1.417 -0.1076 -0.0533 -0.1862
   44MOL   C21514061  15.231  -3.701   1.398  0.2781  0.2462 -0.4002
   44MOL   C21614062  14.993  -3.623   1.356 -0.2244 -0.7195  0.2156
   44MOL   C21714063  14.901  -3.517   1.368  0.1306 -0.1142  0.4117
   44MOL   H21814064  14.735  -3.376   1.545 -0.2615  1.8448  2.0483
   44MOL   H21914065  14.851  -3.244   1.558 -0.3399 -0.9448  0.2908
   44MOL   H22014066  15.038  -3.328   1.610 -1.0024 -0.9999  0.5698
   44MOL   H22114067  15.228  -3.471   1.559  0.7298  0.2756 -0.8915
   44MOL   H22214068  15.303  -3.714   1.478  0.6737  1.7610 -0.4913
   44MOL   H22314069  15.193  -3.802   1.383 -1.7305  0.9057  0.0419
   44MOL   H22414070  14.982  -3.703   1.285 -0.2646  1.3170 -2.1267
   44MOL   H22514071  14.817  -3.528   1.301  0.6300 -0.2705 -0.1803
   44MOL   C22614072  15.314  -3.669   1.275 -0.3460 -0.0483  0.1606
   44MOL   C22714073  15.445  -3.749   1.257  0.1770 -0.5440 -0.1466
   44MOL   C22814074  15.563  -3.708   1.328 -0.3395  0.9277  0.2627
   44MOL   C22914075  15.685  -3.777   1.315 -0.0391 -0.5284 -0.7360
   44MOL   C23014076  15.693  -3.890   1.228 -0.3345  0.9132  0.1865
   44MOL   C23114077  15.816  -3.969   1.216  0.5067 -0.2657 -0.1468
   44MOL   C23214078  15.580  -3.922   1.149  0.3915  0.1616  0.2325
   44MOL   C23314079  15.458  -3.854   1.172  0.5729  0.7554 -0.3193
   44MOL   H23414080  15.343  -3.564   1.274 -0.6950  0.0638  1.1198
   44MOL   H23514081  15.251  -3.676   1.186  0.6068  3.3754 -0.8678
   44MOL   H23614082  15.542  -3.635   1.405 -0.1113 -0.4068  1.6042
   44MOL   H23714083  15.760  -3.735   1.380 -2.4479  2.1772  0.4063
   44MOL   H23814084  15.869  -3.985   1.310 -1.7683  0.8058  1.3403
   44MOL   H23914085  15.779  -4.064   1.177  0.4849 -0.4754  0.3840
   44MOL   H24014086  15.572  -4.011   1.088 -1.9863  0.6320 -0.1877
   44MOL   H24114087  15.371  -3.889   1.120 -0.2776  0.0617  1.5065
   44MOL   C24214088  15.917  -3.915   1.113  0.4045  0.2911  0.0872
   44MOL   C24314089  16.051  -3.987   1.106 -0.5433 -0.3417 -0.1893
   44MOL   C24414090  16.081  -4.064   0.993  0.2991  0.2357 -0.2994
   44MOL   C24514091  16.203  -4.135   0.991  0.4102  0.1127  0.3710
   44MOL   C24614092  16.285  -4.143   1.106  0.5458  0.0792 -0.3843
   44MOL   C24714093  16.409  -4.224   1.104  0.3590  0.1873 -0.0653
   44MOL   C24814094  16.246  -4.081   1.227 -0.3543 -0.1259 -0.1595
   44MOL   C24914095  16.132  -3.999   1.223 -0.5113 -0.4173 -0.3299
   44MOL   H25014096  15.873  -3.915   1.013  1.0854 -1.6371 -0.2193
   44MOL   H25114097  15.947  -3.814   1.142 -0.1451  0.2717  0.7285
   44MOL   H25214098  16.018  -4.073   0.906  1.0026  2.5998 -1.1069
   44MOL   H25314099  16.226  -4.198   0.907 -1.7074  1.2969 -1.1461
   44MOL   H25414100  16.458  -4.204   1.200 -2.2443 -0.0829  1.3575
   44MOL   H25514101  16.379  -4.329   1.110  0.9129  0.1224  2.0939
   44MOL   H25614102  16.313  -4.090   1.311 -1.6038 -2.7303  0.6132
   44MOL   H25714103  16.111  -3.939   1.310 -3.1734 -1.0104 -0.5222
   44MOL   C25814104  16.507  -4.188   0.986 -0.1526 -0.4063 -0.4534
   44MOL   C25914105  16.642  -4.257   0.993 -0.6585 -0.3169  0.0578
   44MOL   C26014106  16.720  -4.270   0.872 -0.5206  0.3961 -0.2514
   44MOL   C26114107  16.845  -4.335   0.868 -0.0162  1.2351  0.8703
   44MOL   C26214108  16.882  -4.403   0.988  0.5545 -0.3473 -0.1311
   44MOL   C26314109  17.015  -4.477   0.997 -0.5038  0.2417  0.5553
   44MOL   C26414110  16.808  -4.390   1.107  0.7056 -0.0782 -0.1372
   44MOL   C26514111  16.691  -4.313   1.109  0.4388 -0.7211  0.4149
   44MOL   H26614112  16.517  -4.080   0.981 -0.4269 -0.3649 -0.0841
   44MOL   H26714113  16.453  -4.215   0.895  0.1803 -1.4348 -0.3563
   44MOL   H26814114  16.677  -4.230   0.781 -0.3146  1.3494  0.0741
   44MOL   H26914115  16.903  -4.337   0.777 -2.2838  0.6931 -0.6256
   44MOL   H27014116  17.062  -4.480   0.899 -2.1952 -2.1740 -0.2180
   44MOL   H27114117  17.080  -4.421   1.064  0.1655 -0.5757  0.5972
   44MOL   H27214118  16.843  -4.445   1.193 -0.1418  0.0116  0.2679
   44MOL   H27314119  16.639  -4.307   1.203  0.1083 -0.1133  0.1909
   44MOL   C27414120  16.983  -4.623   1.049  0.2749 -0.8070  0.4649
   44MOL   C27514121  17.106  -4.718   1.032  0.7323  0.0733 -0.0568
   44MOL   C27614122  17.210  -4.707   1.124  0.4667 -0.5574  0.0024
   44MOL   C27714123  17.320  -4.801   1.117  0.3688 -0.1741  0.2353
   44MOL   C27814124  17.319  -4.898   1.015  0.2134 -0.0299 -0.8374
   44MOL   C27914125  17.436  -4.993   1.003  0.5532 -0.3579 -0.5533
   44MOL   C28014126  17.211  -4.911   0.928 -1.1839  1.0787  0.5841
   44MOL   C28114127  17.102  -4.822   0.932 -0.5536  0.2746 -0.1566
   44MOL   H28214128  16.949  -4.625   1.152 -0.1051 -2.1655  0.3105
   44MOL   H28314129  16.903  -4.662   0.987  0.5249  0.0669 -0.4361
   44MOL   H28414130  17.206  -4.630   1.199  2.6380 -0.5618  0.1566
   44MOL   H28514131  17.403  -4.781   1.182 -0.2582  0.5759  0.8240
   44MOL   H28614132  17.456  -5.049   1.094 -2.8353  0.6161  0.8682
   44MOL   H28714133  17.407  -5.059   0.921 -1.6434 -0.3788  0.2225
   44MOL   H28814134  17.216  -4.989   0.854 -0.1624  0.4896  1.2517
   44MOL   H28914135  17.024  -4.835   0.859 -0.1622 -0.6237 -0.4161
   44MOL   C29014136  17.560  -4.909   0.960  0.6803 -0.8554  0.5072
   44MOL   C29114137  17.670  -4.999   0.919  0.0419  0.5290 -0.7181
   44MOL   C29214138  17.767  -5.019   1.017 -1.1909  0.4427 -0.0269
   44MOL   C29314139  17.875  -5.112   0.995  0.0978 -0.2857  0.1517
   44MOL   C29414140  17.871  -5.188   0.874  0.2030 -1.0923  0.3767
   44MOL   C29514141  17.985  -5.285   0.847  0.1538  0.6491  0.3911
   44MOL   C29614142  17.772  -5.168   0.774  1.1922  0.4669  0.0163
   44MOL   C29714143  17.668  -5.078   0.803  0.2564  0.1943 -0.3071
   44MOL   H29814144  17.594  -4.847   1.044 -2.0343 -0.6306  1.4779
   44MOL   H29914145  17.542  -4.838   0.880  0.7861 -0.9418  0.4076
   44MOL   H30014146  17.765  -4.962   1.109 -0.6232  0.6843 -0.1598
   44MOL   H30114147  17.946  -5.131   1.074 -0.0957 -0.0036  0.3988
   44MOL   H30214148  18.020  -5.323   0.943  1.3140 -1.2201 -0.7623
   44MOL   H30314149  17.954  -5.369   0.786 -1.1709 -0.9310  3.1507
   44MOL   H30414150  17.773  -5.223   0.681 -0.4818 -1.6706  1.2270
   44MOL   H30514151  17.578  -5.072   0.743 -1.5513  0.1160  2.2911
   44MOL   C30614152  18.101  -5.203   0.786 -0.3724  0.6499  0.3395
   44MOL   C30714153  18.215  -5.290   0.752  0.6331 -0.1385  0.0962
   44MOL   C30814154  18.231  -5.338   0.623  0.2760  0.6591 -0.2649
   44MOL   C30914155  18.342  -5.427   0.602  0.4566 -0.0240 -0.4200
   44MOL   C31014156  18.430  -5.462   0.704 -0.0456  0.6215 -0.7949
   44MOL   C31114157  18.552  -5.541   0.678  0.3563 -0.3282  0.2320
   44MOL   C31214158  18.414  -5.406   0.834  0.0703  0.0427 -0.5622
   44MOL   C31314159  18.296  -5.328   0.855 -0.0752  0.9011  0.1035
   44MOL   H31414160  18.141  -5.132   0.859  2.4597 -1.6356  1.1047
   44MOL   H31514161  18.063  -5.139   0.706  1.1219  0.2441 -0.7096
   44MOL   H31614162  18.158  -5.313   0.548  1.5692  1.4783 -1.2804
   44MOL   H31714163  18.349  -5.476   0.506  0.1830 -0.6653 -0.1197
   44MOL   H31814164  18.531  -5.644   0.650  1.0975 -1.1493  2.5675
   44MOL   H31914165  18.608  -5.484   0.604 -0.4616  2.0216  1.3605
   44MOL   H32014166  18.469  -5.441   0.920 -0.1046  1.2368  0.0480
   44MOL   H32114167  18.263  -5.291   0.951 -3.4930 -0.6098 -0.3944
   44MOL   H32214168  18.617  -5.545   0.766 -1.9982  0.3507  2.0415
   45MOL     C114169   5.367   2.974   7.723 -0.2050  0.7948  0.0979
   45MOL     C214170   5.261   3.064   7.778 -0.7312  0.3114 -0.4460
   45MOL     C314171   5.248   3.194   7.739 -0.3649 -0.4581  0.3872
   45MOL     C414172   5.139   3.274   7.787 -0.3852  0.2078 -0.1247
   45MOL     C514173   5.047   3.218   7.877 -0.1313  0.3623  0.0122
   45MOL     C614174   4.926   3.298   7.907 -0.7192 -0.7355  0.6332
   45MOL     C714175   5.063   3.083   7.927  0.3329 -0.4419 -0.2201
   45MOL     C814176   5.166   3.009   7.867  0.3171 -0.0262  0.4293
   45MOL     H914177   5.349   2.971   7.616  0.4536 -0.8902  0.0230
   45MOL    H1014178   5.470   3.000   7.749  0.5589 -1.7362 -0.2196
   45MOL    H1114179   5.323   3.239   7.676 -0.3466 -0.5242  0.3614
   45MOL    H1214180   5.117   3.372   7.746  0.2282 -0.7147 -2.7576
   45MOL    H1314181   4.945   3.362   7.993 -1.3287 -0.4079  0.5251
   45MOL    H1414182   4.910   3.380   7.838  0.2611  1.5315  3.0391
   45MOL    H1514183   4.983   3.034   7.981 -0.9619  2.3341  0.4804
   45MOL    H1614184   5.177   2.903   7.888 -1.2985 -0.4036 -0.5584
   45MOL    H1714185   5.356   2.875   7.766 -0.5864  0.2847 -1.1413
   45MOL    C1814186   4.792   3.225   7.915 -0.0957  0.0018  0.1558
   45MOL    C1914187   4.678   3.311   7.963  0.2123  0.2108 -0.4223
   45MOL    C2014188   4.649   3.320   8.099 -0.0049 -0.3744 -0.1340
   45MOL    C2114189   4.560   3.420   8.153  0.2273 -0.2683 -0.6502
   45MOL    C2214190   4.487   3.495   8.060 -0.4125 -0.0977  0.1855
   45MOL    C2314191   4.386   3.594   8.113 -0.3800  0.1331 -0.1592
   45MOL    C2414192   4.517   3.485   7.922 -0.1863 -0.0353 -0.3482
   45MOL    C2514193   4.610   3.391   7.878  0.3753  0.6063  0.5446
   45MOL    H2614194   4.765   3.186   7.817  1.4243  0.8791 -0.6392
   45MOL    H2714195   4.800   3.140   7.983  0.2207 -1.6039 -1.8164
   45MOL    H2814196   4.704   3.266   8.175 -0.2176 -0.7122 -0.2206
   45MOL    H2914197   4.558   3.435   8.260  0.3712 -1.5540 -0.4592
   45MOL    H3014198   4.382   3.669   8.033  2.2857 -0.4532 -0.8799
   45MOL    H3114199   4.422   3.645   8.202 -5.3808  2.6301  0.6018
   45MOL    H3214200   4.459   3.545   7.853  0.2283 -0.3067 -0.9359
   45MOL    H3314201   4.630   3.376   7.772  1.3643  0.2578  0.7720
   45MOL    C3414202   4.255   3.538   8.167  0.2252 -0.7961  0.0127
   45MOL    C3514203   4.183   3.633   8.256  0.0444 -0.3882 -0.0801
   45MOL    C3614204   4.124   3.751   8.193 -0.3527 -0.1228  0.1362
   45MOL    C3714205   4.037   3.824   8.275 -0.0331  0.4395 -0.1890
   45MOL    C3814206   4.018   3.792   8.410  0.1469 -0.1390  0.3043
   45MOL    C3914207   3.920   3.872   8.500  0.0334 -0.0996 -0.1860
   45MOL    C4014208   4.084   3.683   8.470  0.5990 -0.1625  0.7146
   45MOL    C4114209   4.163   3.599   8.391  0.5980  0.0948  0.1994
   45MOL    H4214210   4.279   3.446   8.221 -2.9389 -3.1579 -2.4084
   45MOL    H4314211   4.203   3.509   8.076  0.2165 -0.2888 -0.1468
   45MOL    H4414212   4.139   3.776   8.089  0.0596  1.7641  0.6488
   45MOL    H4514213   3.977   3.896   8.221  1.5422  1.2798 -0.8526
   45MOL    H4614214   3.957   3.878   8.603  2.8901  0.9141 -1.2174
   45MOL    H4714215   3.934   3.977   8.474  1.1998  0.4744  2.4970
   45MOL    H4814216   4.075   3.659   8.575 -1.0394 -2.7239  0.0328
   45MOL    H4914217   4.213   3.513   8.433 -0.6446 -1.5793 -1.6555
   45MOL    C5014218   3.771   3.834   8.484 -0.5648 -0.3987  0.2712
   45MOL    C5114219   3.688   3.927   8.578 -0.1058 -0.0724 -0.4181
   45MOL    C5214220   3.579   3.997   8.519  0.1074 -0.2303 -0.3109
   45MOL    C5314221   3.488   4.069   8.598 -0.2899  0.1216  0.0362
   45MOL    C5414222   3.500   4.074   8.741 -0.0658  0.2729 -0.0199
   45MOL    C5514223   3.392   4.138   8.827  0.5459  0.0694  0.0942
   45MOL    C5614224   3.611   4.013   8.797  0.7470  0.0058 -0.0417
   45MOL    C5714225   3.703   3.933   8.722  0.6542  0.0585 -0.1740
   45MOL    H5814226   3.761   3.728   8.506 -0.9437 -0.2945  0.6242
   45MOL    H5914227   3.736   3.839   8.381  1.7827 -2.1916 -0.6741
   45MOL    H6014228   3.565   3.988   8.413  3.2052 -0.8296 -0.7412
   45MOL    H6114229   3.401   4.115   8.554 -0.7881  0.8630  1.7689
   45MOL    H6214230   3.390   4.246   8.808 -1.1223  0.7291  3.5490
   45MOL    H6314231   3.295   4.102   8.794  0.9228 -1.3166  0.4786
   45MOL    H6414232   3.618   4.014   8.905  0.3154 -1.2259  0.0148
   45MOL    H6514233   3.777   3.870   8.769  0.5059 -1.5133 -1.9712
   45MOL    C6614234   3.405   4.119   8.980 -0.1184  0.0950 -0.0387
   45MOL    C6714235   3.297   4.181   9.058  0.6427 -0.1300  0.1649
   45MOL    C6814236   3.213   4.101   9.135  0.1990  0.2345 -0.6396
   45MOL    C6914237   3.104   4.161   9.197  0.0367 -1.0032 -0.1903
   45MOL    C7014238   3.077   4.296   9.193  0.6000  0.8002  0.1535
   45MOL    C7114239   2.950   4.351   9.255 -0.5717  0.3204  0.1790
   45MOL    C7214240   3.170   4.379   9.131  0.0041 -0.1023 -0.1120
   45MOL    C7314241   3.279   4.324   9.061  0.5711  0.3630  0.1160
   45MOL    H7414242   3.494   4.168   9.021  0.3601 -2.1999  1.7472
   45MOL    H7514243   3.424   4.015   9.004  2.3498 -0.0573 -2.4193
   45MOL    H7614244   3.231   3.995   9.144 -3.6843 -0.6442 -2.0728
   45MOL    H7714245   3.038   4.109   9.265 -0.1359  0.1157  0.5039
   45MOL    H7814246   2.984   4.418   9.334  2.7518 -1.2126  0.1261
   45MOL    H7914247   2.895   4.272   9.305  0.4027 -0.0379  0.6911
   45MOL    H8014248   3.163   4.487   9.134 -0.4502 -0.1462  0.5711
   45MOL    H8114249   3.343   4.393   9.008 -0.3143  1.7184  0.7875
   45MOL    C8214250   2.854   4.417   9.155  0.4625  0.5079 -0.2932
   45MOL    C8314251   2.719   4.451   9.216 -0.1832 -0.1978 -0.0350
   45MOL    C8414252   2.706   4.558   9.308 -0.5445 -0.0296  0.3908
   45MOL    C8514253   2.580   4.595   9.355  0.5779  0.1847 -0.2112
   45MOL    C8614254   2.468   4.526   9.319 -0.4374  0.0220 -0.3547
   45MOL    C8714255   2.333   4.598   9.347  0.6862  0.4426 -0.7016
   45MOL    C8814256   2.480   4.404   9.251  0.6370  0.2401 -0.4010
   45MOL    C8914257   2.603   4.371   9.193 -0.1856 -0.2880 -0.5934
   45MOL    H9014258   2.846   4.345   9.074 -1.3482  1.3677 -0.9265
   45MOL    H9114259   2.898   4.510   9.117 -1.0156  0.5772 -1.9029
   45MOL    H9214260   2.792   4.613   9.343 -1.0483  1.3739 -0.5594
   45MOL    H9314261   2.576   4.690   9.405 -0.1472  0.7075 -1.2670
   45MOL    H9414262   2.354   4.687   9.405 -0.5749  0.9396 -0.9976
   45MOL    H9514263   2.269   4.537   9.411 -0.0094  0.8599 -0.9925
   45MOL    H9614264   2.389   4.348   9.236  1.5206 -1.9885  2.1334
   45MOL    H9714265   2.626   4.287   9.128 -1.2828 -2.4569  1.7460
   45MOL    C9814266   2.268   4.662   9.222  1.5243 -0.5179  0.0455
   45MOL    C9914267   2.152   4.762   9.256 -1.2029  0.3320 -0.7254
   45MOL   C10014268   2.021   4.714   9.260 -0.0665 -0.2904  0.9948
   45MOL   C10114269   1.918   4.797   9.292 -0.4941  0.4681  0.9250
   45MOL   C10214270   1.938   4.938   9.299  0.0313 -0.1257 -0.6518
   45MOL   C10314271   1.814   5.032   9.325 -0.1172  0.1914 -0.0577
   45MOL   C10414272   2.069   4.994   9.287  0.5644 -0.0347 -0.2367
   45MOL   C10514273   2.179   4.903   9.267 -1.0793  0.4992 -0.6882
   45MOL   H10614274   2.221   4.585   9.161 -0.0271  0.3914  0.0636
   45MOL   H10714275   2.338   4.715   9.157  2.1916  0.0003  1.1825
   45MOL   H10814276   2.000   4.608   9.252  0.3623 -0.4019  1.3131
   45MOL   H10914277   1.818   4.759   9.301  0.3761 -2.0107  0.6319
   45MOL   H11014278   1.751   4.984   9.400 -1.8375  0.8583 -1.0363
   45MOL   H11114279   1.849   5.127   9.366 -0.9740 -0.1552  1.5294
   45MOL   H11214280   2.081   5.101   9.281  1.5702 -0.0118  1.7585
   45MOL   H11314281   2.275   4.946   9.245 -0.3154  0.5587  2.5649
   45MOL   C11414282   1.717   5.062   9.204 -0.0560  0.1210  0.1992
   45MOL   C11514283   1.601   5.150   9.238  0.3481  0.6318 -0.8314
   45MOL   C11614284   1.476   5.088   9.258  0.7089 -0.5366 -0.2824
   45MOL   C11714285   1.362   5.175   9.273  0.0566  0.5197  0.3754
   45MOL   C11814286   1.369   5.310   9.261 -0.1533  0.2422  0.5819
   45MOL   C11914287   1.250   5.398   9.294  0.2355  0.5944 -0.5436
   45MOL   C12014288   1.495   5.364   9.249 -0.7127  0.5207  0.5119
   45MOL   C12114289   1.610   5.290   9.227 -0.0271 -0.0302 -0.3206
   45MOL   H12214290   1.684   4.966   9.163  2.3240 -0.0535 -1.4780
   45MOL   H12314291   1.777   5.093   9.118  1.5172 -2.9324  0.1076
   45MOL   H12414292   1.454   4.982   9.257  0.7526 -0.5342 -1.7986
   45MOL   H12514293   1.272   5.120   9.296  0.4204 -0.7199 -1.0696
   45MOL   H12614294   1.198   5.366   9.384  0.5143  0.6051 -0.3778
   45MOL   H12714295   1.280   5.501   9.309 -0.9279  0.8503  0.1092
   45MOL   H12814296   1.492   5.471   9.264  0.5366  0.7135 -0.4396
   45MOL   H12914297   1.704   5.337   9.204 -0.0597 -0.1158 -0.6300
   45MOL   C13014298   1.150   5.394   9.173 -0.1815 -0.1581  0.0040
   45MOL   C13114299   1.032   5.484   9.196 -0.7241 -0.1263  0.1988
   45MOL   C13214300   0.912   5.437   9.251 -0.5903  0.1940 -0.3825
   45MOL   C13314301   0.809   5.525   9.296  0.4090  0.8259  0.0859
   45MOL   C13414302   0.837   5.661   9.296 -0.1098  0.0301  0.7132
   45MOL   C13514303   0.736   5.755   9.362 -0.4206  0.4878 -0.4595
   45MOL   C13614304   0.953   5.712   9.231 -0.5894 -0.3319  0.4287
   45MOL   C13714305   1.051   5.620   9.178  0.4910 -0.2601  0.0036
   45MOL   H13814306   1.109   5.294   9.160 -0.1305 -0.1579 -0.1557
   45MOL   H13914307   1.198   5.425   9.081  0.4959  0.8941  0.6936
   45MOL   H14014308   0.892   5.331   9.252  1.8164 -0.3110 -1.6749
   45MOL   H14114309   0.720   5.482   9.339  1.3600  0.5111  1.7669
   45MOL   H14214310   0.689   5.820   9.288 -0.2288  0.2452 -0.7989
   45MOL   H14314311   0.656   5.694   9.404 -1.7318  0.9857 -2.1631
   45MOL   H14414312   0.972   5.818   9.234  0.5922 -0.5356  0.3667
   45MOL   H14514313   1.144   5.660   9.141  1.2630 -1.6602  0.3722
   45MOL   C14614314   0.800   5.839   9.472 -0.0492  0.0266 -0.0261
   45MOL   C14714315   0.699   5.918   9.563 -0.7802  0.4680  0.0282
   45MOL   C14814316   0.620   6.022   9.508 -0.4800  0.0299 -0.1876
   45MOL   C14914317   0.532   6.089   9.592  0.0165  0.0849  0.0103
   45MOL   C15014318   0.520   6.051   9.731  0.6522 -0.3757  1.1239
   45MOL   C15114319   0.438   6.136   9.829  0.2956  0.6528 -0.8810
   45MOL   C15214320   0.601   5.946   9.780 -0.2333 -0.2520 -0.0897
   45MOL   C15314321   0.685   5.879   9.693 -0.2089 -0.1346 -0.0315
   45MOL   H15414322   0.859   5.903   9.406 -1.9299  0.8218 -0.9948
   45MOL   H15514323   0.864   5.787   9.543  1.9596  2.3220 -0.1015
   45MOL   H15614324   0.622   6.045   9.402  2.8308  2.3380  0.2570
   45MOL   H15714325   0.475   6.171   9.551  0.2126 -0.6972 -1.8883
   45MOL   H15814326   0.350   6.179   9.781 -2.5181 -2.9985  0.8351
   45MOL   H15914327   0.402   6.068   9.905  1.6725  0.8200 -0.0579
   45MOL   H16014328   0.591   5.913   9.882 -2.7180  3.1227  0.8755
   45MOL   H16114329   0.738   5.794   9.734  1.4112 -0.0095 -1.8119
   45MOL   C16214330   0.530   6.244   9.892 -0.4577  0.1922 -0.0998
   45MOL   C16314331   0.444   6.329   9.985 -0.4023 -0.0284 -0.0782
   45MOL   C16414332   0.468   6.325  10.125  0.0203 -0.1508 -1.1147
   45MOL   C16514333   0.385   6.391  10.216  0.0143  0.5619 -0.3372
   45MOL   C16614334   0.285   6.475  10.166 -0.1030  0.0287  0.5756
   45MOL   C16714335   0.204   6.557  10.269 -0.2460  0.2428 -0.3534
   45MOL   C16814336   0.261   6.479  10.025  0.2037  1.0229 -0.6383
   45MOL   C16914337   0.340   6.405   9.935  0.7517  0.3446  0.2116
   45MOL   H17014338   0.565   6.307   9.810 -0.7145 -1.3000 -1.3611
   45MOL   H17114339   0.615   6.193   9.937 -0.4837  0.4670  0.2720
   45MOL   H17214340   0.545   6.258  10.158 -0.2121  0.4822  0.8007
   45MOL   H17314341   0.402   6.389  10.323  2.3461  0.3369 -0.6913
   45MOL   H17414342   0.232   6.531  10.371  1.2179  2.5755 -0.1284
   45MOL   H17514343   0.247   6.657  10.268  1.0337 -0.2947  0.1381
   45MOL   H17614344   0.182   6.542   9.989 -0.6450  0.8588  0.8887
   45MOL   H17714345   0.323   6.391   9.829 -2.5864 -1.5253  0.9016
   45MOL   C17814346   0.053   6.555  10.247  0.1233 -0.1045 -0.2155
   45MOL   C17914347  -0.003   6.421  10.288 -0.3092  0.4513 -0.2566
   45MOL   C18014348  -0.039   6.404  10.422 -0.0452  0.3157 -0.3989
   45MOL   C18114349  -0.090   6.280  10.467 -0.1684  0.1056 -0.0397
   45MOL   C18214350  -0.096   6.172  10.374 -0.1712 -0.7591 -0.4413
   45MOL   C18314351  -0.149   6.041  10.424 -0.4331  0.0239  0.3861
   45MOL   C18414352  -0.052   6.188  10.244  0.3403  0.2543  0.3971
   45MOL   C18514353  -0.008   6.312  10.198  0.3105 -0.0269  0.2591
   45MOL   H18614354   0.027   6.588  10.146 -0.0796  1.4945  0.3515
   45MOL   H18714355   0.013   6.619  10.325 -1.3384 -1.8526  0.5007
   45MOL   H18814356  -0.015   6.484  10.491 -4.3264  1.6934 -0.3553
   45MOL   H18914357  -0.115   6.261  10.570  3.9135  1.2800  1.2583
   45MOL   H19014358  -0.233   6.055  10.492  0.3896  0.8715  1.2630
   45MOL   H19114359  -0.179   5.995  10.331 -0.0092 -0.5069  0.5056
   45MOL   H19214360  -0.060   6.103  10.177 -1.3761  0.8428 -0.1889
   45MOL   H19314361   0.026   6.341  10.099  0.6553  1.3633  0.7719
   45MOL   C19414362  -0.035   5.945  10.480  0.1689 -0.5288 -0.1828
   45MOL   C19514363   0.085   5.914  10.401 -0.2196  0.1696  0.3210
   45MOL   C19614364   0.207   5.973  10.437 -0.6204 -0.0166  0.0035
   45MOL   C19714365   0.319   5.954  10.352  0.2127  0.0603  0.4545
   45MOL   C19814366   0.315   5.871  10.242 -0.0850  0.0417  0.7628
   45MOL   C19914367   0.430   5.867  10.151  0.0345 -0.7226 -0.1724
   45MOL   C20014368   0.195   5.800  10.213 -0.6797 -0.4110 -1.0464
   45MOL   C20114369   0.079   5.819  10.296  0.4527  0.0247  0.3353
   45MOL   H20214370  -0.080   5.849  10.509 -2.0454 -0.5187 -3.3449
   45MOL   H20314371  -0.002   5.980  10.578 -3.3214  0.5866  0.6818
   45MOL   H20414372   0.210   6.039  10.522 -1.5189 -0.2788  0.2409
   45MOL   H20514373   0.404   6.018  10.365  0.7573 -0.6360  0.3203
   45MOL   H20614374   0.398   5.825  10.055 -3.8601 -0.9380  1.1268
   45MOL   H20714375   0.459   5.970  10.129  0.8091 -0.7934  0.4812
   45MOL   H20814376   0.189   5.741  10.123  1.8619  0.7661 -2.0214
   45MOL   H20914377  -0.017   5.780  10.268  0.6057 -0.6892  0.7963
   45MOL   C21014378   0.541   5.781  10.212 -0.5451 -1.1037  0.0550
   45MOL   C21114379   0.660   5.757  10.124  0.1216  0.0058 -0.0324
   45MOL   C21214380   0.654   5.656  10.030 -0.5971  0.0480 -0.2180
   45MOL   C21314381   0.770   5.619   9.956 -0.2628  0.0750 -0.1032
   45MOL   C21414382   0.889   5.690   9.976 -0.1390 -0.2650 -0.3292
   45MOL   C21514383   1.024   5.650   9.916  0.0104 -0.3329 -0.8585
   45MOL   C21614384   0.889   5.805  10.063  0.0704 -0.3520  0.5200
   45MOL   C21714385   0.781   5.832  10.145  0.6256  0.2764 -0.4505
   45MOL   H21814386   0.497   5.685  10.237 -0.8036 -1.6914 -2.5266
   45MOL   H21914387   0.581   5.815  10.307 -0.2224 -0.6534 -0.2347
   45MOL   H22014388   0.564   5.600  10.010 -1.2819  1.4869 -1.2777
   45MOL   H22114389   0.772   5.536   9.887  1.9789 -0.2814  0.3725
   45MOL   H22214390   1.027   5.685   9.813 -2.0769  0.5439 -0.6672
   45MOL   H22314391   1.100   5.708   9.969 -0.4853  1.3356 -1.9204
   45MOL   H22414392   0.981   5.862  10.070 -0.4433  0.3173  2.0233
   45MOL   H22514393   0.787   5.897  10.231  0.3257 -2.3384  1.6353
   45MOL   C22614394   1.063   5.501   9.915 -0.2862  0.4575 -0.1350
   45MOL   C22714395   1.213   5.478   9.890 -0.0203  0.2877 -0.3990
   45MOL   C22814396   1.250   5.418   9.770  0.3895 -0.4012  0.4311
   45MOL   C22914397   1.379   5.390   9.737  0.2248 -0.1207  0.2057
   45MOL   C23014398   1.486   5.434   9.817 -0.6131  0.1525  0.3077
   45MOL   C23114399   1.634   5.426   9.780 -0.2022 -0.4140  0.5460
   45MOL   C23214400   1.454   5.504   9.937  0.1224 -0.1795  0.1804
   45MOL   C23314401   1.318   5.525   9.976  0.3488 -0.7902  0.3654
   45MOL   H23414402   0.997   5.441   9.853 -1.7989 -0.3965  2.2563
   45MOL   H23514403   1.055   5.450  10.011  0.3361 -0.1757 -0.4146
   45MOL   H23614404   1.176   5.386   9.700  0.6553  1.1679 -0.5880
   45MOL   H23714405   1.389   5.356   9.635 -4.1156  0.7021 -0.5726
   45MOL   H23814406   1.663   5.530   9.766 -0.5786 -0.2989  0.5960
   45MOL   H23914407   1.702   5.388   9.856  3.6020  1.2287 -1.8911
   45MOL   H24014408   1.533   5.540  10.001 -0.5648  0.8441  0.4722
   45MOL   H24114409   1.293   5.563  10.073  0.1928 -0.2089  0.0982
   45MOL   C24214410   1.661   5.349   9.648 -0.3642  0.0887  0.2089
   45MOL   C24314411   1.809   5.343   9.611 -0.5545 -0.7215 -0.0941
   45MOL   C24414412   1.878   5.221   9.607 -0.0862 -0.0684 -0.2871
   45MOL   C24514413   2.015   5.220   9.583  0.3901 -0.6604 -0.7568
   45MOL   C24614414   2.073   5.331   9.529  1.0577 -0.1718 -0.1844
   45MOL   C24714415   2.215   5.321   9.480  0.0184  0.1131  0.1148
   45MOL   C24814416   2.004   5.456   9.522 -0.1030  0.6312  0.4474
   45MOL   C24914417   1.877   5.458   9.565  0.3825  0.2410 -0.4422
   45MOL   H25014418   1.612   5.252   9.646 -2.2072  0.9482  2.0795
   45MOL   H25114419   1.615   5.404   9.565 -0.0217  0.4657  0.2684
   45MOL   H25214420   1.824   5.131   9.635  2.6909 -2.0613 -1.1699
   45MOL   H25314421   2.061   5.123   9.577 -2.6824 -2.2378  0.2622
   45MOL   H25414422   2.245   5.234   9.421  2.0492 -0.4572  1.9468
   45MOL   H25514423   2.236   5.412   9.422  0.9612 -0.0787  0.1434
   45MOL   H25614424   2.050   5.547   9.485  1.7200 -0.0629  0.9406
   45MOL   H25714425   1.815   5.547   9.568 -0.8573 -0.6563  1.2830
   45MOL   C25814426   2.319   5.317   9.585 -0.2064 -0.4574 -0.2361
   45MOL   C25914427   2.470   5.324   9.547 -0.8994 -0.2264  0.2627
   45MOL   C26014428   2.560   5.217   9.582 -0.4260  0.1010 -0.3747
   45MOL   C26114429   2.694   5.224   9.559 -0.3268 -0.0142 -0.1043
   45MOL   C26214430   2.755   5.338   9.507  0.2054 -0.5896 -0.3199
   45MOL   C26314431   2.909   5.345   9.491  1.0252  0.5436 -0.7456
   45MOL   C26414432   2.672   5.447   9.476 -0.1009 -0.0034  0.2872
   45MOL   C26514433   2.529   5.439   9.495 -0.2733 -0.3979  0.0092
   45MOL   H26614434   2.311   5.221   9.636 -1.2941 -0.9845 -1.3576
   45MOL   H26714435   2.285   5.395   9.653  1.6734 -0.2287  0.4829
   45MOL   H26814436   2.520   5.133   9.636 -1.4618  2.1368  2.1559
   45MOL   H26914437   2.754   5.134   9.563 -1.2325 -0.6645 -1.0085
   45MOL   H27014438   2.962   5.371   9.582  0.3457  0.2518 -0.2580
   45MOL   H27114439   2.931   5.241   9.468 -1.8318 -0.9829  2.8308
   45MOL   H27214440   2.719   5.534   9.434 -0.0237 -1.2456 -2.2904
   45MOL   H27314441   2.476   5.526   9.458 -0.1120 -0.1558  0.3419
   45MOL   C27414442   2.960   5.434   9.380 -0.1627  1.0017  0.3322
   45MOL   C27514443   3.091   5.377   9.322 -0.2764 -0.0087 -0.1005
   45MOL   C27614444   3.093   5.290   9.214  0.0352 -0.1025  0.3287
   45MOL   C27714445   3.209   5.238   9.154 -0.9772  0.0982  0.3874
   45MOL   C27814446   3.333   5.270   9.217  0.1023 -0.2483  0.1196
   45MOL   C27914447   3.468   5.220   9.165  0.4130  0.6014  0.9054
   45MOL   C28014448   3.328   5.351   9.333  0.3580  0.2303 -0.6025
   45MOL   C28114449   3.210   5.413   9.383 -0.3403 -1.1105 -0.1961
   45MOL   H28214450   2.894   5.441   9.293  1.0986  0.6420 -0.6709
   45MOL   H28314451   2.972   5.533   9.423  1.2961  1.0970 -0.2908
   45MOL   H28414452   2.996   5.275   9.168 -1.0240  1.1770  2.0661
   45MOL   H28514453   3.217   5.175   9.066  0.8741 -1.2192  1.4603
   45MOL   H28614454   3.469   5.248   9.059  0.4808  0.1383  0.7797
   45MOL   H28714455   3.541   5.281   9.217  0.8151  1.1220 -0.2466
   45MOL   H28814456   3.412   5.378   9.395 -0.6315 -0.6270  1.1368
   45MOL   H28914457   3.213   5.459   9.480  1.6529 -1.3521 -0.1160
   45MOL   C29014458   3.500   5.070   9.182  0.1243 -0.5286 -0.1825
   45MOL   C29114459   3.638   5.032   9.128 -0.1657 -0.1216  1.1997
   45MOL   C29214460   3.653   4.989   8.996 -0.0170  0.0100 -0.3611
   45MOL   C29314461   3.783   4.971   8.951 -0.4121  0.1465  0.0208
   45MOL   C29414462   3.897   4.995   9.037 -0.2170  0.1923  0.5538
   45MOL   C29514463   4.040   4.969   8.981  0.1723  0.0877 -0.9572
   45MOL   C29614464   3.868   5.027   9.169 -0.0856  0.1514  0.7511
   45MOL   C29714465   3.746   5.051   9.211  0.2498 -0.4270  0.0891
   45MOL   H29814466   3.428   5.017   9.120 -1.1775  1.0032 -0.0192
   45MOL   H29914467   3.504   5.037   9.286 -2.1853 -1.9568 -0.4959
   45MOL   H30014468   3.568   4.959   8.936 -2.3723  0.2265  2.7389
   45MOL   H30114469   3.803   4.926   8.854 -0.4300  0.0687  0.0535
   45MOL   H30214470   4.042   4.949   8.874 -1.1542  0.4133 -1.0472
   45MOL   H30314471   4.101   5.059   8.989 -1.9702  1.3397  2.6199
   45MOL   H30414472   3.952   5.042   9.235  0.2801 -0.3487  0.4047
   45MOL   H30514473   3.733   5.085   9.312 -1.7003 -0.7705 -0.0287
   45MOL   C30614474   4.114   4.854   9.047 -0.6134  0.4535  0.2648
   45MOL   C30714475   4.261   4.841   8.995 -0.0146 -0.4100  0.2921
   45MOL   C30814476   4.293   4.736   8.907  0.2831  0.1501  0.5068
   45MOL   C30914477   4.425   4.719   8.862 -0.6629  0.2024 -0.2437
   45MOL   C31014478   4.529   4.811   8.901 -0.1224  0.2233 -0.5517
   45MOL   C31114479   4.676   4.793   8.853 -0.1593 -0.6063  0.7293
   45MOL   C31214480   4.492   4.924   8.980 -1.6311  0.6398  0.2229
   45MOL   C31314481   4.359   4.935   9.029  0.1701 -0.5387 -0.8812
   45MOL   H31414482   4.067   4.757   9.035  0.4716  0.0040 -0.4404
   45MOL   H31514483   4.113   4.859   9.156 -1.1092 -0.8732  0.3330
   45MOL   H31614484   4.221   4.662   8.873  1.4032  0.2310 -2.1505
   45MOL   H31714485   4.461   4.649   8.788  2.2610  0.9135  0.4482
   45MOL   H31814486   4.716   4.872   8.790 -0.6961 -1.4766 -0.7239
   45MOL   H31914487   4.751   4.797   8.933 -0.8174  0.7193  1.2955
   45MOL   H32014488   4.567   4.994   9.016 -0.4330 -0.1185 -0.7697
   45MOL   H32114489   4.336   5.012   9.101  0.7324  0.8330 -2.1388
   45MOL   H32214490   4.686   4.702   8.793 -2.1723 -0.6649  0.4683
   46MOL     C114491   3.708   4.782   6.046  0.7458  0.1639  0.6896
   46MOL     C214492   3.586   4.858   6.095 -0.0404  0.2397 -0.6369
   46MOL     C314493   3.599   4.963   6.191  0.2868  0.2681  0.0641
   46MOL     C414494   3.489   5.025   6.248  0.0725  0.1777 -0.0782
   46MOL     C514495   3.362   4.976   6.228 -0.5822  0.3058  0.0956
   46MOL     C614496   3.240   5.040   6.299  0.4393  0.2052  1.1517
   46MOL     C714497   3.340   4.869   6.134  0.1244  0.2045  0.0762
   46MOL     C814498   3.451   4.810   6.073  0.5270 -0.4795  0.0894
   46MOL     H914499   3.782   4.784   6.126  1.7043 -1.0347 -0.1322
   46MOL    H1014500   3.674   4.681   6.023  1.6098 -0.1314  0.6620
   46MOL    H1114501   3.698   4.994   6.221 -0.4470  1.0358  1.7516
   46MOL    H1214502   3.495   5.104   6.321 -0.4669 -1.2248  1.4950
   46MOL    H1314503   3.170   4.957   6.303 -0.2397  0.5815 -1.5274
   46MOL    H1414504   3.258   5.076   6.400  0.9236 -2.7533  2.1398
   46MOL    H1514505   3.242   4.829   6.112  0.3595 -0.2073 -0.2453
   46MOL    H1614506   3.433   4.730   6.002 -0.3330  2.9957 -3.8072
   46MOL    H1714507   3.753   4.829   5.958 -0.8468  1.4189  0.5409
   46MOL    C1814508   3.186   5.158   6.219  0.2087  0.1105 -0.3072
   46MOL    C1914509   3.068   5.227   6.281  0.2463 -0.4887  0.4194
   46MOL    C2014510   3.086   5.345   6.364 -0.1119  0.3220  0.1096
   46MOL    C2114511   2.973   5.420   6.401 -0.0392  0.2386 -0.1803
   46MOL    C2214512   2.842   5.371   6.377  0.3133 -0.1681  0.2267
   46MOL    C2314513   2.726   5.449   6.417  0.1215 -0.3794  0.6550
   46MOL    C2414514   2.827   5.256   6.297  0.7528  0.0336  0.4826
   46MOL    C2514515   2.934   5.183   6.252  0.8997 -0.4630  0.3459
   46MOL    H2614516   3.267   5.230   6.207  0.3888 -0.0526 -0.0656
   46MOL    H2714517   3.158   5.131   6.117  0.6116 -2.4534  0.2288
   46MOL    H2814518   3.185   5.382   6.382 -0.0008 -0.6047  1.5333
   46MOL    H2914519   2.995   5.512   6.454 -0.0409  0.2164 -0.1404
   46MOL    H3014520   2.650   5.421   6.344 -0.2903 -0.1585  0.9913
   46MOL    H3114521   2.748   5.555   6.402 -0.5460 -0.4552 -1.0517
   46MOL    H3214522   2.733   5.206   6.277  2.6342 -1.8815 -4.1950
   46MOL    H3314523   2.916   5.092   6.197  1.4108 -1.0339  1.1042
   46MOL    C3414524   2.675   5.414   6.561 -0.1966  0.4586 -0.2409
   46MOL    C3514525   2.548   5.489   6.588 -0.1770 -0.2422  0.2450
   46MOL    C3614526   2.434   5.472   6.508  0.2297 -0.1686  1.0299
   46MOL    C3714527   2.312   5.541   6.529  0.2295  0.0649  0.2636
   46MOL    C3814528   2.306   5.631   6.636  0.1178 -0.7280  0.1393
   46MOL    C3914529   2.180   5.713   6.663 -0.5638  0.1824 -0.4636
   46MOL    C4014530   2.419   5.654   6.713 -0.0625  0.3850  0.3474
   46MOL    C4114531   2.535   5.582   6.693 -0.1846 -0.6534 -0.1149
   46MOL    H4214532   2.750   5.444   6.635 -0.7137  0.4029  0.3049
   46MOL    H4314533   2.650   5.309   6.576  1.4065  0.1316  0.3195
   46MOL    H4414534   2.427   5.408   6.421 -0.0957 -0.4278  1.2507
   46MOL    H4514535   2.222   5.507   6.478  1.7386 -2.4167 -0.8133
   46MOL    H4614536   2.190   5.763   6.760  0.7235  1.0776 -1.0418
   46MOL    H4714537   2.171   5.781   6.579  1.0851 -0.0097 -0.8114
   46MOL    H4814538   2.416   5.731   6.789 -2.1122 -0.9838  1.7078
   46MOL    H4914539   2.618   5.606   6.759 -0.1384  0.5370 -0.5985
   46MOL    C5014540   2.051   5.624   6.690 -0.5654 -0.1909  0.0093
   46MOL    C5114541   1.925   5.708   6.726 -0.7328  0.0479 -0.0020
   46MOL    C5214542   1.904   5.777   6.849 -0.1867  0.2501 -0.1686
   46MOL    C5314543   1.786   5.857   6.867 -0.1978 -0.4985 -0.0987
   46MOL    C5414544   1.689   5.859   6.763 -0.0521 -1.3117 -0.2587
   46MOL    C5514545   1.560   5.941   6.778 -0.3271  0.3835  0.5876
   46MOL    C5614546   1.712   5.794   6.639 -0.0343  0.0270  0.2943
   46MOL    C5714547   1.828   5.717   6.622  0.1987  0.7043 -0.7186
   46MOL    H5814548   2.044   5.559   6.778 -2.1038  1.7917  1.3962
   46MOL    H5914549   2.039   5.566   6.599  0.0322 -0.7798  0.2966
   46MOL    H6014550   1.981   5.781   6.924 -0.9042 -0.4082  0.6086
   46MOL    H6114551   1.767   5.912   6.958  1.1886 -1.5279  0.8333
   46MOL    H6214552   1.577   6.003   6.867 -0.0275  0.7531  0.2721
   46MOL    H6314553   1.548   6.013   6.698 -1.0982 -0.1560  0.2096
   46MOL    H6414554   1.639   5.817   6.563  0.9904  0.2672 -0.6200
   46MOL    H6514555   1.846   5.677   6.523 -1.6266 -0.9911 -0.4093
   46MOL    C6614556   1.439   5.851   6.790 -0.3424  0.3669 -0.5826
   46MOL    C6714557   1.311   5.930   6.801  0.0247  0.1617  0.1870
   46MOL    C6814558   1.233   5.957   6.687 -0.5136 -0.5382  0.2209
   46MOL    C6914559   1.119   6.039   6.702  0.2291  0.2517 -0.1661
   46MOL    C7014560   1.072   6.074   6.831  0.3722  0.0520  0.2917
   46MOL    C7114561   0.944   6.144   6.851  0.4528 -0.2844  0.3820
   46MOL    C7214562   1.143   6.037   6.941 -0.9783 -0.0276 -0.7524
   46MOL    C7314563   1.268   5.973   6.929  0.6344 -0.2118 -0.2700
   46MOL    H7414564   1.443   5.790   6.880  2.3839  2.4870  0.8227
   46MOL    H7514565   1.439   5.776   6.711  1.3144 -2.6097  2.0968
   46MOL    H7614566   1.257   5.924   6.587  2.5305  0.9093  0.4245
   46MOL    H7714567   1.060   6.064   6.615 -0.3788 -1.6590 -0.3339
   46MOL    H7814568   0.926   6.221   6.776  0.5680 -0.6604 -0.0348
   46MOL    H7914569   0.942   6.191   6.949 -1.0736  0.7691 -0.1322
   46MOL    H8014570   1.102   6.057   7.039 -0.1932 -1.0636 -0.2115
   46MOL    H8114571   1.328   5.948   7.015 -1.0748  0.4631  1.1521
   46MOL    C8214572   0.813   6.052   6.828 -0.6091  0.5436 -0.2164
   46MOL    C8314573   0.687   6.139   6.840 -0.4593  0.8280 -0.2435
   46MOL    C8414574   0.634   6.160   6.969  0.0837  0.3011 -0.4280
   46MOL    C8514575   0.512   6.225   6.983  0.6321  0.1087 -0.3905
   46MOL    C8614576   0.438   6.269   6.872 -0.1600 -0.0788 -0.7228
   46MOL    C8714577   0.298   6.339   6.898 -0.1903 -0.8897  0.5638
   46MOL    C8814578   0.489   6.241   6.742  0.1948  0.4327 -0.1182
   46MOL    C8914579   0.616   6.178   6.723  0.5543  0.1414 -0.5370
   46MOL    H9014580   0.806   5.970   6.900 -1.1228  1.0659  0.3306
   46MOL    H9114581   0.819   6.006   6.729 -0.5732 -1.0679  0.5036
   46MOL    H9214582   0.685   6.128   7.059 -0.8680 -0.8795 -0.2969
   46MOL    H9314583   0.476   6.245   7.083 -1.3890 -3.8931 -0.2132
   46MOL    H9414584   0.308   6.447   6.882  0.0033 -0.8298  1.0545
   46MOL    H9514585   0.276   6.332   7.005  1.3321 -0.5695  0.9061
   46MOL    H9614586   0.432   6.271   6.654  0.3275 -0.1732 -0.4116
   46MOL    H9714587   0.647   6.140   6.627  1.9887 -0.8822  0.3340
   46MOL    C9814588   0.174   6.280   6.819  0.0622 -0.0964  0.4986
   46MOL    C9914589   0.048   6.356   6.841 -0.2660  0.3104 -0.3250
   46MOL   C10014590  -0.007   6.441   6.741 -0.2780  0.0199  0.4156
   46MOL   C10114591  -0.134   6.493   6.755 -0.0157  0.4260  0.1481
   46MOL   C10214592  -0.216   6.451   6.860  0.0120  0.1922 -0.4905
   46MOL   C10314593  -0.347   6.514   6.869  0.5693 -0.4076 -0.3776
   46MOL   C10414594  -0.156   6.382   6.966  0.4208 -0.2065 -0.2693
   46MOL   C10514595  -0.025   6.336   6.956  0.2006 -0.1457  0.1745
   46MOL   H10614596   0.161   6.173   6.833 -0.9493 -0.1539 -0.7918
   46MOL   H10714597   0.190   6.293   6.712 -3.1792 -1.6074 -0.2413
   46MOL   H10814598   0.038   6.458   6.644  0.4655 -1.1204  0.5573
   46MOL   H10914599  -0.178   6.570   6.693  1.1070 -0.1766 -1.4266
   46MOL   H11014600  -0.386   6.528   6.768  2.5248 -1.7770 -1.3506
   46MOL   H11114601  -0.414   6.450   6.925 -0.3628  1.0948  0.2674
   46MOL   H11214602  -0.213   6.356   7.053  1.3712  0.4037  0.5415
   46MOL   H11314603   0.015   6.271   7.032 -1.4650  0.0545  1.2444
   46MOL   C11414604  -0.344   6.649   6.956 -0.8549  0.4347  0.0208
   46MOL   C11514605  -0.488   6.710   6.965 -0.7625 -0.6225 -0.6413
   46MOL   C11614606  -0.533   6.786   6.855  0.0391  0.0978 -0.8127
   46MOL   C11714607  -0.671   6.817   6.857 -0.4564 -0.1212  1.1154
   46MOL   C11814608  -0.756   6.787   6.968 -0.4107  0.1871 -0.2618
   46MOL   C11914609  -0.908   6.823   6.967  0.3612  0.1632  0.4725
   46MOL   C12014610  -0.702   6.729   7.082 -0.1058 -0.0182  0.8920
   46MOL   C12114611  -0.569   6.688   7.082 -0.1403  0.6312  0.5726
   46MOL   H12214612  -0.277   6.724   6.913  1.0264 -0.5896  1.0880
   46MOL   H12314613  -0.302   6.632   7.056  1.1309  2.2270 -0.4584
   46MOL   H12414614  -0.471   6.809   6.769  0.3971 -1.4683 -0.9981
   46MOL   H12514615  -0.709   6.869   6.771  0.4968 -0.1918  0.6441
   46MOL   H12614616  -0.951   6.854   6.872  0.3251  0.5154  0.6038
   46MOL   H12714617  -0.957   6.735   7.010 -1.0445 -0.7296 -2.7494
   46MOL   H12814618  -0.766   6.710   7.167 -0.1519  0.0976  0.8833
   46MOL   H12914619  -0.529   6.644   7.172 -0.1931 -1.6598 -0.5047
   46MOL   C13014620  -0.935   6.944   7.056  0.3544  0.5080 -0.0215
   46MOL   C13114621  -1.077   6.957   7.092 -0.0848 -0.0576  0.2090
   46MOL   C13214622  -1.132   6.906   7.209  1.0008  0.0486 -0.2281
   46MOL   C13314623  -1.264   6.930   7.242  0.1610  0.2478  0.0901
   46MOL   C13414624  -1.346   7.017   7.162  0.1785 -0.1995  0.8759
   46MOL   C13514625  -1.490   7.049   7.197  0.3427 -0.0316 -1.3917
   46MOL   C13614626  -1.289   7.072   7.046 -0.6302 -0.4278  0.1217
   46MOL   C13714627  -1.154   7.042   7.012 -0.2187 -0.3571 -0.9055
   46MOL   H13814628  -0.913   7.042   7.013  1.8274 -0.8088 -2.3591
   46MOL   H13914629  -0.878   6.946   7.149  0.8373  1.6116 -0.3369
   46MOL   H14014630  -1.078   6.859   7.290  0.3032  0.8533  0.7093
   46MOL   H14114631  -1.299   6.891   7.336 -1.7699  1.7948  0.0405
   46MOL   H14214632  -1.535   7.078   7.103  1.5824  2.0986 -1.3471
   46MOL   H14314633  -1.546   6.964   7.237 -0.7844  2.1094  1.7227
   46MOL   H14414634  -1.346   7.137   6.982  1.3593  0.2301 -1.0424
   46MOL   H14514635  -1.105   7.089   6.928  1.2746  0.6948  0.5395
   46MOL   C14614636  -1.504   7.168   7.289  0.2810 -0.1896 -0.1119
   46MOL   C14714637  -1.652   7.211   7.295  0.6921 -0.6977  0.0231
   46MOL   C14814638  -1.700   7.325   7.226  0.5168 -0.7356  1.8081
   46MOL   C14914639  -1.840   7.362   7.229 -0.4055  0.0398 -0.8224
   46MOL   C15014640  -1.924   7.306   7.321  0.0563  0.1902 -0.7839
   46MOL   C15114641  -2.063   7.361   7.347  0.4701  0.1724  0.6800
   46MOL   C15214642  -1.874   7.199   7.397  0.0119 -0.7989 -0.0694
   46MOL   C15314643  -1.744   7.151   7.383 -0.3221 -1.2972 -0.4407
   46MOL   H15414644  -1.439   7.247   7.251  0.9178 -1.0719 -0.8749
   46MOL   H15514645  -1.458   7.161   7.387 -0.0862 -0.6617  0.0312
   46MOL   H15614646  -1.630   7.371   7.158 -2.3164 -0.8987 -1.3810
   46MOL   H15714647  -1.863   7.452   7.175 -1.5123 -0.5270 -1.3055
   46MOL   H15814648  -2.119   7.350   7.254  0.7017 -0.2554  0.5893
   46MOL   H15914649  -2.113   7.298   7.421 -0.6120 -0.5539 -0.6379
   46MOL   H16014650  -1.942   7.161   7.472 -0.9827  0.6561 -0.2084
   46MOL   H16114651  -1.708   7.068   7.441  0.3711  1.2775  2.9670
   46MOL   C16214652  -2.068   7.503   7.403  0.1617  0.3497 -0.6726
   46MOL   C16314653  -2.203   7.571   7.397 -0.6346 -0.2223  0.4658
   46MOL   C16414654  -2.278   7.603   7.515 -0.0251  0.1886  0.4526
   46MOL   C16514655  -2.399   7.672   7.498  0.7922 -0.3786 -0.3733
   46MOL   C16614656  -2.457   7.695   7.366 -0.1136  0.1969  0.0960
   46MOL   C16714657  -2.586   7.768   7.343  0.8257  0.0207 -0.1902
   46MOL   C16814658  -2.378   7.660   7.251 -0.1497  0.7066 -0.8008
   46MOL   C16914659  -2.249   7.604   7.268  0.1395 -0.6504 -0.1727
   46MOL   H17014660  -1.992   7.565   7.354 -1.2826  0.1998 -3.2013
   46MOL   H17114661  -2.041   7.503   7.508 -0.0367 -0.8827 -0.6100
   46MOL   H17214662  -2.236   7.578   7.611  0.8670 -0.3122 -0.0520
   46MOL   H17314663  -2.448   7.705   7.588 -0.6388  0.1183 -1.3023
   46MOL   H17414664  -2.570   7.874   7.363 -1.7148  0.3561  0.2457
   46MOL   H17514665  -2.615   7.768   7.238  0.4329  0.3995 -0.0804
   46MOL   H17614666  -2.416   7.677   7.151 -1.0487  3.0531 -0.0795
   46MOL   H17714667  -2.195   7.569   7.182  1.1182  0.4886 -0.0298
   46MOL   C17814668  -2.693   7.717   7.445 -0.4830 -0.0045 -0.4588
   46MOL   C17914669  -2.821   7.805   7.475 -0.8055 -0.1946  0.0065
   46MOL   C18014670  -2.861   7.801   7.610 -0.4968  0.4284 -0.3192
   46MOL   C18114671  -2.979   7.865   7.644  0.5163 -1.0224  0.4730
   46MOL   C18214672  -3.049   7.937   7.545 -0.2892  0.2234  0.9866
   46MOL   C18314673  -3.188   7.989   7.573  0.0908 -0.6206  0.6546
   46MOL   C18414674  -3.011   7.930   7.409  0.0285  0.0719  0.7014
   46MOL   C18514675  -2.893   7.869   7.376 -0.2218  0.6952  0.4493
   46MOL   H18614676  -2.650   7.689   7.541  2.3788 -0.0523 -1.6889
   46MOL   H18714677  -2.721   7.616   7.416  1.6688 -0.5803 -0.6799
   46MOL   H18814678  -2.811   7.751   7.692  0.1216  0.3132 -0.7572
   46MOL   H18914679  -2.999   7.872   7.750  0.4158 -2.2876  0.5441
   46MOL   H19014680  -3.175   8.012   7.679  0.4720 -0.6376  0.6126
   46MOL   H19114681  -3.213   8.083   7.525  1.4301  0.3268  1.8014
   46MOL   H19214682  -3.078   7.963   7.331  1.1468 -2.0148 -1.2106
   46MOL   H19314683  -2.864   7.871   7.272  1.0575  0.2248  0.7848
   46MOL   C19414684  -3.304   7.890   7.553 -0.3584  0.0151 -0.3310
   46MOL   C19514685  -3.440   7.955   7.574 -0.4085  0.1065  0.7876
   46MOL   C19614686  -3.511   8.018   7.469 -0.0024  0.3069  0.1496
   46MOL   C19714687  -3.641   8.068   7.493 -0.0660 -0.0893 -0.5532
   46MOL   C19814688  -3.694   8.057   7.621  0.8080 -0.0244  0.6884
   46MOL   C19914689  -3.826   8.124   7.651 -0.2403  0.0458  0.2986
   46MOL   C20014690  -3.622   7.991   7.725 -0.4697  0.2650 -0.3287
   46MOL   C20114691  -3.492   7.939   7.705  0.0546  1.0916  0.1385
   46MOL   H20214692  -3.295   7.808   7.624  1.3667  0.6407  0.1954
   46MOL   H20314693  -3.298   7.842   7.455  1.1931 -1.8967  0.6583
   46MOL   H20414694  -3.461   8.040   7.376 -0.8558  2.6644  0.2013
   46MOL   H20514695  -3.699   8.104   7.409 -0.7394 -0.5947 -0.3165
   46MOL   H20614696  -3.827   8.180   7.744 -0.3815  0.8947 -0.1994
   46MOL   H20714697  -3.853   8.197   7.574 -0.3258 -0.4491 -0.1465
   46MOL   H20814698  -3.661   7.988   7.826  0.2866 -2.2576 -0.0639
   46MOL   H20914699  -3.439   7.875   7.774 -2.1574  2.3145  3.1151
   46MOL   C21014700  -3.939   8.030   7.660 -0.6359  0.3391  0.1562
   46MOL   C21114701  -4.067   8.100   7.686  0.5500 -0.0225  0.7020
   46MOL   C21214702  -4.106   8.109   7.818  0.0217 -0.2032  0.0773
   46MOL   C21314703  -4.225   8.178   7.846  0.5356 -0.0074 -0.0943
   46MOL   C21414704  -4.293   8.238   7.745  0.1551 -0.1745  0.1222
   46MOL   C21514705  -4.421   8.322   7.787 -0.6234  0.2800  0.2220
   46MOL   C21614706  -4.249   8.238   7.612  0.2683 -0.4138 -0.3121
   46MOL   C21714707  -4.133   8.163   7.579 -0.0028 -0.1778  0.2501
   46MOL   H21814708  -3.924   7.955   7.738 -0.3595  0.0614 -0.1617
   46MOL   H21914709  -3.945   7.969   7.570 -1.3040 -0.4661  0.7451
   46MOL   H22014710  -4.050   8.055   7.892  2.7159 -1.5981 -2.8689
   46MOL   H22114711  -4.245   8.183   7.952 -0.0728 -2.9019 -0.0400
   46MOL   H22214712  -4.419   8.346   7.893  1.6662  2.7739 -0.3487
   46MOL   H22314713  -4.415   8.418   7.736 -2.7918  0.4690  0.2960
   46MOL   H22414714  -4.295   8.279   7.524  0.0563 -2.9264 -1.4176
   46MOL   H22514715  -4.105   8.160   7.475  1.8819 -1.3153  0.7584
   46MOL   C22614716  -4.545   8.249   7.743  0.3137 -0.8005  0.1034
   46MOL   C22714717  -4.668   8.334   7.774  0.6948  0.4575 -0.5946
   46MOL   C22814718  -4.739   8.328   7.898 -0.0497  0.5037 -0.1290
   46MOL   C22914719  -4.856   8.404   7.927 -0.7160 -0.3826  0.4630
   46MOL   C23014720  -4.916   8.473   7.820  0.0129 -0.8672 -0.1593
   46MOL   C23114721  -5.041   8.552   7.847  0.6036 -0.1924  0.8529
   46MOL   C23214722  -4.853   8.473   7.691 -0.1235  0.5587 -0.2923
   46MOL   C23314723  -4.730   8.407   7.674 -0.3139 -0.4742  0.1661
   46MOL   H23414724  -4.563   8.157   7.799 -3.5851 -0.5333 -0.5734
   46MOL   H23514725  -4.548   8.223   7.637  0.0592  1.0983 -0.3775
   46MOL   H23614726  -4.689   8.271   7.975  1.0889  0.9365 -0.5477
   46MOL   H23714727  -4.892   8.400   8.029 -1.1760 -1.6041  0.2601
   46MOL   H23814728  -5.038   8.594   7.947  2.4310 -0.1246  0.7801
   46MOL   H23914729  -5.034   8.637   7.778  0.2814 -1.2573 -0.5030
   46MOL   H24014730  -4.902   8.511   7.603  1.4427  1.7157 -0.7002
   46MOL   H24114731  -4.684   8.406   7.576 -0.6248 -0.4526  0.0209
   46MOL   C24214732  -5.160   8.454   7.835 -0.3749 -0.1940  0.3887
   46MOL   C24314733  -5.284   8.534   7.867  0.3695  0.8027  1.0537
   46MOL   C24414734  -5.341   8.624   7.772 -0.8767  0.4100  0.3788
   46MOL   C24514735  -5.450   8.703   7.810  0.1391 -0.1644  0.7029
   46MOL   C24614736  -5.506   8.692   7.941  0.4110  0.4697 -0.8846
   46MOL   C24714737  -5.631   8.776   7.980 -0.8074 -0.4531  0.3851
   46MOL   C24814738  -5.448   8.610   8.040  0.3171 -0.0143  0.1211
   46MOL   C24914739  -5.334   8.530   8.002  0.2295 -0.7236 -0.4934
   46MOL   H25014740  -5.160   8.405   7.737  0.2438  0.4338  0.0653
   46MOL   H25114741  -5.142   8.374   7.907 -0.8684 -2.5320 -1.9651
   46MOL   H25214742  -5.299   8.633   7.673 -2.0852  2.0665  0.0037
   46MOL   H25314743  -5.485   8.763   7.727  0.3563 -0.9762  0.0123
   46MOL   H25414744  -5.646   8.775   8.087  0.9791 -0.4153  0.6607
   46MOL   H25514745  -5.618   8.879   7.945 -1.2183 -0.9419 -1.2647
   46MOL   H25614746  -5.485   8.613   8.141 -0.7683 -0.2756 -0.2574
   46MOL   H25714747  -5.270   8.476   8.070 -0.2266  1.0935  1.4524
   46MOL   C25814748  -5.754   8.721   7.913  0.0056 -0.2208 -0.4419
   46MOL   C25914749  -5.878   8.795   7.958 -0.3305  0.6539  0.5959
   46MOL   C26014750  -5.936   8.755   8.075  0.3088  0.7159  0.3313
   46MOL   C26114751  -6.045   8.829   8.133 -0.6832  0.0804  0.5119
   46MOL   C26214752  -6.102   8.926   8.046  0.2042 -0.3008  0.0889
   46MOL   C26314753  -6.221   9.008   8.099 -0.3659 -0.2026 -0.0605
   46MOL   C26414754  -6.056   8.954   7.919  0.1504 -0.0980 -0.2103
   46MOL   C26514755  -5.944   8.892   7.873 -0.3689 -0.2286  0.1575
   46MOL   H26614756  -5.753   8.617   7.947 -0.4148 -0.5657 -1.4519
   46MOL   H26714757  -5.743   8.712   7.805 -3.3909  0.3391 -0.9021
   46MOL   H26814758  -5.885   8.685   8.139 -0.0194  0.9550  0.8508
   46MOL   H26914759  -6.079   8.797   8.230 -1.8015  0.7163  0.3362
   46MOL   H27014760  -6.217   9.000   8.208 -0.8442 -0.1891 -0.0415
   46MOL   H27114761  -6.238   9.114   8.077 -2.5860  0.3864  3.9535
   46MOL   H27214762  -6.108   9.023   7.853  2.1742  0.1295 -1.6036
   46MOL   H27314763  -5.903   8.902   7.773  0.8960 -0.8404  0.6111
   46MOL   C27414764  -6.352   8.947   8.055 -0.7196  0.3637  0.0976
   46MOL   C27514765  -6.472   9.025   8.092 -0.0505  0.0361 -0.8504
   46MOL   C27614766  -6.539   9.120   8.010 -0.3727  0.9339 -0.0284
   46MOL   C27714767  -6.664   9.173   8.051  0.4521  0.1995 -0.4789
   46MOL   C27814768  -6.716   9.150   8.180 -0.4692  0.1834  0.2511
   46MOL   C27914769  -6.842   9.221   8.232 -0.4182 -0.8073  0.5012
   46MOL   C28014770  -6.649   9.056   8.265  0.6857  1.1348  0.3554
   46MOL   C28114771  -6.528   8.994   8.223  0.0656 -0.1299  0.1339
   46MOL   H28214772  -6.330   8.957   7.948 -0.6431  0.8031  0.1517
   46MOL   H28314773  -6.372   8.846   8.091 -1.8088  1.0571  1.4818
   46MOL   H28414774  -6.492   9.150   7.917  1.0978 -0.1464  0.3481
   46MOL   H28514775  -6.717   9.243   7.988 -1.7633 -1.7298 -0.8157
   46MOL   H28614776  -6.845   9.250   8.336  0.9676 -0.4055  0.4351
   46MOL   H28714777  -6.834   9.322   8.193 -0.7413  0.0133  2.5182
   46MOL   H28814778  -6.686   9.033   8.364 -1.8976 -0.2458 -0.8818
   46MOL   H28914779  -6.496   8.906   8.276  1.0752 -0.0283 -0.2905
   46MOL   C29014780  -6.976   9.145   8.180 -0.5853  0.4003 -0.4684
   46MOL   C29114781  -7.100   9.213   8.237 -0.2586  0.3909 -1.1892
   46MOL   C29214782  -7.150   9.184   8.359 -0.2591 -0.1605 -0.5473
   46MOL   C29314783  -7.254   9.267   8.420 -0.5854  0.0432 -0.2756
   46MOL   C29414784  -7.326   9.354   8.340  0.1527 -0.0451  0.6345
   46MOL   C29514785  -7.448   9.429   8.388 -0.8400  0.4425  0.3056
   46MOL   C29614786  -7.281   9.378   8.209 -0.4685 -0.1483  0.1735
   46MOL   C29714787  -7.164   9.309   8.158  0.3172 -0.3272  0.3064
   46MOL   H29814788  -6.970   9.043   8.219  1.2612  0.6416 -0.0921
   46MOL   H29914789  -6.976   9.135   8.071  0.9812 -2.4437 -0.2678
   46MOL   H30014790  -7.115   9.108   8.427 -3.2287 -0.1965  1.0112
   46MOL   H30114791  -7.287   9.243   8.520  2.9812  1.0943  1.2144
   46MOL   H30214792  -7.439   9.467   8.490  0.4446  1.9796 -0.3693
   46MOL   H30314793  -7.465   9.515   8.324  1.6026  1.7033  1.2882
   46MOL   H30414794  -7.320   9.451   8.140  0.2625 -0.3322 -0.4451
   46MOL   H30514795  -7.123   9.342   8.063 -0.4627 -1.0329 -0.2849
   46MOL   C30614796  -7.572   9.344   8.385  0.9257  0.0941 -0.1894
   46MOL   C30714797  -7.702   9.413   8.409  0.0962 -0.1020  0.0119
   46MOL   C30814798  -7.760   9.496   8.317  0.0973 -0.4609  0.2722
   46MOL   C30914799  -7.874   9.573   8.344  0.0499 -0.0422 -0.0951
   46MOL   C31014800  -7.946   9.557   8.468  0.2389 -0.1099 -0.2726
   46MOL   C31114801  -8.071   9.627   8.491  0.5782  0.1457  0.0201
   46MOL   C31214802  -7.887   9.471   8.567  0.0970 -0.6629 -0.2371
   46MOL   C31314803  -7.762   9.415   8.537 -0.3950 -0.0604 -0.6163
   46MOL   H31414804  -7.561   9.261   8.455 -1.6495 -1.0434 -1.0537
   46MOL   H31514805  -7.576   9.291   8.290  1.8809  0.8164 -0.6418
   46MOL   H31614806  -7.710   9.503   8.221 -0.6316 -0.5120 -0.1158
   46MOL   H31714807  -7.913   9.640   8.269 -2.2796  0.5172  1.5808
   46MOL   H31814808  -8.131   9.606   8.402  1.4514 -2.1101 -0.0541
   46MOL   H31914809  -8.120   9.592   8.582  4.1443 -0.6699  1.7097
   46MOL   H32014810  -7.924   9.465   8.668 -3.2134 -3.1819 -1.5195
   46MOL   H32114811  -7.720   9.357   8.618  1.0948  0.5503 -0.9471
   46MOL   H32214812  -8.043   9.732   8.491  0.4850  0.1899 -1.9632
   47MOL     C114813   7.893   6.188   7.352  0.3820 -1.0712  0.2993
   47MOL     C214814   8.045   6.201   7.349  0.3239 -0.1266 -0.1656
   47MOL     C314815   8.118   6.128   7.252  0.4641  0.2025 -0.3168
   47MOL     C414816   8.259   6.129   7.262  1.2775  0.1870 -0.4691
   47MOL     C514817   8.327   6.195   7.368 -0.7317  0.1638  0.0834
   47MOL     C614818   8.483   6.187   7.367 -0.7442  0.3930 -0.3653
   47MOL     C714819   8.250   6.269   7.459  0.9076 -0.5328  0.8323
   47MOL     C814820   8.110   6.268   7.449 -0.1515  0.4308 -0.3817
   47MOL     H914821   7.860   6.267   7.285  1.0260  0.0422  1.2618
   47MOL    H1014822   7.858   6.096   7.305  3.3390  0.1721 -4.7199
   47MOL    H1114823   8.067   6.084   7.167 -0.0421  0.6377 -0.2387
   47MOL    H1214824   8.314   6.069   7.192  4.4979  0.8456  1.4231
   47MOL    H1314825   8.527   6.205   7.269  0.5180  0.9070  0.2877
   47MOL    H1414826   8.520   6.260   7.438 -3.6926  1.1267  0.4727
   47MOL    H1514827   8.293   6.320   7.544 -0.5673 -0.4263  1.5229
   47MOL    H1614828   8.056   6.316   7.530  0.5697 -0.9417  0.9320
   47MOL    H1714829   7.840   6.206   7.445  0.3663  0.2082  0.0471
   47MOL    C1814830   8.522   6.044   7.412 -0.3915 -0.0712 -0.2014
   47MOL    C1914831   8.672   6.025   7.399 -0.3386 -0.2368 -0.2136
   47MOL    C2014832   8.727   5.957   7.284 -0.5780 -0.0325 -0.0480
   47MOL    C2114833   8.868   5.925   7.277  0.0261 -0.0047 -0.3318
   47MOL    C2214834   8.951   5.973   7.379 -0.1114 -0.1103 -0.6104
   47MOL    C2314835   9.099   5.966   7.363  0.0854 -0.0993  0.0940
   47MOL    C2414836   8.900   6.038   7.490  0.6522  0.0249  0.4278
   47MOL    C2514837   8.758   6.067   7.502 -0.0542 -0.3337 -0.0144
   47MOL    H2614838   8.502   6.012   7.514  0.3262 -3.4544 -1.0695
   47MOL    H2714839   8.472   5.974   7.345  1.4204 -1.6880  0.1012
   47MOL    H2814840   8.665   5.924   7.202 -0.8051  1.6512 -0.5712
   47MOL    H2914841   8.898   5.867   7.191 -1.8910  1.4511 -2.0169
   47MOL    H3014842   9.154   6.034   7.427 -2.2903  3.5508 -1.5295
   47MOL    H3114843   9.125   5.990   7.260  1.7687 -3.5401 -0.3482
   47MOL    H3214844   8.965   6.079   7.566  1.6400  0.2634 -0.5347
   47MOL    H3314845   8.711   6.138   7.567  0.1476  0.4186 -0.6890
   47MOL    C3414846   9.151   5.823   7.394  0.6949  0.0934 -0.8056
   47MOL    C3514847   9.293   5.818   7.343 -0.1616  0.8266  0.2685
   47MOL    C3614848   9.407   5.872   7.415 -0.2089  0.5352 -0.1202
   47MOL    C3714849   9.535   5.863   7.359  0.2486  0.1618 -0.3514
   47MOL    C3814850   9.559   5.789   7.246  0.7185  0.2499  0.9763
   47MOL    C3914851   9.705   5.779   7.194  0.3530  0.7477  0.0247
   47MOL    C4014852   9.453   5.734   7.173 -0.1594 -0.0398 -0.2217
   47MOL    C4114853   9.318   5.750   7.217 -0.2441  0.1067 -1.0412
   47MOL    H4214854   9.087   5.751   7.342  0.4134  1.4157 -2.3172
   47MOL    H4314855   9.157   5.797   7.500 -1.4091  2.6890 -0.0095
   47MOL    H4414856   9.380   5.926   7.504  2.6453 -2.7862  2.9188
   47MOL    H4514857   9.616   5.916   7.408 -2.3087  2.6666  1.3329
   47MOL    H4614858   9.695   5.736   7.094 -0.9133 -1.2388  0.9716
   47MOL    H4714859   9.752   5.877   7.197 -0.5999  1.2923 -1.9619
   47MOL    H4814860   9.473   5.677   7.084 -0.6835 -0.0128 -0.3629
   47MOL    H4914861   9.234   5.721   7.156 -1.2876 -0.9647  0.8461
   47MOL    C5014862   9.785   5.673   7.281 -0.2093  0.4168 -0.1824
   47MOL    C5114863   9.925   5.636   7.223 -0.9834 -0.1720 -0.2950
   47MOL    C5214864   9.930   5.559   7.107 -0.5181 -0.2970 -0.0451
   47MOL    C5314865  10.054   5.515   7.057  0.4016  0.0594 -0.1297
   47MOL    C5414866  10.175   5.545   7.122 -0.6438 -0.3269 -0.1358
   47MOL    C5514867  10.307   5.492   7.065 -0.3614 -0.0819 -0.0426
   47MOL    C5614868  10.166   5.627   7.241  0.1263  0.1907  0.1794
   47MOL    C5714869  10.046   5.681   7.288  0.5690  0.2077  0.0862
   47MOL    H5814870   9.733   5.577   7.280 -0.8497  0.6843  2.9089
   47MOL    H5914871   9.800   5.702   7.385  2.4918 -2.9467  0.4452
   47MOL    H6014872   9.837   5.541   7.056  0.7832  0.2921 -2.7116
   47MOL    H6114873  10.053   5.456   6.966 -1.7911  0.8072 -0.6334
   47MOL    H6214874  10.280   5.461   6.964 -0.9404  1.0623 -0.2505
   47MOL    H6314875  10.365   5.583   7.051 -0.1529 -0.2719 -0.4074
   47MOL    H6414876  10.259   5.649   7.292  0.8197  0.9620 -1.3781
   47MOL    H6514877  10.050   5.737   7.381 -1.0550  0.6143 -0.0665
   47MOL    C6614878  10.381   5.388   7.146  0.1174 -1.0774  0.5560
   47MOL    C6714879  10.521   5.370   7.094  0.2186  0.1299 -0.0152
   47MOL    C6814880  10.634   5.414   7.174  0.0963  0.3460 -0.3247
   47MOL    C6914881  10.765   5.401   7.115 -0.4026  0.7681 -0.4058
   47MOL    C7014882  10.781   5.353   6.982  0.2657  0.1808 -0.9226
   47MOL    C7114883  10.921   5.362   6.913  0.1611 -0.0507 -0.0170
   47MOL    C7214884  10.667   5.305   6.912 -0.5943 -0.3949 -0.3687
   47MOL    C7314885  10.539   5.310   6.973 -0.5219  0.2652  0.0552
   47MOL    H7414886  10.335   5.290   7.159  0.1153 -1.4561 -2.0499
   47MOL    H7514887  10.398   5.440   7.240 -2.0312  2.1084 -0.7424
   47MOL    H7614888  10.614   5.459   7.270  0.6724 -1.5202  0.6936
   47MOL    H7714889  10.854   5.438   7.165  1.6283 -2.3647 -1.5636
   47MOL    H7814890  10.922   5.299   6.825 -1.2633 -1.6348  1.0614
   47MOL    H7914891  10.986   5.312   6.985  0.2508  1.2728  0.8412
   47MOL    H8014892  10.672   5.263   6.813 -0.6841 -1.0548 -0.0965
   47MOL    H8114893  10.458   5.267   6.916 -1.0411  0.4226  0.6762
   47MOL    C8214894  10.959   5.506   6.868 -0.5713 -0.2906  0.5551
   47MOL    C8314895  11.099   5.511   6.816  0.1082 -0.6222 -0.5484
   47MOL    C8414896  11.195   5.600   6.870  0.0724  0.4018  0.2755
   47MOL    C8514897  11.325   5.606   6.818  0.3518 -0.3685 -0.2612
   47MOL    C8614898  11.356   5.522   6.709  0.1245 -0.0206 -0.0278
   47MOL    C8714899  11.495   5.516   6.652  0.0431  0.2771  0.5879
   47MOL    C8814900  11.262   5.439   6.652 -0.5102  0.0967  0.5752
   47MOL    C8914901  11.134   5.428   6.711 -0.3099 -0.2486  0.5055
   47MOL    H9014902  10.952   5.579   6.948 -0.8897  1.7767 -1.3289
   47MOL    H9114903  10.892   5.543   6.791  1.6220  1.1135 -0.7388
   47MOL    H9214904  11.152   5.668   6.941 -2.1394 -0.5938 -0.0873
   47MOL    H9314905  11.399   5.674   6.859  1.3406 -0.9345 -1.0889
   47MOL    H9414906  11.539   5.613   6.628 -1.3919  1.0950  1.2305
   47MOL    H9514907  11.487   5.472   6.552 -0.0183  0.5248  0.4835
   47MOL    H9614908  11.295   5.382   6.566  0.7314  0.8016  0.5699
   47MOL    H9714909  11.063   5.361   6.666  0.7785 -1.0497 -0.0545
   47MOL    C9814910  11.580   5.427   6.738  0.4839  0.2038 -0.2192
   47MOL    C9914911  11.715   5.400   6.673 -0.3170  0.8270 -0.1641
   47MOL   C10014912  11.822   5.456   6.733  0.3300 -0.2836  0.6716
   47MOL   C10114913  11.953   5.431   6.684 -0.8620  0.6193  0.1307
   47MOL   C10214914  11.971   5.334   6.580  0.2269 -0.7800  0.1805
   47MOL   C10314915  12.111   5.315   6.532 -0.4008  0.5383  0.2813
   47MOL   C10414916  11.858   5.268   6.528 -0.2514 -0.0343 -0.1971
   47MOL   C10514917  11.733   5.304   6.570  0.3797 -0.0801  0.5749
   47MOL   H10614918  11.516   5.340   6.754 -0.2635  0.9413  0.9403
   47MOL   H10714919  11.593   5.466   6.839 -0.1707  0.3600 -0.1949
   47MOL   H10814920  11.822   5.526   6.815  0.6669  0.2952  0.1833
   47MOL   H10914921  12.047   5.465   6.724 -0.1432  1.1000 -1.9051
   47MOL   H11014922  12.175   5.398   6.561  0.1907  0.8294 -1.7612
   47MOL   H11114923  12.151   5.218   6.558 -0.2967  0.0374 -1.6856
   47MOL   H11214924  11.875   5.201   6.445  0.2750 -1.5083  1.0698
   47MOL   H11314925  11.641   5.257   6.536  0.4611 -1.7276  2.5295
   47MOL   C11414926  12.115   5.320   6.374 -0.5272  0.4476  0.3747
   47MOL   C11514927  12.250   5.278   6.317  0.0129 -0.2143 -0.3302
   47MOL   C11614928  12.368   5.285   6.384 -0.2556  0.2745  0.2225
   47MOL   C11714929  12.491   5.229   6.340  0.4107 -0.0741 -0.3789
   47MOL   C11814930  12.496   5.168   6.210 -0.3344  0.3339  0.6550
   47MOL   C11914931  12.623   5.082   6.164 -0.0940 -0.3562  0.4267
   47MOL   C12014932  12.378   5.176   6.127  0.4610  0.4160 -0.0567
   47MOL   C12114933  12.262   5.234   6.184  1.0284 -0.0038  0.3075
   47MOL   H12214934  12.091   5.422   6.342  1.1292  0.5651 -0.5771
   47MOL   H12314935  12.040   5.259   6.325 -0.3649 -1.3411  2.2886
   47MOL   H12414936  12.370   5.309   6.489  1.8746 -0.2069  0.3249
   47MOL   H12514937  12.582   5.228   6.397  1.1767 -2.4994 -1.5983
   47MOL   H12614938  12.706   5.153   6.158 -1.5071  1.3512  0.5784
   47MOL   H12714939  12.646   5.023   6.253 -1.0650  0.2421  1.0838
   47MOL   H12814940  12.375   5.127   6.031 -0.3406 -0.0160  0.1846
   47MOL   H12914941  12.174   5.239   6.122  1.3751 -0.3210 -0.2170
   47MOL   C13014942  12.603   4.992   6.041  1.3458 -0.6218  0.3167
   47MOL   C13114943  12.739   4.927   6.013  0.4260  0.1635  0.8174
   47MOL   C13214944  12.803   4.943   5.894 -0.4949 -0.3002  0.5663
   47MOL   C13314945  12.929   4.878   5.878  0.0491 -0.0653 -0.1202
   47MOL   C13414946  12.986   4.798   5.976  0.0180  0.0938 -0.3620
   47MOL   C13514947  13.125   4.734   5.963  0.1590  0.2857  0.0399
   47MOL   C13614948  12.921   4.781   6.099  0.3662 -0.5150  0.6443
   47MOL   C13714949  12.794   4.841   6.114  0.4808  0.2153 -0.5318
   47MOL   H13814950  12.567   5.051   5.957 -1.3205 -2.0269  0.4259
   47MOL   H13914951  12.523   4.923   6.068  0.8007  0.1434  0.6723
   47MOL   H14014952  12.760   5.000   5.813 -1.8253 -2.8302 -0.5835
   47MOL   H14114953  12.980   4.882   5.782 -0.0990  0.0127 -0.1969
   47MOL   H14214954  13.131   4.652   6.035 -1.9337  1.0860  1.1716
   47MOL   H14314955  13.125   4.681   5.868  0.9072  1.2947 -0.5360
   47MOL   H14414956  12.970   4.728   6.178  0.6700 -2.0496 -0.5486
   47MOL   H14514957  12.732   4.820   6.200  2.1553 -2.7869  0.0272
   47MOL   C14614958  13.243   4.838   5.966 -0.4337 -0.6065  0.0696
   47MOL   C14714959  13.355   4.780   6.050  0.7370 -0.0535 -0.1168
   47MOL   C14814960  13.406   4.847   6.167 -0.0592  0.5729  0.3842
   47MOL   C14914961  13.504   4.791   6.253  0.0073 -0.5093 -0.1166
   47MOL   C15014962  13.561   4.671   6.217  0.2503  0.2515 -0.0674
   47MOL   C15114963  13.675   4.605   6.302 -0.0719  0.7203  0.5398
   47MOL   C15214964  13.516   4.605   6.101  0.1971  0.0572  0.2303
   47MOL   C15314965  13.422   4.662   6.014  0.6160 -0.1380 -0.0791
   47MOL   H15414966  13.198   4.923   6.018 -0.0932  0.7522 -1.8054
   47MOL   H15514967  13.271   4.863   5.864 -1.6786 -1.5045 -0.5079
   47MOL   H15614968  13.372   4.946   6.192  0.9299  0.9841  0.1066
   47MOL   H15714969  13.536   4.841   6.343  1.3804  2.6458 -2.2716
   47MOL   H15814970  13.729   4.544   6.229  1.6277  1.0017  1.5396
   47MOL   H15914971  13.737   4.682   6.349 -0.1829 -0.7943  3.2857
   47MOL   H16014972  13.569   4.518   6.066  3.4111  1.6500  0.9359
   47MOL   H16114973  13.396   4.615   5.920  0.6251 -0.4709  0.0855
   47MOL   C16214974  13.623   4.505   6.398  0.2980 -0.5793  0.1091
   47MOL   C16314975  13.527   4.564   6.503  0.3441  0.1923 -0.2507
   47MOL   C16414976  13.389   4.569   6.472  0.0199  0.6684 -0.2271
   47MOL   C16514977  13.300   4.624   6.574  0.9656 -0.0002  0.8932
   47MOL   C16614978  13.348   4.669   6.695  0.4548 -0.3371 -1.0283
   47MOL   C16714979  13.255   4.718   6.800 -0.1793 -0.1649  0.4894
   47MOL   C16814980  13.485   4.666   6.725  0.2331  0.5063  0.2455
   47MOL   C16914981  13.577   4.623   6.623 -0.0447 -0.3576  0.3369
   47MOL   H17014982  13.709   4.455   6.443  1.2267  0.9339  0.0229
   47MOL   H17114983  13.570   4.434   6.335 -1.9162  0.4763  0.7092
   47MOL   H17214984  13.349   4.541   6.376  3.2896  0.5131 -1.6026
   47MOL   H17314985  13.195   4.622   6.547  0.5540  2.5984  2.2106
   47MOL   H17414986  13.159   4.667   6.796 -0.4212  0.3579 -0.5926
   47MOL   H17514987  13.297   4.700   6.899  1.5772 -1.5382 -0.4743
   47MOL   H17614988  13.521   4.705   6.819 -2.8164  0.3691  1.5189
   47MOL   H17714989  13.684   4.616   6.640 -0.3334 -2.6954  1.5310
   47MOL   C17814990  13.234   4.865   6.773 -0.1242 -0.0583 -0.1719
   47MOL   C17914991  13.125   4.923   6.858 -0.0899  0.1670  0.3444
   47MOL   C18014992  12.992   4.873   6.832 -0.0036 -0.2358  0.0593
   47MOL   C18114993  12.879   4.928   6.900 -0.8309  0.0403  0.3975
   47MOL   C18214994  12.894   5.045   6.984  0.2330 -0.6028 -0.5052
   47MOL   C18314995  12.777   5.109   7.055  0.8953  0.0553  0.2017
   47MOL   C18414996  13.029   5.091   7.002  0.4720 -0.0817 -0.4029
   47MOL   C18514997  13.138   5.033   6.944 -0.3714 -0.1114 -0.4884
   47MOL   H18614998  13.199   4.887   6.672  2.0197 -1.9912 -1.3943
   47MOL   H18714999  13.323   4.924   6.791  0.8568 -1.3853 -0.6224
   47MOL   H18815000  12.984   4.799   6.753  1.2969 -0.3418  0.0166
   47MOL   H18915001  12.785   4.874   6.898 -1.3295  0.9462 -0.6986
   47MOL   H19015002  12.774   5.217   7.043 -3.1724 -0.0032 -0.0807
   47MOL   H19115003  12.682   5.067   7.021  1.5926 -0.5541 -1.0333
   47MOL   H19215004  13.057   5.177   7.061 -2.1388  0.6349 -0.1591
   47MOL   H19315005  13.238   5.071   6.963 -0.1306 -0.8379 -0.2965
   47MOL   C19415006  12.777   5.075   7.200  0.2778 -0.2115  0.0047
   47MOL   C19515007  12.654   5.124   7.275  0.1086  0.0614  0.2492
   47MOL   C19615008  12.631   5.258   7.302  0.1960 -0.4144  0.2680
   47MOL   C19715009  12.514   5.304   7.366  0.0269  0.5923 -0.5613
   47MOL   C19815010  12.419   5.210   7.415 -0.5657  0.1525  0.5335
   47MOL   C19915011  12.301   5.257   7.481  0.4246 -0.5886  1.1034
   47MOL   C20015012  12.442   5.077   7.384 -0.4277 -0.1927  0.1609
   47MOL   C20115013  12.559   5.035   7.316 -0.4079  0.1678  0.4277
   47MOL   H20215014  12.857   5.127   7.252  0.9462 -2.4216  1.2266
   47MOL   H20315015  12.784   4.970   7.226  1.4180  0.4592  2.5325
   47MOL   H20415016  12.691   5.337   7.259 -0.0018  1.0055  2.5231
   47MOL   H20515017  12.496   5.411   7.368 -2.6615  0.1598  0.8830
   47MOL   H20615018  12.249   5.183   7.541 -1.1879  0.6810  1.2930
   47MOL   H20715019  12.322   5.342   7.546 -1.7302  0.5704  0.3130
   47MOL   H20815020  12.364   5.016   7.427 -1.1118  0.4305 -0.1772
   47MOL   H20915021  12.577   4.930   7.297 -0.4092  0.0264  1.1670
   47MOL   C21015022  12.200   5.306   7.378 -0.1988  0.5528 -0.0559
   47MOL   C21115023  12.061   5.331   7.423 -0.8774 -0.4049  0.3620
   47MOL   C21215024  11.995   5.219   7.475  0.4362  0.3402  0.3059
   47MOL   C21315025  11.864   5.233   7.523  0.2539  0.7554  0.4106
   47MOL   C21415026  11.802   5.364   7.513  0.6381  0.8878  0.2022
   47MOL   C21515027  11.661   5.380   7.552  0.0322  0.6525  0.2825
   47MOL   C21615028  11.876   5.474   7.463 -0.7828  0.2564 -0.2802
   47MOL   C21715029  12.005   5.459   7.411 -0.4094 -0.4832 -1.0623
   47MOL   H21815030  12.187   5.237   7.294  0.1123 -1.5099  1.5773
   47MOL   H21915031  12.239   5.402   7.341 -0.1820  1.1098  1.3779
   47MOL   H22015032  12.036   5.120   7.470  2.2527  1.1190 -0.4657
   47MOL   H22115033  11.811   5.149   7.566  1.2349 -0.9734 -1.6608
   47MOL   H22215034  11.603   5.403   7.463  1.6436  1.0327 -0.6748
   47MOL   H22315035  11.621   5.291   7.602 -2.4227  2.0013  0.7805
   47MOL   H22415036  11.841   5.576   7.469  2.1877  1.3828 -1.3279
   47MOL   H22515037  12.040   5.543   7.352 -0.5704  1.0559  0.9950
   47MOL   C22615038  11.636   5.489   7.652  0.5776 -0.7168 -0.5745
   47MOL   C22715039  11.485   5.528   7.664 -0.1692  0.2090 -0.1138
   47MOL   C22815040  11.446   5.656   7.617  0.1782  0.0081 -1.1294
   47MOL   C22915041  11.312   5.698   7.629  0.1690 -0.3592 -0.2879
   47MOL   C23015042  11.217   5.610   7.682 -0.7290 -0.1497  0.2905
   47MOL   C23115043  11.072   5.643   7.691  0.0742  0.0047  0.4388
   47MOL   C23215044  11.255   5.481   7.728 -0.1757  0.2485 -0.6196
   47MOL   C23315045  11.386   5.435   7.714  0.4689 -0.6323  0.4537
   47MOL   H23415046  11.689   5.580   7.624 -3.4726  1.3206 -1.9640
   47MOL   H23515047  11.669   5.450   7.749  0.9167  0.5042 -0.1928
   47MOL   H23615048  11.515   5.732   7.586 -0.0919  0.5076 -0.5023
   47MOL   H23715049  11.292   5.801   7.603 -1.4610 -0.3268  0.9865
   47MOL   H23815050  11.029   5.610   7.785  1.2009 -0.4198  0.8091
   47MOL   H23915051  11.057   5.751   7.686 -0.6130 -0.1382 -0.6980
   47MOL   H24015052  11.183   5.413   7.771  0.8211 -0.2085  0.3559
   47MOL   H24115053  11.417   5.337   7.747  0.8633 -1.1774 -1.4868
   47MOL   C24215054  10.994   5.581   7.570 -0.6683  0.2250  0.3581
   47MOL   C24315055  10.850   5.633   7.559  0.8491 -0.2398 -0.6508
   47MOL   C24415056  10.830   5.764   7.506 -0.1368  0.8703  0.1251
   47MOL   C24515057  10.703   5.815   7.497 -0.1214  0.3402 -0.5773
   47MOL   C24615058  10.589   5.734   7.542 -0.1832  0.0032  0.1210
   47MOL   C24715059  10.450   5.783   7.534 -0.0386 -0.4573  0.2637
   47MOL   C24815060  10.608   5.611   7.596  0.1150 -0.4014  0.0716
   47MOL   C24915061  10.742   5.557   7.613 -0.3913  1.0059 -0.1997
   47MOL   H25015062  11.049   5.604   7.479 -3.4895  2.3165 -0.9282
   47MOL   H25115063  10.991   5.473   7.582 -0.0584  0.3295  1.5629
   47MOL   H25215064  10.918   5.820   7.478 -0.2657 -0.0483 -2.1777
   47MOL   H25315065  10.677   5.913   7.461 -0.8898 -0.2954 -1.8296
   47MOL   H25415066  10.430   5.846   7.448  1.0010 -0.1802  0.2119
   47MOL   H25515067  10.382   5.698   7.522  0.0879 -0.2404 -2.1559
   47MOL   H25615068  10.517   5.555   7.612 -0.6619  1.4018  2.1948
   47MOL   H25715069  10.752   5.464   7.667 -0.5427 -0.9221 -3.3096
   47MOL   C25815070  10.414   5.872   7.653  0.7743 -0.5636  0.5455
   47MOL   C25915071  10.270   5.900   7.654 -0.0683  0.2818 -0.3784
   47MOL   C26015072  10.213   6.014   7.587 -0.0092 -0.3224  0.2503
   47MOL   C26115073  10.070   6.027   7.583 -0.2551  0.2098 -0.4193
   47MOL   C26215074   9.987   5.937   7.651  0.5261 -0.6656 -0.4803
   47MOL   C26315075   9.838   5.952   7.656  0.3321 -0.4808 -0.2255
   47MOL   C26415076  10.053   5.820   7.707 -0.3555 -0.3638 -0.3578
   47MOL   C26515077  10.189   5.804   7.705  0.1562 -0.2958 -0.1785
   47MOL   H26615078  10.475   5.962   7.660  0.2138 -0.2284  1.2961
   47MOL   H26715079  10.439   5.825   7.749  0.4053  1.3889  1.6220
   47MOL   H26815080  10.268   6.086   7.528 -0.3171 -0.3412 -0.0645
   47MOL   H26915081  10.031   6.106   7.521 -1.2178 -0.4685 -0.6928
   47MOL   H27015082   9.801   6.014   7.574 -0.9085 -0.4014  0.3788
   47MOL   H27115083   9.791   5.853   7.650  0.6308 -0.5765 -0.9904
   47MOL   H27215084   9.997   5.748   7.766  0.3366 -0.5391  0.0847
   47MOL   H27315085  10.221   5.714   7.757  0.8413 -0.6876 -1.2594
   47MOL   C27415086   9.784   6.017   7.780  0.4366  0.2585  0.2506
   47MOL   C27515087   9.638   6.034   7.773  0.2865  0.3197 -0.0129
   47MOL   C27615088   9.585   6.142   7.705  0.5534  0.1512  0.2785
   47MOL   C27715089   9.444   6.157   7.701 -0.2394  0.3261 -0.1617
   47MOL   C27815090   9.356   6.063   7.753 -0.4375 -0.1456 -0.5309
   47MOL   C27915091   9.209   6.092   7.745  0.1115  0.1720 -0.4607
   47MOL   C28015092   9.415   5.940   7.805  0.0879  0.0989  1.3412
   47MOL   C28115093   9.555   5.933   7.817  0.1272  0.6135 -0.1640
   47MOL   H28215094   9.813   5.959   7.867 -0.5816 -0.4821  0.1103
   47MOL   H28315095   9.832   6.114   7.776  1.0587 -0.0264  0.6278
   47MOL   H28415096   9.653   6.218   7.669  1.6337 -0.5918  0.7192
   47MOL   H28515097   9.396   6.242   7.656 -2.4793 -1.3178 -0.9500
   47MOL   H28615098   9.185   6.129   7.646  0.0014  1.2783 -0.0361
   47MOL   H28715099   9.157   5.998   7.762  1.3987 -0.5977 -0.7023
   47MOL   H28815100   9.352   5.862   7.845 -0.0623 -1.3613 -1.5642
   47MOL   H28915101   9.589   5.850   7.877  2.1511  0.4686 -1.4686
   47MOL   C29015102   9.172   6.204   7.846  0.6422  1.1476 -0.0024
   47MOL   C29115103   9.023   6.245   7.846 -0.5039  0.1044 -0.4859
   47MOL   C29215104   8.926   6.162   7.905 -0.2801 -0.2894 -0.4697
   47MOL   C29315105   8.796   6.201   7.924  0.6290 -0.2345  0.2237
   47MOL   C29415106   8.757   6.330   7.877 -0.8723  0.0399  0.4121
   47MOL   C29515107   8.618   6.376   7.898 -0.8755  0.6688  0.1526
   47MOL   C29615108   8.856   6.413   7.816  0.6093  0.1014 -0.1938
   47MOL   C29715109   8.986   6.374   7.807  0.5414  0.0480  0.2028
   47MOL   H29815110   9.234   6.293   7.843  0.5952  1.1384 -1.7106
   47MOL   H29915111   9.189   6.162   7.945 -4.4552  2.4242  1.5749
   47MOL   H30015112   8.950   6.064   7.940 -0.0050  0.0442  0.2758
   47MOL   H30115113   8.720   6.142   7.973 -0.7978  0.7929 -0.6921
   47MOL   H30215114   8.584   6.326   7.988 -1.4161  1.5786  0.4686
   47MOL   H30315115   8.620   6.483   7.923  0.2831  0.5497  0.6454
   47MOL   H30415116   8.831   6.508   7.771  1.9528  0.1349 -0.9072
   47MOL   H30515117   9.048   6.444   7.754 -1.0036  1.3653  0.0886
   47MOL   C30615118   8.537   6.357   7.775  0.3022  0.3731 -0.2766
   47MOL   C30715119   8.392   6.401   7.787  0.5108  0.7813 -0.0886
   47MOL   C30815120   8.348   6.521   7.727 -0.1629 -0.4150 -0.4799
   47MOL   C30915121   8.214   6.557   7.737 -1.2407  0.7298  0.2185
   47MOL   C31015122   8.119   6.475   7.809  0.2421  0.1764 -0.0675
   47MOL   C31115123   7.975   6.511   7.817 -0.1007 -0.4835  0.8246
   47MOL   C31215124   8.163   6.351   7.861 -0.2514 -0.7759 -0.4388
   47MOL   C31315125   8.300   6.318   7.856  0.1113 -0.3904  0.2521
   47MOL   H31415126   8.539   6.254   7.740  0.9854  0.3931 -0.3057
   47MOL   H31515127   8.593   6.414   7.701  0.3481  1.0387  0.2593
   47MOL   H31615128   8.412   6.576   7.659 -1.3281 -0.9637 -2.0569
   47MOL   H31715129   8.184   6.651   7.693 -1.3398  0.7195  0.2625
   47MOL   H31815130   7.918   6.440   7.757  0.8338 -0.5520 -0.0066
   47MOL   H31915131   7.940   6.495   7.919 -0.2002  2.2680  1.2470
   47MOL   H32015132   8.093   6.275   7.893  1.5155 -2.6733 -0.9711
   47MOL   H32115133   8.341   6.226   7.895  0.4020 -0.3446  0.0559
   47MOL   H32215134   7.952   6.615   7.795 -0.4154 -0.4092  1.5046
   48MOL     C115135   1.141   4.422   4.526  0.3174 -0.1598 -0.1369
   48MOL     C215136   0.993   4.430   4.533  0.4840 -0.4994 -0.1597
   48MOL     C315137   0.916   4.509   4.448 -0.2680  0.3934 -0.0425
   48MOL     C415138   0.777   4.513   4.462 -0.3075 -0.5715  0.5677
   48MOL     C515139   0.711   4.427   4.555  0.5096  0.4657 -0.0652
   48MOL     C615140   0.557   4.425   4.562 -0.5819 -0.7450  0.5720
   48MOL     C715141   0.787   4.353   4.645  0.3167  0.4187  0.3223
   48MOL     C815142   0.930   4.353   4.631 -0.5578  0.3203 -0.0768
   48MOL     H915143   1.167   4.376   4.621 -0.7447 -0.8859 -0.1847
   48MOL    H1015144   1.152   4.355   4.441  1.1530  1.5217 -1.3817
   48MOL    H1115145   0.958   4.585   4.384  0.8495 -1.1115 -1.1439
   48MOL    H1215146   0.719   4.579   4.398 -2.0959 -0.4469  2.2630
   48MOL    H1315147   0.530   4.395   4.663 -0.6615 -0.1369  0.7356
   48MOL    H1415148   0.510   4.522   4.550  0.2203 -0.4841 -0.5433
   48MOL    H1515149   0.745   4.287   4.719 -0.8615 -0.6488 -1.2663
   48MOL    H1615150   0.990   4.286   4.690  0.4388 -0.0952 -1.5366
   48MOL    H1715151   1.188   4.519   4.511  0.2445 -0.0895  0.0866
   48MOL    C1815152   0.491   4.320   4.476 -0.4684  0.6248  0.8760
   48MOL    C1915153   0.339   4.344   4.479 -0.2641  0.4470  0.3773
   48MOL    C2015154   0.267   4.419   4.385 -0.4388  1.0407 -0.0895
   48MOL    C2115155   0.126   4.434   4.400  0.8593 -0.4260  0.2037
   48MOL    C2215156   0.058   4.381   4.512 -1.1893 -0.5035 -0.0176
   48MOL    C2315157  -0.089   4.409   4.522  0.4421 -0.2296  0.0074
   48MOL    C2415158   0.134   4.312   4.609  0.3834 -0.0808 -0.7979
   48MOL    C2515159   0.268   4.288   4.591  0.2536 -0.6415  0.5632
   48MOL    H2615160   0.525   4.328   4.372  0.0860  0.7146  1.0636
   48MOL    H2715161   0.505   4.220   4.515 -0.2427  0.2435 -0.1666
   48MOL    H2815162   0.310   4.477   4.305 -1.7256  1.7312 -0.2855
   48MOL    H2915163   0.068   4.486   4.325  0.6730 -1.7988 -0.6314
   48MOL    H3015164  -0.096   4.504   4.468  1.9550 -0.3134 -0.3625
   48MOL    H3115165  -0.122   4.423   4.625 -3.9889 -2.0581 -1.0452
   48MOL    H3215166   0.087   4.261   4.692  0.1263 -0.2758 -1.0596
   48MOL    H3315167   0.326   4.233   4.663 -1.5221 -2.4407  0.6467
   48MOL    C3415168  -0.181   4.293   4.462  0.2831 -0.4127  0.3537
   48MOL    C3515169  -0.329   4.326   4.493 -0.1064  0.0626  0.0559
   48MOL    C3615170  -0.368   4.318   4.627  0.7021 -0.1497 -0.6281
   48MOL    C3715171  -0.501   4.341   4.663  0.0406 -0.4335 -0.3310
   48MOL    C3815172  -0.596   4.385   4.568 -0.1082  0.4728 -0.0984
   48MOL    C3915173  -0.739   4.406   4.595 -0.2214  0.0731  0.5248
   48MOL    C4015174  -0.554   4.393   4.430 -0.6690 -0.2969  0.8192
   48MOL    C4115175  -0.421   4.364   4.396  0.0878 -0.4996  1.1232
   48MOL    H4215176  -0.168   4.192   4.499 -2.9640 -1.5390 -1.3554
   48MOL    H4315177  -0.160   4.287   4.355 -1.0227  1.1950 -0.0200
   48MOL    H4415178  -0.295   4.294   4.703 -0.3280 -0.8075  0.1603
   48MOL    H4515179  -0.532   4.325   4.765 -1.2135 -1.9279 -0.9282
   48MOL    H4615180  -0.750   4.410   4.703 -3.6003  2.7578  0.1450
   48MOL    H4715181  -0.752   4.505   4.551  0.9636 -1.2962 -3.0603
   48MOL    H4815182  -0.631   4.426   4.362 -1.2120 -1.7826  0.7015
   48MOL    H4915183  -0.391   4.365   4.292  0.0030 -1.0363  1.0919
   48MOL    C5015184  -0.834   4.294   4.548  1.5644 -0.4967  0.5532
   48MOL    C5115185  -0.984   4.313   4.535  0.5133  0.4913 -0.3720
   48MOL    C5215186  -1.050   4.325   4.406 -0.3082 -0.2163  0.6194
   48MOL    C5315187  -1.191   4.338   4.398  0.7098  0.5179 -0.4277
   48MOL    C5415188  -1.266   4.361   4.513 -1.0680  0.0871 -0.4257
   48MOL    C5515189  -1.408   4.392   4.490  0.0682 -0.0484 -0.6415
   48MOL    C5615190  -1.205   4.350   4.642 -0.7619 -0.5695 -0.2617
   48MOL    C5715191  -1.066   4.330   4.652  0.0501 -0.2790  0.4135
   48MOL    H5815192  -0.813   4.194   4.586  0.0046 -0.9770  0.1520
   48MOL    H5915193  -0.798   4.278   4.447  0.0793  2.4862 -0.4727
   48MOL    H6015194  -0.988   4.323   4.318  0.6578  0.8316  1.2727
   48MOL    H6115195  -1.223   4.354   4.296  1.3709 -0.5987 -0.8156
   48MOL    H6215196  -1.445   4.445   4.578 -0.3396 -0.3442 -0.6305
   48MOL    H6315197  -1.430   4.461   4.409 -0.9136 -0.4359 -0.7172
   48MOL    H6415198  -1.262   4.357   4.733  0.8389 -0.8745  0.7879
   48MOL    H6515199  -1.015   4.338   4.747 -1.6854  0.8698  1.2926
   48MOL    C6615200  -1.489   4.260   4.458  0.2909 -0.2646 -0.7586
   48MOL    C6715201  -1.637   4.288   4.455  0.0009 -0.6680  0.3916
   48MOL    C6815202  -1.708   4.288   4.582 -0.2034  0.0765 -0.1570
   48MOL    C6915203  -1.847   4.290   4.590 -0.8059  0.1638 -0.0752
   48MOL    C7015204  -1.918   4.312   4.468  0.0160 -0.4062 -0.2775
   48MOL    C7115205  -2.070   4.320   4.477  0.6532 -0.1830  0.0220
   48MOL    C7215206  -1.852   4.319   4.346 -0.0782 -0.6283  0.1535
   48MOL    C7315207  -1.714   4.309   4.341  0.2089 -0.6487 -0.0573
   48MOL    H7415208  -1.477   4.183   4.535 -1.4996  1.1766  1.0153
   48MOL    H7515209  -1.450   4.219   4.364 -1.0148 -0.1957 -1.3353
   48MOL    H7615210  -1.659   4.274   4.678  1.4420  2.1530 -0.6652
   48MOL    H7715211  -1.894   4.272   4.685  0.0719  0.6522  0.4656
   48MOL    H7815212  -2.099   4.393   4.552  1.6655  0.1012  0.1464
   48MOL    H7915213  -2.098   4.224   4.519  0.7255 -0.4763 -0.5954
   48MOL    H8015214  -1.906   4.311   4.253 -1.1243  1.7004  0.5249
   48MOL    H8115215  -1.655   4.306   4.251 -0.4532  0.2281 -0.5318
   48MOL    C8215216  -2.152   4.328   4.349 -0.1752 -0.0998 -0.1085
   48MOL    C8315217  -2.305   4.314   4.369  0.1652  0.6876 -0.9463
   48MOL    C8415218  -2.398   4.324   4.262 -0.2225 -0.1787  0.0326
   48MOL    C8515219  -2.533   4.301   4.277 -0.5094  0.2754 -0.1549
   48MOL    C8615220  -2.583   4.257   4.400  0.1035  0.0974 -0.2692
   48MOL    C8715221  -2.723   4.209   4.405 -0.6959 -0.4946  0.0582
   48MOL    C8815222  -2.495   4.250   4.515 -1.1704 -0.1140  0.1078
   48MOL    C8915223  -2.358   4.288   4.499  0.5864  0.3218 -0.1474
   48MOL    H9015224  -2.130   4.246   4.281 -1.2278 -1.2703  0.9370
   48MOL    H9115225  -2.127   4.415   4.289  1.4273 -0.3580  0.1728
   48MOL    H9215226  -2.357   4.347   4.165 -0.0961 -2.0239 -0.3732
   48MOL    H9315227  -2.595   4.315   4.190  1.4029  2.0817 -1.2698
   48MOL    H9415228  -2.742   4.169   4.504  0.9420 -1.9883 -0.2152
   48MOL    H9515229  -2.734   4.135   4.326  2.2555 -1.5056  0.5446
   48MOL    H9615230  -2.530   4.202   4.606 -0.3714 -4.0826 -1.5494
   48MOL    H9715231  -2.295   4.283   4.586 -1.8921 -2.3607  1.5896
   48MOL    C9815232  -2.813   4.335   4.383  0.7757  0.4097 -0.2228
   48MOL    C9915233  -2.960   4.312   4.341 -0.3865 -0.8601 -0.4036
   48MOL   C10015234  -3.047   4.251   4.436 -0.2654 -0.4539  0.1572
   48MOL   C10115235  -3.181   4.226   4.402  0.1464 -0.3787 -0.1651
   48MOL   C10215236  -3.222   4.245   4.267  1.5811 -0.1343  0.9239
   48MOL   C10315237  -3.363   4.236   4.223 -0.0876 -0.2436 -0.9695
   48MOL   C10415238  -3.132   4.308   4.177  0.1888  0.6925 -0.0087
   48MOL   C10515239  -2.999   4.334   4.205 -0.7899 -0.4917  0.3532
   48MOL   H10615240  -2.761   4.396   4.309  1.6123 -0.2011 -0.1456
   48MOL   H10715241  -2.798   4.412   4.459 -0.1380 -0.0761  0.4613
   48MOL   H10815242  -3.007   4.218   4.531 -2.4207 -4.0383 -0.0485
   48MOL   H10915243  -3.248   4.173   4.468 -0.5009  3.2020  2.1258
   48MOL   H11015244  -3.369   4.235   4.115 -1.0513  2.3128 -0.9745
   48MOL   H11115245  -3.403   4.138   4.248 -2.8423  0.9529 -0.5312
   48MOL   H11215246  -3.160   4.326   4.074 -1.5118  2.1785  0.6752
   48MOL   H11315247  -2.929   4.361   4.127  1.2420 -1.6250  1.7100
   48MOL   C11415248  -3.444   4.351   4.276  0.2631  0.4140  0.6796
   48MOL   C11515249  -3.593   4.341   4.269  0.5460  0.5652 -0.3981
   48MOL   C11615250  -3.658   4.255   4.177  0.1326  0.0096  0.4016
   48MOL   C11715251  -3.797   4.253   4.173 -0.2024  0.1230  0.1967
   48MOL   C11815252  -3.876   4.327   4.264 -0.1653  0.1049 -0.4917
   48MOL   C11915253  -4.028   4.319   4.249  0.2954 -0.0646  0.2978
   48MOL   C12015254  -3.813   4.411   4.350  0.0441 -0.1316  0.0924
   48MOL   C12115255  -3.671   4.421   4.353  0.0357 -0.1404  0.6911
   48MOL   H12215256  -3.408   4.436   4.217  1.7880 -0.7648 -0.1368
   48MOL   H12315257  -3.427   4.371   4.381 -2.9220  0.4197  1.2297
   48MOL   H12415258  -3.597   4.184   4.124  0.0787 -0.0183  0.3775
   48MOL   H12515259  -3.851   4.180   4.116  1.4625 -0.4686 -0.6386
   48MOL   H12615260  -4.059   4.231   4.192 -1.0926  0.8555 -0.3756
   48MOL   H12715261  -4.077   4.303   4.345  0.7681 -2.3871  0.1928
   48MOL   H12815262  -3.864   4.487   4.408  0.2004 -1.4068  1.9774
   48MOL   H12915263  -3.629   4.494   4.421 -0.4318 -0.5767  1.4624
   48MOL   C13015264  -4.085   4.449   4.193  0.5006 -0.3676 -0.5677
   48MOL   C13115265  -4.236   4.442   4.166  0.2575  1.0477  0.5666
   48MOL   C13215266  -4.272   4.341   4.074 -0.3281 -0.0010  0.4208
   48MOL   C13315267  -4.410   4.318   4.045 -0.0838  0.6554 -0.0442
   48MOL   C13415268  -4.508   4.403   4.103 -0.1816  0.2479  0.7149
   48MOL   C13515269  -4.655   4.384   4.070  0.2371  0.1756  0.5914
   48MOL   C13615270  -4.468   4.493   4.207  0.1572 -0.1866  0.2973
   48MOL   C13715271  -4.334   4.508   4.242  0.0995 -0.6452  0.6847
   48MOL   H13815272  -4.030   4.477   4.103 -1.3754 -1.4520 -2.0973
   48MOL   H13915273  -4.068   4.531   4.263 -0.6990  0.0307 -0.7372
   48MOL   H14015274  -4.195   4.287   4.021 -2.1059 -1.0091 -1.1700
   48MOL   H14115275  -4.450   4.232   3.993 -0.6546  0.5239  0.5999
   48MOL   H14215276  -4.668   4.283   4.032 -0.2521  0.5077 -0.1295
   48MOL   H14315277  -4.715   4.398   4.160  0.7636 -0.3365  1.0259
   48MOL   H14415278  -4.541   4.559   4.251  0.7264  0.9526 -0.4693
   48MOL   H14515279  -4.296   4.568   4.323  1.4685 -1.3128  0.5719
   48MOL   C14615280  -4.697   4.475   3.957 -0.1055  0.3077  0.5441
   48MOL   C14715281  -4.841   4.451   3.930  0.1029 -0.0031 -0.7097
   48MOL   C14815282  -4.934   4.531   4.003 -0.2933  0.6306 -0.3303
   48MOL   C14915283  -5.072   4.510   3.979  0.2546  0.1013 -0.4092
   48MOL   C15015284  -5.118   4.408   3.890 -0.4216 -0.3681  0.3788
   48MOL   C15115285  -5.264   4.391   3.866 -0.4077  0.3544  0.5812
   48MOL   C15215286  -5.024   4.328   3.820  0.7971  0.1914  0.5911
   48MOL   C15315287  -4.886   4.353   3.838 -0.3906 -0.3353  0.1918
   48MOL   H15415288  -4.626   4.446   3.880  1.1394  0.0937  1.7565
   48MOL   H15515289  -4.675   4.580   3.980 -1.2070  0.3792  1.3033
   48MOL   H15615290  -4.886   4.595   4.075 -0.6324  1.5959 -0.9553
   48MOL   H15715291  -5.145   4.570   4.031  0.2480 -1.3035  1.2191
   48MOL   H15815292  -5.292   4.286   3.871  1.4741 -0.3657 -2.4576
   48MOL   H15915293  -5.315   4.423   3.957  0.9001  0.8228  1.1600
   48MOL   H16015294  -5.059   4.255   3.748  0.6843  1.6117 -0.8222
   48MOL   H16115295  -4.821   4.294   3.775 -1.3782  0.5354 -1.7234
   48MOL   C16215296  -5.323   4.456   3.736  0.0956 -0.0349 -0.2267
   48MOL   C16315297  -5.471   4.466   3.732  0.0261 -0.0532 -0.4837
   48MOL   C16415298  -5.535   4.586   3.770 -0.1802  0.9196 -0.7412
   48MOL   C16515299  -5.674   4.596   3.773  0.3496 -0.2333  0.4464
   48MOL   C16615300  -5.750   4.478   3.733 -0.1699  0.2722 -0.9229
   48MOL   C16715301  -5.899   4.487   3.754 -0.8927  0.0331  0.2356
   48MOL   C16815302  -5.686   4.355   3.704 -0.0542 -0.0783 -0.1386
   48MOL   C16915303  -5.547   4.354   3.699 -0.4782  0.1091 -0.0935
   48MOL   H17015304  -5.297   4.388   3.655 -1.3478  1.1275 -1.7069
   48MOL   H17115305  -5.276   4.551   3.711 -1.0334  0.5980  0.0236
   48MOL   H17215306  -5.470   4.670   3.791 -1.9824  1.8795  1.2668
   48MOL   H17315307  -5.722   4.691   3.794 -1.1182 -0.6898 -0.7465
   48MOL   H17415308  -5.943   4.388   3.745 -1.0358  0.1938 -0.9703
   48MOL   H17515309  -5.907   4.524   3.856  0.8706  1.7731 -0.2154
   48MOL   H17615310  -5.750   4.268   3.701  0.0435 -0.1113 -1.6629
   48MOL   H17715311  -5.479   4.274   3.671 -0.6502  0.4269 -1.4294
   48MOL   C17815312  -5.975   4.576   3.656 -0.0402 -0.2584  0.2181
   48MOL   C17915313  -6.123   4.585   3.664  0.0026 -0.0726 -0.2838
   48MOL   C18015314  -6.186   4.685   3.735  0.1419 -0.2814  0.2106
   48MOL   C18115315  -6.320   4.710   3.719  0.0465 -0.3894  0.4221
   48MOL   C18215316  -6.399   4.623   3.642  0.4964 -0.1377 -0.4977
   48MOL   C18315317  -6.547   4.645   3.625 -0.3311 -0.5116  0.4308
   48MOL   C18415318  -6.342   4.506   3.587 -0.2661 -0.6550  0.0998
   48MOL   C18515319  -6.203   4.496   3.590  0.1299 -0.1854 -0.1720
   48MOL   H18615320  -5.942   4.557   3.554 -1.9811  0.0592 -0.4881
   48MOL   H18715321  -5.940   4.679   3.670  1.5501 -0.7740  0.1326
   48MOL   H18815322  -6.133   4.762   3.789  0.8558 -0.4005 -0.3081
   48MOL   H18915323  -6.361   4.788   3.781  1.9588  0.1829  1.0306
   48MOL   H19015324  -6.545   4.749   3.596  0.6781 -0.5346  0.3983
   48MOL   H19115325  -6.597   4.593   3.543  1.2808  2.2444 -2.3789
   48MOL   H19215326  -6.406   4.447   3.524  0.1440 -0.9594 -0.0345
   48MOL   H19315327  -6.151   4.422   3.531  1.4705 -0.0955  0.8739
   48MOL   C19415328  -6.622   4.628   3.759  0.3025  0.7488  0.2149
   48MOL   C19515329  -6.762   4.673   3.755  0.7924  0.6797 -0.4340
   48MOL   C19615330  -6.789   4.799   3.697 -0.2076 -0.1270 -0.1420
   48MOL   C19715331  -6.922   4.851   3.686  0.1156  0.2261  0.7628
   48MOL   C19815332  -7.030   4.778   3.740  0.2087  0.2471 -0.1761
   48MOL   C19915333  -7.172   4.843   3.740  0.3138 -0.0003  0.0191
   48MOL   C20015334  -7.003   4.649   3.799  0.3007 -0.2750  0.1144
   48MOL   C20115335  -6.870   4.601   3.817  0.3197  0.5903  0.0651
   48MOL   H20215336  -6.577   4.681   3.843  1.0553  1.5455 -0.6874
   48MOL   H20315337  -6.623   4.522   3.788 -2.3875  0.5868 -0.3182
   48MOL   H20415338  -6.709   4.858   3.657 -0.4035 -0.2435 -0.7218
   48MOL   H20515339  -6.933   4.952   3.649 -3.0215 -0.7283 -1.1380
   48MOL   H20615340  -7.203   4.890   3.834  0.2646 -0.6174  0.3154
   48MOL   H20715341  -7.170   4.914   3.658  0.3995 -1.8035 -1.5743
   48MOL   H20815342  -7.084   4.594   3.844  0.5040 -1.6618 -1.1706
   48MOL   H20915343  -6.852   4.508   3.867  0.6966  1.0048  0.7035
   48MOL   C21015344  -7.284   4.741   3.705  0.4070  0.5331 -0.0019
   48MOL   C21115345  -7.426   4.796   3.704 -0.0085 -0.1783  0.0293
   48MOL   C21215346  -7.471   4.871   3.592  0.1301  0.6016 -0.2186
   48MOL   C21315347  -7.602   4.913   3.597 -0.0529  0.2612  0.0394
   48MOL   C21415348  -7.685   4.894   3.713  0.4685 -0.3994 -0.0362
   48MOL   C21515349  -7.814   4.960   3.715  0.6349  0.2981  0.2239
   48MOL   C21615350  -7.636   4.817   3.823  0.3316 -0.2054 -0.0597
   48MOL   C21715351  -7.510   4.764   3.815 -0.1479  0.0026  0.1800
   48MOL   H21815352  -7.278   4.654   3.770 -0.3532 -0.5665 -1.4007
   48MOL   H21915353  -7.268   4.693   3.609 -0.3786 -1.3806  0.8118
   48MOL   H22015354  -7.412   4.894   3.504  1.6179  0.1070  0.6203
   48MOL   H22115355  -7.638   4.975   3.516 -0.0877 -0.1758 -0.2804
   48MOL   H22215356  -7.846   4.998   3.812  0.6341 -1.0459  0.7736
   48MOL   H22315357  -7.803   5.042   3.644  1.2581  2.8412  3.1434
   48MOL   H22415358  -7.697   4.805   3.911 -1.8109 -1.7399 -1.7060
   48MOL   H22515359  -7.469   4.712   3.901 -0.8252  2.2035  1.8777
   48MOL   C22615360  -7.935   4.864   3.675  0.3283  0.1862 -0.3196
   48MOL   C22715361  -8.065   4.944   3.667  0.2892 -0.5501  0.5015
   48MOL   C22815362  -8.133   4.973   3.788  0.1548  0.0169  0.1670
   48MOL   C22915363  -8.256   5.039   3.781  0.2881  0.1602  0.8256
   48MOL   C23015364  -8.305   5.086   3.655  0.6562 -0.8013  0.0375
   48MOL   C23115365  -8.442   5.151   3.639  0.0500 -0.4126 -0.0313
   48MOL   C23215366  -8.230   5.077   3.539  0.4161 -0.2882 -0.1022
   48MOL   C23315367  -8.111   5.000   3.547  0.5565 -0.3904  0.6610
   48MOL   H23415368  -7.945   4.786   3.750 -0.9484  1.9183  1.3675
   48MOL   H23515369  -7.916   4.810   3.583 -1.1778  2.8471 -2.2832
   48MOL   H23615370  -8.097   4.935   3.883 -1.3321 -0.0031  0.7297
   48MOL   H23715371  -8.319   5.038   3.868 -0.6092 -3.9989  0.2356
   48MOL   H23815372  -8.480   5.129   3.540  0.4110 -0.4058 -0.1743
   48MOL   H23915373  -8.503   5.103   3.715 -0.5128  2.5984  1.5191
   48MOL   H24015374  -8.265   5.122   3.448  0.3876 -0.3563 -0.1250
   48MOL   H24115375  -8.056   4.987   3.455  1.9895  1.3416  1.2411
   48MOL   C24215376  -8.440   5.307   3.655  0.1455  0.8332 -0.7618
   48MOL   C24315377  -8.580   5.360   3.674 -0.0767 -1.3725  0.4282
   48MOL   C24415378  -8.685   5.314   3.596 -0.2855 -0.0092  0.1398
   48MOL   C24515379  -8.805   5.385   3.604  0.2119 -0.6130  0.2369
   48MOL   C24615380  -8.824   5.494   3.693  0.5710  0.6823 -0.3039
   48MOL   C24715381  -8.961   5.565   3.698 -0.5109  0.6503  0.6761
   48MOL   C24815382  -8.718   5.541   3.776  0.1049  0.3449 -0.1687
   48MOL   C24915383  -8.594   5.469   3.763 -0.1182 -0.0436  0.3703
   48MOL   H25015384  -8.384   5.335   3.744  2.9329  1.6039 -2.6817
   48MOL   H25115385  -8.385   5.361   3.578 -0.5731 -1.2010 -2.7415
   48MOL   H25215386  -8.666   5.242   3.517 -2.1730 -0.2545 -0.1170
   48MOL   H25315387  -8.879   5.371   3.527  1.7672  0.8977 -1.6034
   48MOL   H25415388  -8.952   5.670   3.726  1.0217  0.9589 -0.8981
   48MOL   H25515389  -8.990   5.571   3.593 -0.0885  0.9987  0.5778
   48MOL   H25615390  -8.734   5.621   3.846 -0.7890 -1.1271  1.3494
   48MOL   H25715391  -8.510   5.491   3.827 -0.7373 -0.0302  1.1894
   48MOL   C25815392  -9.077   5.497   3.783 -0.2490  0.2623  0.4721
   48MOL   C25915393  -9.218   5.548   3.758  0.2238 -0.1685 -0.0955
   48MOL   C26015394  -9.267   5.659   3.831 -0.1346  0.5634 -0.1325
   48MOL   C26115395  -9.399   5.693   3.815 -0.2470 -0.7455  0.1706
   48MOL   C26215396  -9.483   5.621   3.731 -0.3326  0.1240 -0.2336
   48MOL   C26315397  -9.634   5.649   3.719  0.5917 -0.0856 -0.2768
   48MOL   C26415398  -9.434   5.515   3.648  0.4534 -0.1744  0.2616
   48MOL   C26515399  -9.301   5.475   3.673 -0.1659 -0.1387  0.7524
   48MOL   H26615400  -9.048   5.505   3.887 -0.6165 -3.7989  0.9793
   48MOL   H26715401  -9.092   5.390   3.764  0.6817  0.1609  0.2846
   48MOL   H26815402  -9.206   5.713   3.902  1.1332  1.1171 -1.6123
   48MOL   H26915403  -9.446   5.760   3.886 -0.7590 -1.5229  0.5631
   48MOL   H27015404  -9.642   5.749   3.761  1.9245  0.3543 -1.0667
   48MOL   H27115405  -9.639   5.662   3.611  1.1008  4.4204  0.1768
   48MOL   H27215406  -9.499   5.455   3.585 -0.9984  1.8284 -0.2046
   48MOL   H27315407  -9.267   5.382   3.630 -0.2228  0.7391 -1.2129
   48MOL   C27415408  -9.727   5.541   3.779 -0.0891 -0.4198 -0.1047
   48MOL   C27515409  -9.870   5.575   3.744  0.1317 -0.7066  0.6367
   48MOL   C27615410  -9.933   5.497   3.648 -0.7611  0.7214 -0.6835
   48MOL   C27715411 -10.065   5.513   3.619 -0.2770 -0.3172 -0.1707
   48MOL   C27815412 -10.125   5.631   3.676 -1.0914 -0.2105  0.4320
   48MOL   C27915413 -10.273   5.651   3.650  0.1172  0.1012 -0.9615
   48MOL   C28015414 -10.053   5.727   3.745  0.4409 -0.4421 -0.5037
   48MOL   C28115415  -9.930   5.697   3.790 -0.3286 -0.3595 -0.6108
   48MOL   H28215416  -9.708   5.440   3.745  1.1315 -0.3455  0.3277
   48MOL   H28315417  -9.724   5.555   3.887 -0.3410 -1.0658 -0.0127
   48MOL   H28415418  -9.874   5.417   3.606 -0.8492  0.0996  0.3508
   48MOL   H28515419 -10.112   5.446   3.549  0.8949 -0.7554 -0.5316
   48MOL   H28615420 -10.299   5.750   3.689 -1.0498 -1.0236  1.2201
   48MOL   H28715421 -10.298   5.640   3.545 -0.9040  1.8119 -0.9168
   48MOL   H28815422 -10.097   5.813   3.793  2.6394  0.5654 -0.2700
   48MOL   H28915423  -9.880   5.765   3.857 -3.0117  0.0468  1.0348
   48MOL   C29015424 -10.355   5.541   3.720 -0.1637  0.3459 -0.0095
   48MOL   C29115425 -10.508   5.573   3.722  0.4906 -0.9039  0.5679
   48MOL   C29215426 -10.593   5.502   3.812 -0.0557 -0.1285  0.1783
   48MOL   C29315427 -10.734   5.505   3.810 -0.3914 -0.6713  0.0786
   48MOL   C29415428 -10.796   5.593   3.711  0.7663  0.6228  0.4064
   48MOL   C29515429 -10.946   5.611   3.709 -0.4480  0.5621  0.1758
   48MOL   C29615430 -10.713   5.660   3.621 -0.0967 -0.3146 -0.0239
   48MOL   C29715431 -10.572   5.654   3.622 -0.2122 -0.1265  0.2028
   48MOL   H29815432 -10.325   5.529   3.824  1.4668 -0.3947 -0.5634
   48MOL   H29915433 -10.329   5.442   3.683  1.1657 -0.1897  2.2549
   48MOL   H30015434 -10.556   5.441   3.893  0.0675  1.2455  1.1869
   48MOL   H30115435 -10.786   5.456   3.890 -2.1021  1.3505  0.2397
   48MOL   H30215436 -10.973   5.570   3.806 -0.0915  1.4340  0.6554
   48MOL   H30315437 -10.983   5.713   3.697 -0.3083  0.7161  1.0730
   48MOL   H30415438 -10.765   5.718   3.547  1.4899 -1.3703 -1.9925
   48MOL   H30515439 -10.516   5.697   3.541 -0.4778 -1.5413 -0.7563
   48MOL   C30615440 -11.012   5.514   3.610 -0.1310  0.1840  0.8246
   48MOL   C30715441 -11.160   5.554   3.589 -0.2413  0.1622 -1.3371
   48MOL   C30815442 -11.256   5.533   3.690 -0.6960 -0.0345  0.0219
   48MOL   C30915443 -11.384   5.584   3.666 -0.5428 -0.0140  0.5749
   48MOL   C31015444 -11.422   5.636   3.540 -0.4569  0.1371  0.1020
   48MOL   C31115445 -11.558   5.694   3.510 -0.4583  0.5739  0.0692
   48MOL   C31215446 -11.329   5.651   3.437 -0.1153  0.6031 -0.0187
   48MOL   C31315447 -11.200   5.616   3.464  0.4659  0.2654  1.0073
   48MOL   H31415448 -11.012   5.407   3.626  1.7616 -0.1181 -1.0323
   48MOL   H31515449 -10.958   5.514   3.516 -0.0532  1.3178  0.8537
   48MOL   H31615450 -11.228   5.488   3.785 -0.3453 -0.2718 -0.1941
   48MOL   H31715451 -11.452   5.578   3.750  1.0524 -1.3886  1.8011
   48MOL   H31815452 -11.581   5.765   3.590 -1.0548  1.6614 -1.0387
   48MOL   H31915453 -11.547   5.752   3.417 -1.0262 -0.7506 -0.8360
   48MOL   H32015454 -11.360   5.697   3.344  1.3259 -2.4872 -2.1291
   48MOL   H32115455 -11.119   5.628   3.393 -0.4939  2.7634  0.2774
   48MOL   H32215456 -11.636   5.618   3.510  1.2522 -1.2043  0.8408
   49MOL     C115457   4.520   5.888   7.790 -0.1953  0.0285  0.8524
   49MOL     C215458   4.666   5.857   7.755 -0.0921 -0.6695 -0.0006
   49MOL     C315459   4.700   5.771   7.651 -0.2237 -0.3556 -0.5117
   49MOL     C415460   4.835   5.744   7.614 -0.0206 -0.1567  0.4417
   49MOL     C515461   4.940   5.814   7.682  0.3063 -0.2834  0.7587
   49MOL     C615462   5.078   5.797   7.638  0.0623 -0.0083  0.0362
   49MOL     C715463   4.906   5.900   7.786  0.1448 -0.1218 -0.2747
   49MOL     C815464   4.772   5.917   7.827 -0.5947 -0.3081 -0.4379
   49MOL     H915465   4.507   5.820   7.874 -0.0751 -1.6919 -0.4858
   49MOL    H1015466   4.503   5.993   7.814  0.0367 -0.1132  1.6564
   49MOL    H1115467   4.624   5.724   7.591 -0.8574  1.8052 -1.4553
   49MOL    H1215468   4.862   5.673   7.537  2.7061  2.2993 -0.9787
   49MOL    H1315469   5.072   5.708   7.575 -0.7547 -0.4115  0.6759
   49MOL    H1415470   5.090   5.890   7.583  1.0412 -0.7192 -0.9622
   49MOL    H1515471   4.986   5.950   7.839  1.6630 -1.1209 -1.5513
   49MOL    H1615472   4.759   5.986   7.909 -2.9791 -2.0816  0.7674
   49MOL    H1715473   4.460   5.849   7.708  0.1543  0.5962  0.3178
   49MOL    C1815474   5.181   5.770   7.752  0.0986  0.4847 -0.0277
   49MOL    C1915475   5.318   5.739   7.690 -0.2251  0.0603 -0.6505
   49MOL    C2015476   5.412   5.845   7.690 -0.4890 -0.1274  0.6241
   49MOL    C2115477   5.544   5.819   7.646 -0.4212  0.1916 -0.5176
   49MOL    C2215478   5.584   5.692   7.598  0.6968 -0.4282 -0.8697
   49MOL    C2315479   5.721   5.676   7.556  0.3323  0.3798  0.2210
   49MOL    C2415480   5.491   5.586   7.598 -0.4067 -0.0710 -0.3992
   49MOL    C2515481   5.360   5.613   7.653  0.0386 -0.4779 -1.1546
   49MOL    H2615482   5.200   5.864   7.805 -0.6781  0.1392  0.8586
   49MOL    H2715483   5.155   5.693   7.824  0.2782  0.3242 -0.1334
   49MOL    H2815484   5.382   5.946   7.715 -1.0113 -0.5462  1.7398
   49MOL    H2915485   5.622   5.893   7.656 -1.0477  0.8560 -0.5301
   49MOL    H3015486   5.753   5.576   7.585 -0.5785  0.5692  1.9720
   49MOL    H3115487   5.788   5.731   7.623  0.6795 -0.1526  0.3097
   49MOL    H3215488   5.534   5.491   7.567 -1.5120 -0.8539  0.4539
   49MOL    H3315489   5.289   5.532   7.647  0.3686 -0.8991  0.4051
   49MOL    C3415490   5.758   5.720   7.413 -0.3143 -0.1645 -0.2076
   49MOL    C3515491   5.906   5.698   7.383 -0.4519 -0.4800  0.5152
   49MOL    C3615492   5.953   5.570   7.372  0.1494  0.0015  0.7523
   49MOL    C3715493   6.091   5.546   7.343  0.4135  0.0646  0.9135
   49MOL    C3815494   6.181   5.651   7.328 -0.3870 -0.1518  0.3686
   49MOL    C3915495   6.322   5.608   7.301 -0.3345 -0.1760 -0.0356
   49MOL    C4015496   6.126   5.784   7.335  0.4349  0.3186 -0.1550
   49MOL    C4115497   5.992   5.805   7.356  0.5548 -0.2766  0.1036
   49MOL    H4215498   5.725   5.824   7.408 -0.4427 -0.1503  0.8768
   49MOL    H4315499   5.697   5.665   7.341  1.0491  0.8049 -2.1777
   49MOL    H4415500   5.889   5.485   7.386 -0.9414  0.5698 -0.6459
   49MOL    H4515501   6.134   5.448   7.332 -0.4433 -0.1031 -1.3119
   49MOL    H4615502   6.370   5.699   7.339 -0.9339  0.6352 -1.1785
   49MOL    H4715503   6.351   5.520   7.358 -0.2042 -0.5156 -0.6189
   49MOL    H4815504   6.193   5.867   7.318  0.6413  0.5290  1.6794
   49MOL    H4915505   5.952   5.906   7.356 -0.7001 -0.7457  2.5145
   49MOL    C5015506   6.353   5.591   7.149 -0.1753 -0.1772  0.4436
   49MOL    C5115507   6.500   5.539   7.132  0.0151 -0.0252  0.6684
   49MOL    C5215508   6.534   5.401   7.122  0.7792 -0.1484 -0.8099
   49MOL    C5315509   6.666   5.366   7.085 -0.2681  0.2815  0.5303
   49MOL    C5415510   6.771   5.460   7.062  0.1685 -0.0800  0.6465
   49MOL    C5515511   6.913   5.407   7.034 -0.4187  0.4311 -0.6133
   49MOL    C5615512   6.733   5.598   7.073  0.1469  0.2252 -0.4296
   49MOL    C5715513   6.601   5.637   7.113  0.0492  0.3220  0.0049
   49MOL    H5815514   6.346   5.684   7.092 -1.9492 -0.2224  0.5604
   49MOL    H5915515   6.283   5.515   7.114 -0.3738 -0.9973  2.5031
   49MOL    H6015516   6.448   5.338   7.138  2.2925 -2.4319 -1.3757
   49MOL    H6115517   6.693   5.263   7.064  3.1337  1.2808 -0.3459
   49MOL    H6215518   6.971   5.420   7.125 -0.1635  0.0810 -0.7276
   49MOL    H6315519   6.922   5.303   7.003  3.4752 -0.2762  2.6627
   49MOL    H6415520   6.806   5.676   7.057 -0.3718  1.3017  2.1495
   49MOL    H6515521   6.569   5.740   7.123 -2.8089 -0.3549 -1.7463
   49MOL    C6615522   6.996   5.494   6.933 -0.5029  0.2161 -0.6473
   49MOL    C6715523   7.137   5.441   6.902 -0.0049 -0.4731  0.1965
   49MOL    C6815524   7.152   5.337   6.803  0.9571 -0.1400 -0.4696
   49MOL    C6915525   7.284   5.278   6.790 -0.1232  0.2692 -0.4416
   49MOL    C7015526   7.396   5.323   6.863 -0.2028  0.0537  0.7942
   49MOL    C7115527   7.539   5.272   6.827 -0.1059 -0.5419  0.3290
   49MOL    C7215528   7.377   5.428   6.957 -0.7029  0.0516 -0.3942
   49MOL    C7315529   7.251   5.483   6.969 -0.4498  0.7368 -0.3996
   49MOL    H7415530   6.997   5.597   6.970 -1.7104 -0.4064  1.1875
   49MOL    H7515531   6.937   5.493   6.841 -0.9416  0.5555 -0.3724
   49MOL    H7615532   7.067   5.306   6.744 -0.3099 -0.2099  1.3438
   49MOL    H7715533   7.289   5.201   6.714 -2.4200 -0.2829 -0.0853
   49MOL    H7815534   7.597   5.348   6.775 -0.6399  1.1101  2.0812
   49MOL    H7915535   7.532   5.182   6.766  1.8301 -1.6071  1.5930
   49MOL    H8015536   7.461   5.461   7.016 -1.0365  2.5673 -1.2472
   49MOL    H8115537   7.245   5.562   7.043 -0.4586  0.5583 -0.2096
   49MOL    C8215538   7.629   5.230   6.940 -0.6281 -0.6132  0.5010
   49MOL    C8315539   7.770   5.207   6.883  0.2991 -0.1726  0.2397
   49MOL    C8415540   7.861   5.311   6.871  0.0302 -0.5700  0.0334
   49MOL    C8515541   7.992   5.285   6.834  0.4183  0.3227  0.2283
   49MOL    C8615542   8.022   5.155   6.782 -0.1072  0.1356  0.6457
   49MOL    C8715543   8.156   5.127   6.717  0.3752 -0.1395 -0.0225
   49MOL    C8815544   7.926   5.055   6.781 -0.2218 -0.0199 -0.1757
   49MOL    C8915545   7.799   5.078   6.836  0.2131  0.4809 -0.5000
   49MOL    H9015546   7.586   5.139   6.983  0.8410 -0.0895  3.1814
   49MOL    H9115547   7.645   5.311   7.011 -1.2111  1.6961 -1.9385
   49MOL    H9215548   7.838   5.412   6.901  4.3028 -0.0373  1.8905
   49MOL    H9315549   8.068   5.361   6.823 -0.4718  0.9681 -1.8229
   49MOL    H9415550   8.191   5.221   6.674 -0.6209 -0.3862 -1.4199
   49MOL    H9515551   8.142   5.048   6.643  0.8405 -1.3764  1.2037
   49MOL    H9615552   7.944   4.956   6.742 -3.2543 -1.5115  1.9895
   49MOL    H9715553   7.714   5.011   6.829  0.4511  0.3504 -2.2835
   49MOL    C9815554   8.260   5.066   6.811  0.1670  0.5935 -0.3860
   49MOL    C9915555   8.388   5.050   6.735 -0.2740  0.2283  0.8905
   49MOL   C10015556   8.467   5.165   6.735  0.5353 -0.2418  0.1763
   49MOL   C10115557   8.598   5.147   6.680  0.7016 -0.0715 -0.2726
   49MOL   C10215558   8.640   5.022   6.634  0.2088  0.4953 -0.5897
   49MOL   C10315559   8.783   5.000   6.587  0.1729 -0.3860  0.0407
   49MOL   C10415560   8.554   4.910   6.625  0.1853  0.6036  0.2227
   49MOL   C10515561   8.427   4.927   6.679  0.1403 -0.9696  0.8351
   49MOL   H10615562   8.218   4.971   6.844 -1.0444  1.4524  0.6075
   49MOL   H10715563   8.272   5.131   6.898 -1.7210  0.5242 -0.0565
   49MOL   H10815564   8.431   5.264   6.758 -2.2514 -0.7401 -1.7299
   49MOL   H10915565   8.669   5.229   6.677  1.9146 -1.1623 -1.9873
   49MOL   H11015566   8.775   4.951   6.489  0.6331  0.7584 -0.5729
   49MOL   H11115567   8.824   5.097   6.559  0.1578 -0.1119  0.9474
   49MOL   H11215568   8.582   4.813   6.585 -0.0891  0.3016  0.7668
   49MOL   H11315569   8.362   4.841   6.685 -0.3656 -0.7889 -1.5891
   49MOL   C11415570   8.874   4.927   6.684 -0.8587  0.2560 -0.1037
   49MOL   C11515571   9.016   4.903   6.625  0.0458  0.1814  0.2813
   49MOL   C11615572   9.113   5.012   6.620  0.4454  0.7816  0.0524
   49MOL   C11715573   9.243   4.989   6.565 -0.2276  0.3382  0.1617
   49MOL   C11815574   9.275   4.866   6.510 -0.2776 -0.2598 -0.5757
   49MOL   C11915575   9.420   4.833   6.480 -0.6985 -0.2260  0.2003
   49MOL   C12015576   9.179   4.764   6.511 -0.4655 -0.3206  0.9781
   49MOL   C12115577   9.044   4.779   6.563 -0.1852 -0.3446  0.1463
   49MOL   H12215578   8.834   4.836   6.728 -2.0894  0.7806 -0.1392
   49MOL   H12315579   8.890   4.996   6.767  0.8172 -0.0443 -0.1483
   49MOL   H12415580   9.071   5.099   6.667  3.7207  1.7907  1.2332
   49MOL   H12515581   9.305   5.077   6.551 -0.8403  0.6147 -0.8314
   49MOL   H12615582   9.480   4.912   6.526 -1.7500 -1.1609  3.2816
   49MOL   H12715583   9.448   4.741   6.532 -0.5942 -1.0205 -1.2375
   49MOL   H12815584   9.211   4.675   6.460  1.3398 -0.6603  2.6528
   49MOL   H12915585   8.974   4.699   6.547 -1.0377  0.5148 -0.4548
   49MOL   C13015586   9.440   4.819   6.327  0.0074  0.1867  0.3514
   49MOL   C13115587   9.575   4.754   6.292 -0.0674 -0.2778 -0.7278
   49MOL   C13215588   9.690   4.832   6.255  0.1148  0.1504  0.1122
   49MOL   C13315589   9.817   4.772   6.260 -0.4909 -0.3545 -0.0726
   49MOL   C13415590   9.831   4.634   6.299 -0.2455  0.0849 -0.2609
   49MOL   C13515591   9.964   4.565   6.306  0.2587 -0.3473 -0.7596
   49MOL   C13615592   9.720   4.559   6.337  0.1644  0.0820  0.0863
   49MOL   C13715593   9.596   4.622   6.337 -0.1078 -0.1002 -1.8274
   49MOL   H13815594   9.446   4.917   6.281 -1.6877  0.3217  0.3966
   49MOL   H13915595   9.371   4.752   6.276 -1.3128  2.8113 -1.3813
   49MOL   H14015596   9.680   4.936   6.226 -1.2782  0.3095  1.0917
   49MOL   H14115597   9.902   4.832   6.232  0.9665 -1.5328  1.7050
   49MOL   H14215598  10.045   4.634   6.332  1.5136 -1.8967 -0.4582
   49MOL   H14315599   9.960   4.495   6.390 -1.0813  1.0687  0.3781
   49MOL   H14415600   9.731   4.453   6.349 -0.4549 -0.1675 -1.5148
   49MOL   H14515601   9.526   4.552   6.380  1.0753  1.2796  2.5864
   49MOL   C14615602   9.991   4.489   6.184  0.9326 -0.3508  0.0783
   49MOL   C14715603  10.021   4.572   6.059  0.2191 -0.6217 -1.1264
   49MOL   C14815604   9.915   4.632   5.994 -0.0883 -0.3493 -0.2427
   49MOL   C14915605   9.934   4.719   5.885 -0.0630  0.0830 -0.2129
   49MOL   C15015606  10.065   4.731   5.833 -0.3773 -0.1072  0.4220
   49MOL   C15115607  10.084   4.802   5.699  0.3128  0.4738 -0.3841
   49MOL   C15215608  10.171   4.672   5.898 -0.0141 -0.0726  0.1080
   49MOL   C15315609  10.149   4.589   6.010 -0.3219 -0.3745 -0.4229
   49MOL   H15415610   9.909   4.420   6.163  0.2223  0.3205  0.6282
   49MOL   H15515611  10.072   4.418   6.201  0.2113 -2.1368 -3.4331
   49MOL   H15615612   9.814   4.618   6.029 -0.0930  2.6669  1.1228
   49MOL   H15715613   9.843   4.760   5.846  0.8203  1.7838 -0.5132
   49MOL   H15815614  10.030   4.897   5.699  2.0959  1.5217  1.2112
   49MOL   H15915615  10.187   4.831   5.682  0.3782  0.9763  0.8250
   49MOL   H16015616  10.271   4.680   5.859  0.9885 -1.6867  2.2277
   49MOL   H16115617  10.230   4.532   6.054  1.1658  0.1202 -2.4097
   49MOL   C16215618  10.049   4.722   5.571 -0.9264  0.5635 -0.1043
   49MOL   C16315619   9.904   4.711   5.529  0.4499  0.0385  0.2063
   49MOL   C16415620   9.830   4.601   5.578  0.3754 -0.3970  0.0889
   49MOL   C16515621   9.690   4.592   5.562  0.0718 -0.2380  0.0925
   49MOL   C16615622   9.627   4.691   5.490  0.1121  0.2059 -0.1167
   49MOL   C16715623   9.479   4.680   5.471  0.3797 -0.7485  0.1341
   49MOL   C16815624   9.700   4.796   5.432 -0.7496  0.2067 -0.0951
   49MOL   C16915625   9.839   4.805   5.450 -0.0199 -0.3818  0.4332
   49MOL   H17015626  10.086   4.620   5.578 -2.0175  0.2003  0.5537
   49MOL   H17115627  10.113   4.746   5.487 -0.4712 -1.6351 -0.4003
   49MOL   H17215628   9.877   4.531   5.647 -0.5726 -1.1148  0.0147
   49MOL   H17315629   9.629   4.509   5.596 -1.6311  1.1124  0.4356
   49MOL   H17415630   9.442   4.604   5.539 -1.3776 -0.0043  0.0423
   49MOL   H17515631   9.433   4.774   5.505  1.0404 -1.0689  1.9657
   49MOL   H17615632   9.648   4.877   5.383 -1.1186  0.5404  0.8277
   49MOL   H17715633   9.898   4.888   5.413 -0.3950  0.1379  0.9947
   49MOL   C17815634   9.446   4.645   5.322  0.2001  0.2773  0.8165
   49MOL   C17915635   9.297   4.635   5.300  0.1478  0.2265  0.4140
   49MOL   C18015636   9.238   4.713   5.195 -0.1957  0.3685 -0.2200
   49MOL   C18115637   9.097   4.707   5.168 -0.1039  0.0430  0.2425
   49MOL   C18215638   9.011   4.633   5.253  0.6569 -0.4335  0.1152
   49MOL   C18315639   8.865   4.622   5.233  0.1500 -0.6433 -0.0436
   49MOL   C18415640   9.071   4.565   5.362 -0.4913 -0.7365 -0.2374
   49MOL   C18515641   9.208   4.567   5.390 -0.5712  1.1283  0.0033
   49MOL   H18615642   9.481   4.541   5.317  1.7195  0.8085  0.1139
   49MOL   H18715643   9.484   4.714   5.248  0.9923  0.1029  1.0574
   49MOL   H18815644   9.306   4.765   5.130  0.4410  1.6402  1.4256
   49MOL   H18915645   9.048   4.757   5.085 -0.8610  2.1897  1.9221
   49MOL   H19015646   8.842   4.639   5.128 -0.9940 -1.7717  0.0156
   49MOL   H19115647   8.823   4.522   5.244 -1.3423  0.1768  1.9431
   49MOL   H19215648   9.001   4.507   5.421  0.7670 -1.1351  0.9228
   49MOL   H19315649   9.243   4.514   5.477  0.0448  0.4088 -0.6782
   49MOL   C19415650   8.781   4.718   5.311 -0.1078 -0.0529 -0.2155
   49MOL   C19515651   8.631   4.707   5.279  0.5452  0.1955  0.4333
   49MOL   C19615652   8.566   4.753   5.163 -0.2708  0.5346 -0.1065
   49MOL   C19715653   8.424   4.747   5.150 -0.3006 -0.1385  0.5481
   49MOL   C19815654   8.348   4.680   5.246  0.2983 -0.5888 -0.0109
   49MOL   C19915655   8.196   4.669   5.227  0.2341 -0.1420 -0.7790
   49MOL   C20015656   8.409   4.617   5.355 -0.3807 -0.0368  0.3610
   49MOL   C20115657   8.549   4.622   5.363  0.0082 -0.0755  0.3615
   49MOL   H20215658   8.820   4.819   5.306 -0.8231  0.3697  1.9549
   49MOL   H20315659   8.790   4.695   5.418 -1.1996 -0.0085 -0.1091
   49MOL   H20415660   8.613   4.822   5.095 -0.4751  1.0417  0.2603
   49MOL   H20515661   8.385   4.803   5.066  1.0049  1.9853  1.3197
   49MOL   H20615662   8.172   4.708   5.128  2.1906 -0.5097 -1.4243
   49MOL   H20715663   8.165   4.565   5.228 -0.9136  0.1909 -0.7378
   49MOL   H20815664   8.352   4.571   5.434  0.0343  0.7141  1.1060
   49MOL   H20915665   8.600   4.575   5.446  0.1108 -1.7484 -0.6384
   49MOL   C21015666   8.114   4.729   5.344 -0.2398  0.0143 -0.8214
   49MOL   C21115667   7.962   4.722   5.335 -0.4458  0.3966  0.3094
   49MOL   C21215668   7.880   4.720   5.449  0.3210  0.1078  1.0160
   49MOL   C21315669   7.742   4.718   5.434  0.1511 -0.5713 -0.3719
   49MOL   C21415670   7.677   4.717   5.312  0.4133  0.3111 -0.5830
   49MOL   C21515671   7.525   4.689   5.306  0.7842  0.9348  0.4388
   49MOL   C21615672   7.752   4.710   5.192 -0.1593 -0.0071 -0.0075
   49MOL   C21715673   7.893   4.715   5.207 -0.2502  0.0062 -0.0183
   49MOL   H21815674   8.117   4.838   5.355 -1.3982 -0.1194  0.9153
   49MOL   H21915675   8.132   4.682   5.440  0.5057  0.8893 -0.5218
   49MOL   H22015676   7.918   4.716   5.550  3.3608 -1.4771 -0.1103
   49MOL   H22115677   7.675   4.716   5.519 -0.0304 -0.0688 -0.5066
   49MOL   H22215678   7.502   4.650   5.207 -1.2714  2.8993  0.1085
   49MOL   H22315679   7.496   4.611   5.378  0.2599 -0.4258 -1.2152
   49MOL   H22415680   7.708   4.697   5.094  0.9267 -0.1054 -0.4881
   49MOL   H22515681   7.948   4.701   5.115  1.7930 -0.6440  1.2627
   49MOL   C22615682   7.438   4.814   5.335 -0.8088  0.7165  1.0574
   49MOL   C22715683   7.289   4.780   5.353  0.7868  0.4505  0.2729
   49MOL   C22815684   7.224   4.764   5.481 -0.3810 -0.3059  0.0188
   49MOL   C22915685   7.091   4.733   5.482  0.0153 -0.3707  0.8996
   49MOL   C23015686   7.018   4.705   5.371 -0.0475  0.6652 -0.2671
   49MOL   C23115687   6.872   4.676   5.385 -1.0502  0.4326 -0.3559
   49MOL   C23215688   7.078   4.722   5.246  0.2559 -0.3315 -0.6158
   49MOL   C23315689   7.215   4.763   5.238  0.4082  0.5512 -0.0679
   49MOL   H23415690   7.453   4.880   5.249  2.7506 -0.7292  0.5020
   49MOL   H23515691   7.467   4.862   5.429 -1.8883  2.1738  0.6633
   49MOL   H23615692   7.276   4.779   5.575  0.4760 -2.6567 -0.0439
   49MOL   H23715693   7.047   4.718   5.580 -0.5893 -2.3701  0.3323
   49MOL   H23815694   6.848   4.612   5.301 -0.3556 -1.0410  0.5455
   49MOL   H23915695   6.865   4.623   5.480  0.4166  1.2386  0.2209
   49MOL   H24015696   7.034   4.701   5.150  2.0693 -0.4486 -1.4473
   49MOL   H24115697   7.248   4.763   5.136 -2.0740 -1.0945 -0.9142
   49MOL   C24215698   6.774   4.793   5.372  0.1295  0.1818 -0.0440
   49MOL   C24315699   6.629   4.759   5.350 -0.4127  0.1119  0.3542
   49MOL   C24415700   6.563   4.692   5.453  0.2769  0.0520  0.2535
   49MOL   C24515701   6.430   4.646   5.431  0.2321  0.8631  0.5103
   49MOL   C24615702   6.369   4.651   5.305 -0.0245  0.2392  0.3848
   49MOL   C24715703   6.226   4.604   5.287  0.3652  0.0059  0.0442
   49MOL   C24815704   6.436   4.731   5.205  0.6002 -0.5929  0.2763
   49MOL   C24915705   6.569   4.782   5.222  0.2382  0.2679 -0.5539
   49MOL   H25015706   6.775   4.859   5.459 -0.1402 -1.0485  0.8996
   49MOL   H25115707   6.808   4.855   5.288  0.5379  2.2055  1.5799
   49MOL   H25215708   6.619   4.681   5.545  0.3055 -0.1000  0.2187
   49MOL   H25315709   6.376   4.593   5.508 -1.2869  0.1869 -0.9699
   49MOL   H25415710   6.225   4.522   5.215  0.6926  1.1736 -1.2995
   49MOL   H25515711   6.214   4.563   5.388 -0.0042 -0.6820 -0.2778
   49MOL   H25615712   6.382   4.743   5.113 -0.7893  1.9283  1.3668
   49MOL   H25715713   6.616   4.853   5.156  0.1363  2.6390  1.8423
   49MOL   C25815714   6.128   4.728   5.247 -0.3193  0.5993  0.6679
   49MOL   C25915715   5.988   4.676   5.230 -0.7084 -0.1240  0.6565
   49MOL   C26015716   5.913   4.735   5.125  0.7025  0.1626  0.5489
   49MOL   C26115717   5.782   4.686   5.097  0.2337  0.1219  0.6622
   49MOL   C26215718   5.724   4.584   5.178 -0.1968  0.0984  0.7969
   49MOL   C26315719   5.588   4.531   5.151 -0.5694 -0.6082 -0.3976
   49MOL   C26415720   5.803   4.529   5.282  0.5606 -0.4930 -0.3285
   49MOL   C26515721   5.929   4.576   5.313  0.7975  0.0372  0.7624
   49MOL   H26615722   6.167   4.787   5.164 -0.1513 -0.0232  0.3032
   49MOL   H26715723   6.133   4.799   5.329  0.5966  2.0405 -0.6053
   49MOL   H26815724   5.965   4.814   5.072  1.3782  0.2816  1.3730
   49MOL   H26915725   5.719   4.731   5.022 -1.0401  2.1061  2.8538
   49MOL   H27015726   5.553   4.578   5.059 -0.1556  1.1041  0.3034
   49MOL   H27115727   5.601   4.423   5.146  1.8702 -0.4382  1.2390
   49MOL   H27215728   5.758   4.453   5.344 -0.7696  2.2183  2.1034
   49MOL   H27315729   5.987   4.529   5.391 -2.3217 -2.9530  1.3704
   49MOL   C27415730   5.493   4.566   5.263  0.0363  0.4929  0.0837
   49MOL   C27515731   5.349   4.518   5.225 -0.0782  0.1878 -0.9646
   49MOL   C27615732   5.303   4.402   5.285 -0.9648 -0.3751 -0.2723
   49MOL   C27715733   5.174   4.364   5.263  0.3322  0.3568  0.0396
   49MOL   C27815734   5.085   4.442   5.182  0.8284 -0.3869 -0.3698
   49MOL   C27915735   4.937   4.405   5.172 -1.0209  0.6911 -0.0575
   49MOL   C28015736   5.134   4.562   5.120 -0.2016  0.3940  0.0067
   49MOL   C28115737   5.268   4.593   5.141 -0.3420 -0.6044  0.3035
   49MOL   H28215738   5.518   4.507   5.351 -1.1784  0.1962  0.2460
   49MOL   H28315739   5.490   4.674   5.280 -1.8947  1.0847 -3.3045
   49MOL   H28415740   5.371   4.338   5.340  0.9506  0.0909 -2.0375
   49MOL   H28515741   5.138   4.272   5.306  0.1718 -0.4225 -1.6903
   49MOL   H28615742   4.877   4.487   5.135 -1.7363  1.2700  2.3008
   49MOL   H28715743   4.922   4.324   5.100  0.0420  1.8489 -1.6195
   49MOL   H28815744   5.070   4.626   5.061 -0.5146  1.9879  2.0242
   49MOL   H28915745   5.306   4.679   5.088 -0.5231 -1.2496 -0.8921
   49MOL   C29015746   4.873   4.377   5.313  0.8030 -0.2109  0.6529
   49MOL   C29115747   4.715   4.368   5.296 -0.5662 -0.3579  0.2343
   49MOL   C29215748   4.631   4.478   5.332 -0.1248  0.1736 -0.3545
   49MOL   C29315749   4.495   4.476   5.315  0.6321 -0.5619  0.1840
   49MOL   C29415750   4.435   4.369   5.247 -0.3174 -0.1699  0.5099
   49MOL   C29515751   4.291   4.379   5.206 -0.4028  0.2330  0.0625
   49MOL   C29615752   4.514   4.256   5.208 -0.4639 -0.3855 -0.2117
   49MOL   C29715753   4.652   4.256   5.226 -0.5591 -0.2464 -0.0046
   49MOL   H29815754   4.888   4.457   5.384  2.8382 -0.5524  0.6177
   49MOL   H29915755   4.919   4.290   5.360 -0.0451 -0.7797  0.4530
   49MOL   H30015756   4.670   4.563   5.385 -0.2629 -0.4480  0.7665
   49MOL   H30115757   4.456   4.569   5.353 -2.4951 -1.6936 -0.1236
   49MOL   H30215758   4.268   4.467   5.146  2.9278  0.6339 -0.7410
   49MOL   H30315759   4.260   4.288   5.154 -0.1454 -0.5160  1.2151
   49MOL   H30415760   4.476   4.183   5.138 -1.0270 -0.2293 -0.0727
   49MOL   H30515761   4.712   4.175   5.188  1.4873  1.7306 -1.1103
   49MOL   C30615762   4.202   4.397   5.331 -0.1474  0.2638  0.2892
   49MOL   C30715763   4.055   4.422   5.306  0.2289 -0.6227  0.0013
   49MOL   C30815764   3.967   4.312   5.288 -0.3814  0.5846  0.3556
   49MOL   C30915765   3.828   4.331   5.290  0.7137  0.8249  0.0455
   49MOL   C31015766   3.776   4.462   5.310 -0.5744  0.3257  0.6621
   49MOL   C31115767   3.625   4.496   5.296  0.0537 -0.0299  0.1454
   49MOL   C31215768   3.865   4.571   5.320  0.4909  0.0715  0.8089
   49MOL   C31315769   4.004   4.551   5.310  0.3764  0.5739 -0.3951
   49MOL   H31415770   4.236   4.473   5.402 -0.0852  1.6538 -1.1905
   49MOL   H31515771   4.208   4.306   5.390  1.5786  1.0531  1.3737
   49MOL   H31615772   4.001   4.210   5.289  2.1988  1.4129  0.6126
   49MOL   H31715773   3.770   4.241   5.272  4.1915 -1.6276  0.4867
   49MOL   H31815774   3.592   4.566   5.219 -0.1650  1.2263  1.3758
   49MOL   H31915775   3.572   4.402   5.281  2.7026 -1.7882  1.3846
   49MOL   H32015776   3.813   4.665   5.329 -2.0749 -1.2408  0.0867
   49MOL   H32115777   4.068   4.636   5.321  0.9201  0.1327 -0.1315
   49MOL   H32215778   3.597   4.531   5.395  0.3629 -1.9633  0.9384
   50MOL     C115779   2.933   4.851   0.321  0.2585  0.3477  0.3261
   50MOL     C215780   2.846   4.969   0.352  0.2218 -0.0525 -0.1494
   50MOL     C315781   2.863   5.101   0.300 -0.3720  0.6357  0.1684
   50MOL     C415782   2.771   5.203   0.331 -0.4198  0.2605  0.1927
   50MOL     C515783   2.669   5.184   0.426 -0.2362 -0.2156  0.8170
   50MOL     C615784   2.589   5.308   0.469 -0.2324 -0.0687  0.0452
   50MOL     C715785   2.654   5.052   0.485 -0.3434  0.1983  0.2223
   50MOL     C815786   2.740   4.950   0.444 -0.5173  0.2979  0.0856
   50MOL     H915787   2.955   4.848   0.214 -2.0061 -1.4889 -0.1301
   50MOL    H1015788   3.031   4.872   0.364  0.5700 -1.5810  0.5759
   50MOL    H1115789   2.933   5.132   0.224 -0.4332  1.2680  0.3639
   50MOL    H1215790   2.770   5.296   0.276 -0.1439  0.8887  1.2542
   50MOL    H1315791   2.614   5.331   0.572 -1.9502  0.0193  0.4704
   50MOL    H1415792   2.608   5.400   0.414 -0.1437  0.4245  0.9030
   50MOL    H1515793   2.575   5.025   0.554  0.3193 -2.5954 -0.0367
   50MOL    H1615794   2.720   4.855   0.491 -0.6796  0.8402  1.1276
   50MOL    H1715795   2.912   4.752   0.361 -0.8921  0.4290 -0.0586
   50MOL    C1815796   2.440   5.275   0.463 -0.3349  0.2513 -0.3610
   50MOL    C1915797   2.350   5.368   0.535 -0.1406  0.3673 -0.0379
   50MOL    C2015798   2.304   5.475   0.461  0.7178 -0.3351 -0.4971
   50MOL    C2115799   2.208   5.561   0.511  0.2640  0.1329  0.7059
   50MOL    C2215800   2.165   5.548   0.645 -0.3518  0.1878 -0.0914
   50MOL    C2315801   2.054   5.632   0.697 -0.9909 -0.5287  0.1094
   50MOL    C2415802   2.239   5.457   0.728  0.8093  0.0918 -0.0850
   50MOL    C2515803   2.320   5.363   0.672 -0.6065 -0.5068  0.0696
   50MOL    H2615804   2.408   5.262   0.360 -0.0050  1.9502 -0.6881
   50MOL    H2715805   2.423   5.178   0.510  1.1838  0.6200  1.0056
   50MOL    H2815806   2.334   5.488   0.358  1.4795 -0.4012 -0.2868
   50MOL    H2915807   2.166   5.638   0.447  0.0916  0.6175  1.3973
   50MOL    H3015808   2.077   5.729   0.655  0.0436 -0.3850  0.9915
   50MOL    H3115809   2.064   5.643   0.805  2.7539  1.9551 -0.3845
   50MOL    H3215810   2.204   5.448   0.830 -2.2398  1.3449 -0.9554
   50MOL    H3315811   2.361   5.296   0.747  2.4083 -0.2877 -1.3288
   50MOL    C3415812   1.916   5.576   0.659  0.1109  0.0066 -0.3735
   50MOL    C3515813   1.806   5.669   0.705  0.2602  0.1992  0.1769
   50MOL    C3615814   1.762   5.658   0.839 -0.4867 -0.0160 -0.0419
   50MOL    C3715815   1.667   5.749   0.887  0.1107 -0.3851 -0.4817
   50MOL    C3815816   1.616   5.845   0.799 -0.2519  0.2408 -0.5638
   50MOL    C3915817   1.529   5.963   0.860 -1.2633 -0.1207  0.6751
   50MOL    C4015818   1.654   5.848   0.662  0.2709 -0.5812 -0.2355
   50MOL    C4115819   1.754   5.763   0.614 -0.5661 -0.1816  0.1362
   50MOL    H4215820   1.903   5.472   0.689 -1.9125 -0.2364 -2.0239
   50MOL    H4315821   1.927   5.577   0.550  2.3738 -0.4626 -0.1768
   50MOL    H4415822   1.811   5.581   0.896 -1.6591 -0.6183  0.1752
   50MOL    H4515823   1.641   5.750   0.992  1.7291 -0.0882 -0.0607
   50MOL    H4615824   1.434   5.963   0.806 -0.0257  1.5850 -1.6119
   50MOL    H4715825   1.511   5.941   0.965 -0.6398  0.8669  0.9923
   50MOL    H4815826   1.618   5.925   0.596 -1.3755  0.2205  1.5832
   50MOL    H4915827   1.801   5.777   0.518  2.3151  0.2402  1.5729
   50MOL    C5015828   1.589   6.104   0.838 -0.1145  0.4293  0.3142
   50MOL    C5115829   1.731   6.121   0.897  0.0005 -0.3175 -0.0676
   50MOL    C5215830   1.845   6.101   0.813 -0.0103  0.2628 -0.1595
   50MOL    C5315831   1.975   6.092   0.870  0.0448  0.0340 -0.6378
   50MOL    C5415832   1.995   6.106   1.008 -0.1396  0.2472 -0.7481
   50MOL    C5515833   2.134   6.097   1.064  0.4090  0.1142  0.2867
   50MOL    C5615834   1.883   6.135   1.093  0.3929 -0.1482  0.8239
   50MOL    C5715835   1.752   6.140   1.036  0.5414 -0.3761 -0.4948
   50MOL    H5815836   1.533   6.172   0.902  0.6095  1.8755 -0.5475
   50MOL    H5915837   1.595   6.124   0.730  0.2480  1.4425  0.5164
   50MOL    H6015838   1.828   6.083   0.708  0.7275 -4.9776  0.4982
   50MOL    H6115839   2.056   6.076   0.800  1.0774  1.3980  0.2213
   50MOL    H6215840   2.118   6.023   1.143 -0.0752  0.8422  0.8873
   50MOL    H6315841   2.199   6.054   0.988  0.1488  1.5579 -0.7559
   50MOL    H6415842   1.888   6.172   1.194 -1.5413 -2.9233  2.0057
   50MOL    H6515843   1.667   6.168   1.096  0.8286  3.1326 -1.6376
   50MOL    C6615844   2.191   6.226   1.125  0.0326 -0.1251 -0.2956
   50MOL    C6715845   2.333   6.197   1.176  0.1905  0.4622  0.1096
   50MOL    C6815846   2.366   6.177   1.314 -0.0726  0.4471 -0.2739
   50MOL    C6915847   2.498   6.155   1.355 -1.0457 -0.1703 -0.4283
   50MOL    C7015848   2.606   6.147   1.260  0.1611  0.3257  0.2810
   50MOL    C7115849   2.748   6.127   1.308 -0.3566  0.0618 -0.2596
   50MOL    C7215850   2.575   6.155   1.120 -0.6348 -0.6124 -0.5058
   50MOL    C7315851   2.440   6.190   1.088  0.0360  0.4810  0.4851
   50MOL    H7415852   2.124   6.257   1.206  0.0813 -1.3761  0.2326
   50MOL    H7515853   2.202   6.309   1.055  0.8818 -0.3589 -0.4412
   50MOL    H7615854   2.281   6.181   1.380 -0.6050 -0.9530 -0.8492
   50MOL    H7715855   2.521   6.153   1.460  0.0866  2.3940 -0.5891
   50MOL    H7815856   2.730   6.142   1.414  0.7104  1.3674 -0.2420
   50MOL    H7915857   2.809   6.208   1.269 -0.0275 -1.3088 -2.7314
   50MOL    H8015858   2.649   6.155   1.042  1.9420 -3.5362  1.7907
   50MOL    H8115859   2.413   6.204   0.984 -3.7659 -2.5672  0.9476
   50MOL    C8215860   2.801   5.993   1.256  0.0717  1.0274  0.3211
   50MOL    C8315861   2.949   5.968   1.296 -0.8598 -0.6887  0.1557
   50MOL    C8415862   3.051   6.023   1.216  0.3956 -0.0526 -0.3386
   50MOL    C8515863   3.186   5.985   1.234  0.0903  0.2491 -0.5630
   50MOL    C8615864   3.211   5.885   1.333  0.5468 -0.1453 -0.5979
   50MOL    C8715865   3.355   5.841   1.347 -0.8945  0.5805  0.0264
   50MOL    C8815866   3.107   5.824   1.399  0.6518  0.1405  0.0178
   50MOL    C8915867   2.977   5.861   1.384  0.9265 -0.0124  0.5119
   50MOL    H9015868   2.780   5.979   1.150  2.4023 -0.3156 -0.0094
   50MOL    H9115869   2.728   5.928   1.304  3.2136 -3.0134 -0.1684
   50MOL    H9215870   3.021   6.100   1.147  1.3143  1.1059  0.5412
   50MOL    H9315871   3.269   6.026   1.179  0.4572  0.1549 -0.0734
   50MOL    H9415872   3.390   5.855   1.450  0.7379 -0.5698 -0.3480
   50MOL    H9515873   3.421   5.900   1.284  1.0008 -1.4138  0.0981
   50MOL    H9615874   3.113   5.732   1.455  0.5631 -1.6302 -2.8297
   50MOL    H9715875   2.897   5.805   1.430 -2.4464  1.6348 -3.0950
   50MOL    C9815876   3.376   5.697   1.308 -0.3743  0.0898  0.4778
   50MOL    C9915877   3.519   5.647   1.337 -0.6576 -0.1113 -0.4919
   50MOL   C10015878   3.555   5.599   1.468 -0.4312 -1.0221  0.3891
   50MOL   C10115879   3.688   5.557   1.491 -0.0088  0.2760  0.5347
   50MOL   C10215880   3.785   5.559   1.386 -0.3156 -0.4460 -0.2394
   50MOL   C10315881   3.931   5.512   1.419  0.1200  0.0186  0.0187
   50MOL   C10415882   3.748   5.599   1.256 -0.1877  0.0877 -0.6124
   50MOL   C10515883   3.617   5.645   1.235  0.6458  0.2837 -0.8904
   50MOL   H10615884   3.365   5.698   1.200 -0.4926 -1.7478  0.4500
   50MOL   H10715885   3.299   5.634   1.353 -1.0905  1.4566  1.1926
   50MOL   H10815886   3.486   5.610   1.550 -1.8053  0.5963 -0.9326
   50MOL   H10915887   3.714   5.516   1.587 -1.6760  3.1846  2.3038
   50MOL   H11015888   4.011   5.578   1.384  1.1573 -2.3288 -2.2616
   50MOL   H11115889   3.925   5.524   1.527  0.4654 -0.4529  0.0938
   50MOL   H11215890   3.818   5.593   1.174 -1.4903  0.8254 -1.8011
   50MOL   H11315891   3.584   5.679   1.138 -0.6538 -0.9205 -0.8926
   50MOL   C11415892   3.940   5.369   1.380 -0.1803  0.5330 -0.5505
   50MOL   C11515893   4.073   5.302   1.404  0.2067  0.6362  0.0185
   50MOL   C11615894   4.116   5.270   1.534 -0.4807 -0.3640  0.0274
   50MOL   C11715895   4.243   5.208   1.559 -0.1387 -0.3315  0.4482
   50MOL   C11815896   4.329   5.181   1.454 -0.5110 -0.1200  0.1833
   50MOL   C11915897   4.460   5.106   1.475  0.2469 -0.2001  0.0568
   50MOL   C12015898   4.283   5.226   1.320  0.5771 -0.3758 -0.3435
   50MOL   C12115899   4.153   5.277   1.293 -0.2168 -0.1402  0.0323
   50MOL   H12215900   3.905   5.370   1.277 -2.0102  1.3687  0.0450
   50MOL   H12315901   3.867   5.326   1.449  2.3726  0.1407  2.0133
   50MOL   H12415902   4.053   5.288   1.619 -0.2171 -4.0587  1.0920
   50MOL   H12515903   4.269   5.192   1.662 -1.2957  0.1831  0.8382
   50MOL   H12615904   4.513   5.100   1.380  1.6684  2.6781  0.6229
   50MOL   H12715905   4.516   5.164   1.548 -1.3243 -0.0779  1.1979
   50MOL   H12815906   4.352   5.210   1.238  0.0316  0.3282 -0.9407
   50MOL   H12915907   4.124   5.292   1.190  0.7291  1.4835 -0.0069
   50MOL   C13015908   4.439   4.961   1.529  0.0699 -0.1583 -0.3220
   50MOL   C13115909   4.563   4.886   1.523  0.9518  0.3474  0.1770
   50MOL   C13215910   4.642   4.881   1.640  0.2516 -0.4040 -0.7636
   50MOL   C13315911   4.765   4.817   1.634 -0.4572  0.5016 -0.3314
   50MOL   C13415912   4.811   4.747   1.516  0.4143  0.4093 -0.0214
   50MOL   C13515913   4.939   4.668   1.518  0.2919  0.0986 -0.9186
   50MOL   C13615914   4.723   4.754   1.400  0.8513  0.3985 -0.5163
   50MOL   C13715915   4.600   4.821   1.408 -0.5349 -0.4394  0.5826
   50MOL   H13815916   4.352   4.925   1.473  1.2169  1.3390 -3.1694
   50MOL   H13915917   4.401   4.978   1.630  0.7356 -0.1010 -0.0780
   50MOL   H14015918   4.614   4.938   1.727  0.7746  0.0505 -0.8878
   50MOL   H14115919   4.824   4.812   1.723 -0.1787 -0.5550 -0.5635
   50MOL   H14215920   4.947   4.620   1.616 -2.6240  0.0809 -0.6246
   50MOL   H14315921   4.931   4.595   1.437 -0.0057  0.2841 -1.0583
   50MOL   H14415922   4.753   4.724   1.300  0.0039 -0.0213 -0.6469
   50MOL   H14515923   4.533   4.833   1.324  1.4408  0.7829 -0.8687
   50MOL   C14615924   5.062   4.746   1.488  0.0568 -0.1462  0.9050
   50MOL   C14715925   5.191   4.669   1.477 -0.4165 -0.1906 -0.1861
   50MOL   C14815926   5.282   4.654   1.584 -0.8538  0.0033  0.0710
   50MOL   C14915927   5.400   4.572   1.577  0.1710  0.4524  0.5788
   50MOL   C15015928   5.422   4.507   1.452 -0.3023  0.3754 -0.0125
   50MOL   C15115929   5.534   4.407   1.441 -0.0212 -0.3220 -0.5115
   50MOL   C15215930   5.331   4.525   1.344  0.4650  0.3170  0.4625
   50MOL   C15315931   5.214   4.603   1.354 -1.2696  0.6203 -0.5647
   50MOL   H15415932   5.080   4.829   1.557 -0.1064  0.4582  0.2295
   50MOL   H15515933   5.038   4.790   1.391  1.5767  0.0354  0.6023
   50MOL   H15615934   5.262   4.690   1.684  1.3596 -0.6259  0.7674
   50MOL   H15715935   5.481   4.559   1.648  0.5433 -1.5400 -0.1719
   50MOL   H15815936   5.578   4.406   1.541 -0.6870  0.4483 -0.2104
   50MOL   H15915937   5.480   4.313   1.425 -1.8250  0.4295  0.9738
   50MOL   H16015938   5.344   4.474   1.249 -1.2766  0.3870  0.1758
   50MOL   H16115939   5.144   4.610   1.272 -2.0360 -1.7792 -0.1619
   50MOL   C16215940   5.647   4.437   1.334 -0.1654 -0.1509 -0.1205
   50MOL   C16315941   5.760   4.335   1.353  0.0115 -0.5842  0.9771
   50MOL   C16415942   5.781   4.227   1.267  0.1447  0.7165  0.3871
   50MOL   C16515943   5.899   4.149   1.276  1.2001  0.5082 -0.6898
   50MOL   C16615944   5.991   4.177   1.383 -0.1336  0.2562  0.0354
   50MOL   C16715945   6.117   4.090   1.390  0.2105  0.3208 -0.9451
   50MOL   C16815946   5.964   4.272   1.481  0.1971  1.1037 -0.4597
   50MOL   C16915947   5.842   4.350   1.468 -0.5190 -0.7473  0.1884
   50MOL   H17015948   5.693   4.534   1.354 -1.9012  0.7777 -0.5327
   50MOL   H17115949   5.591   4.440   1.240 -1.2569 -0.7900  0.4985
   50MOL   H17215950   5.710   4.215   1.186  0.0293 -1.7505  0.8254
   50MOL   H17315951   5.925   4.072   1.206  1.9299  0.1879 -0.0709
   50MOL   H17415952   6.133   4.057   1.492 -3.7930  3.5693  0.8375
   50MOL   H17515953   6.105   4.002   1.327 -0.9754 -0.2279  0.0287
   50MOL   H17615954   6.023   4.279   1.571 -1.8125 -1.4362  1.1490
   50MOL   H17715955   5.837   4.431   1.539  1.4115 -1.5760  1.2968
   50MOL   C17815956   6.247   4.168   1.347 -0.3087 -0.3184 -0.2365
   50MOL   C17915957   6.379   4.101   1.382 -0.2200  0.7604 -0.4430
   50MOL   C18015958   6.476   4.075   1.286  0.3730  0.1324 -0.6532
   50MOL   C18115959   6.601   4.015   1.312  0.2398  1.3949 -0.3959
   50MOL   C18215960   6.641   3.993   1.449 -0.5063  0.3857 -0.7146
   50MOL   C18315961   6.775   3.933   1.492  0.1340  0.3809 -0.4635
   50MOL   C18415962   6.543   4.021   1.550 -0.3109 -0.4697 -0.1135
   50MOL   C18515963   6.414   4.073   1.516 -0.1663  0.0707 -0.3790
   50MOL   H18615964   6.252   4.270   1.385  1.4165 -0.3961 -0.2055
   50MOL   H18715965   6.244   4.184   1.240 -1.5699 -0.1404 -0.1823
   50MOL   H18815966   6.457   4.090   1.181  0.7952 -0.2005 -0.7809
   50MOL   H18915967   6.659   3.976   1.230 -2.4116  1.3027 -2.2905
   50MOL   H19015968   6.762   3.826   1.510  3.3292  0.0749  0.4167
   50MOL   H19115969   6.849   3.935   1.411  1.0599 -1.0625  0.3252
   50MOL   H19215970   6.554   3.981   1.649  0.5118 -1.8197 -0.7369
   50MOL   H19315971   6.339   4.101   1.589  0.0965  0.2375 -0.1728
   50MOL   C19415972   6.834   3.994   1.621  0.7372 -0.0497  0.0587
   50MOL   C19515973   6.964   3.943   1.649 -0.3884  0.2979 -0.2543
   50MOL   C19615974   6.992   3.807   1.668 -0.6528  0.8036  0.0079
   50MOL   C19715975   7.118   3.767   1.705 -0.0629 -0.5071  0.4671
   50MOL   C19815976   7.226   3.862   1.709 -0.1523  0.2406 -0.2024
   50MOL   C19915977   7.362   3.820   1.752 -0.3816 -0.3414 -0.0005
   50MOL   C20015978   7.199   3.995   1.687 -0.0044  0.5500 -0.0195
   50MOL   C20115979   7.071   4.038   1.653 -0.0002 -0.4335 -0.1662
   50MOL   H20215980   6.776   3.972   1.711  0.7259 -1.1870 -0.2241
   50MOL   H20315981   6.828   4.102   1.605 -0.7012 -0.1027  0.1295
   50MOL   H20415982   6.913   3.735   1.652 -0.7079  0.3574  2.1913
   50MOL   H20515983   7.140   3.665   1.732  1.7560 -0.9411 -2.4298
   50MOL   H20615984   7.381   3.722   1.706  1.3387  0.9043 -2.0664
   50MOL   H20715985   7.441   3.885   1.713 -0.4137 -0.0459  0.4287
   50MOL   H20815986   7.270   4.076   1.690 -1.8825  2.2660 -0.4490
   50MOL   H20915987   7.052   4.144   1.652 -1.9818 -0.7475  0.4189
   50MOL   C21015988   7.365   3.798   1.906  0.4406 -0.1511  0.0274
   50MOL   C21115989   7.505   3.772   1.960  0.4306 -0.4271  0.4280
   50MOL   C21215990   7.536   3.798   2.096 -0.3093 -0.3101 -0.2341
   50MOL   C21315991   7.665   3.777   2.149 -0.6979 -0.3931 -0.2831
   50MOL   C21415992   7.766   3.726   2.065  0.3166 -0.2466 -0.6554
   50MOL   C21515993   7.914   3.715   2.116  1.0399  0.6981  0.2065
   50MOL   C21615994   7.739   3.700   1.926 -0.4453 -0.2357  0.6079
   50MOL   C21715995   7.610   3.720   1.877  0.1610  0.3621 -0.5346
   50MOL   H21815996   7.292   3.724   1.937  0.6881  0.0246  1.0247
   50MOL   H21915997   7.330   3.891   1.950 -0.3090 -0.1188 -0.6216
   50MOL   H22015998   7.469   3.844   2.167  1.4112 -0.0887  1.2708
   50MOL   H22115999   7.683   3.813   2.249 -0.3742 -0.6084 -0.2649
   50MOL   H22216000   7.975   3.776   2.049  0.6612  0.3620 -0.4533
   50MOL   H22316001   7.930   3.768   2.210  0.8358 -1.1944  1.3316
   50MOL   H22416002   7.802   3.640   1.863  0.3166  2.2257 -1.0631
   50MOL   H22516003   7.585   3.682   1.778  0.6615 -1.5192  0.0384
   50MOL   C22616004   7.977   3.576   2.126  0.3538 -0.6979  0.0918
   50MOL   C22716005   8.120   3.597   2.172  0.3375 -0.0447 -0.2430
   50MOL   C22816006   8.141   3.651   2.298 -1.0078  0.6880 -1.2473
   50MOL   C22916007   8.272   3.657   2.346  0.1611  0.6646  0.3989
   50MOL   C23016008   8.381   3.610   2.263 -0.6263  0.5116 -0.2798
   50MOL   C23116009   8.522   3.629   2.315  0.0566  0.0444  0.5575
   50MOL   C23216010   8.354   3.532   2.146 -0.0578  0.2439  0.4007
   50MOL   C23316011   8.224   3.535   2.102 -0.6795 -0.1109  0.6239
   50MOL   H23416012   7.972   3.514   2.036 -3.6654 -0.1125 -0.1556
   50MOL   H23516013   7.923   3.520   2.202 -1.2459  1.0773  0.2836
   50MOL   H23616014   8.063   3.685   2.365 -1.9396 -0.8843 -1.4921
   50MOL   H23716015   8.289   3.720   2.432 -1.0504  1.7783 -0.1533
   50MOL   H23816016   8.574   3.676   2.231 -2.0312  2.8542  0.7933
   50MOL   H23916017   8.517   3.697   2.399  3.5889  1.3846 -0.2371
   50MOL   H24016018   8.431   3.490   2.083 -2.4128 -0.7245 -1.9184
   50MOL   H24116019   8.196   3.478   2.014 -0.8220 -2.1131  1.9330
   50MOL   C24216020   8.579   3.511   2.387  0.1124  0.8149 -0.6647
   50MOL   C24316021   8.722   3.529   2.432 -0.5041  0.3025  0.0152
   50MOL   C24416022   8.768   3.585   2.549 -0.2621  0.5849 -0.4933
   50MOL   C24516023   8.902   3.582   2.581 -0.3441 -0.2328 -0.6296
   50MOL   C24616024   8.995   3.523   2.493  0.4317 -0.0240 -0.2054
   50MOL   C24716025   9.140   3.535   2.527  0.2152 -0.7753  0.5788
   50MOL   C24816026   8.952   3.465   2.377 -0.3966  0.5847 -0.0290
   50MOL   C24916027   8.820   3.471   2.340  0.1393 -0.0883 -0.2959
   50MOL   H25016028   8.519   3.497   2.477 -1.2342 -0.1237 -1.6928
   50MOL   H25116029   8.561   3.428   2.319 -0.9470  0.0586  0.5120
   50MOL   H25216030   8.704   3.630   2.622 -1.0342  0.4486 -1.0815
   50MOL   H25316031   8.922   3.635   2.672  0.7375 -1.4439 -0.1568
   50MOL   H25416032   9.194   3.552   2.434  1.1517  0.2255  1.2895
   50MOL   H25516033   9.158   3.619   2.595  2.5910 -0.1559 -0.7611
   50MOL   H25616034   9.020   3.417   2.308 -2.1575 -1.0507 -0.6562
   50MOL   H25716035   8.783   3.416   2.255  1.3939  2.2617 -2.4032
   50MOL   C25816036   9.199   3.402   2.582 -0.0848 -0.4059 -1.1874
   50MOL   C25916037   9.350   3.410   2.594  0.3891 -0.3322 -0.0931
   50MOL   C26016038   9.415   3.392   2.715 -0.2929  0.0382 -0.3202
   50MOL   C26116039   9.554   3.368   2.722  0.3409  0.1925 -0.3656
   50MOL   C26216040   9.628   3.380   2.605 -0.6427  0.6720  0.4973
   50MOL   C26316041   9.778   3.361   2.611  0.0298  0.1603 -0.0715
   50MOL   C26416042   9.569   3.428   2.484  0.0021  0.6681  0.0571
   50MOL   C26516043   9.432   3.447   2.479 -0.4900  0.3170  0.5330
   50MOL   H26616044   9.187   3.318   2.515  0.2994 -1.8288  0.4934
   50MOL   H26716045   9.138   3.374   2.668  0.5849  0.4454 -0.4194
   50MOL   H26816046   9.354   3.382   2.804 -1.3906  1.9341 -0.8293
   50MOL   H26916047   9.614   3.330   2.804  1.1152 -0.2014 -1.1077
   50MOL   H27016048   9.820   3.415   2.526 -0.6330  0.7175 -0.0481
   50MOL   H27116049   9.812   3.393   2.709  0.4988  1.7703 -0.7404
   50MOL   H27216050   9.623   3.440   2.391 -0.0274  1.5879  0.1489
   50MOL   H27316051   9.394   3.462   2.379 -0.3911 -1.2505  0.2454
   50MOL   C27416052   9.819   3.220   2.600 -0.4008 -0.2743  0.2987
   50MOL   C27516053   9.973   3.199   2.611 -0.2277  0.4828 -0.1268
   50MOL   C27616054  10.065   3.304   2.613 -0.4578 -0.4569 -0.6648
   50MOL   C27716055  10.204   3.286   2.618 -0.1179 -0.1219  0.7207
   50MOL   C27816056  10.252   3.152   2.605 -0.0402 -0.3326 -0.1505
   50MOL   C27916057  10.399   3.131   2.608 -0.5504  0.3077  0.6619
   50MOL   C28016058  10.159   3.047   2.607 -0.0514  0.3780 -0.2623
   50MOL   C28116059  10.019   3.066   2.615  0.7563 -0.3957  0.1396
   50MOL   H28216060   9.770   3.161   2.677  0.6633  0.2540  1.3913
   50MOL   H28316061   9.783   3.168   2.511 -1.4359 -0.7169  0.9647
   50MOL   H28416062  10.041   3.409   2.616  3.7402  0.6113 -1.0905
   50MOL   H28516063  10.277   3.363   2.633  0.0258 -0.0062 -0.5801
   50MOL   H28616064  10.454   3.225   2.594 -0.8147  0.1804 -1.5165
   50MOL   H28716065  10.410   3.094   2.709  0.3343  0.1775  0.5183
   50MOL   H28816066  10.197   2.947   2.603  0.6449  0.7020 -2.0010
   50MOL   H28916067   9.959   2.977   2.610 -0.1859  0.2034  0.4790
   50MOL   C29016068  10.457   3.035   2.500 -0.6006 -0.0584 -0.1949
   50MOL   C29116069  10.608   3.010   2.512 -1.6258  0.4043  0.6545
   50MOL   C29216070  10.668   2.902   2.583  0.3327  0.6942 -0.2575
   50MOL   C29316071  10.807   2.893   2.607 -0.4129  0.1822  0.0601
   50MOL   C29416072  10.884   2.983   2.536  0.9379 -0.0267  0.2648
   50MOL   C29516073  11.032   2.965   2.543  0.2964 -0.3536  0.2286
   50MOL   C29616074  10.830   3.085   2.450  0.0511 -0.0724  0.1276
   50MOL   C29716075  10.691   3.096   2.441 -0.1798  0.2240  0.1441
   50MOL   H29816076  10.425   3.070   2.402  0.1191 -1.4324 -0.9303
   50MOL   H29916077  10.416   2.934   2.502  2.3886 -1.3753 -1.3842
   50MOL   H30016078  10.603   2.838   2.641  1.3789  0.3903  0.5923
   50MOL   H30116079  10.859   2.814   2.659 -1.4338  1.0090  2.4043
   50MOL   H30216080  11.077   3.065   2.543 -0.3863 -0.0209 -1.3611
   50MOL   H30316081  11.055   2.927   2.642 -0.0142  1.4051  0.9836
   50MOL   H30416082  10.901   3.137   2.387 -0.4735  2.1378  1.3416
   50MOL   H30516083  10.648   3.176   2.383  0.7250  0.4733 -0.1935
   50MOL   C30616084  11.103   2.897   2.423  0.7099 -0.5272 -0.4440
   50MOL   C30716085  11.234   2.836   2.468  0.2879  0.2094 -0.0997
   50MOL   C30816086  11.259   2.698   2.466 -0.6350 -0.1399  0.7053
   50MOL   C30916087  11.368   2.645   2.534  0.0408 -0.5105  1.1454
   50MOL   C31016088  11.463   2.735   2.595  0.3354  0.1295  0.2264
   50MOL   C31116089  11.571   2.677   2.682 -0.7825  0.1800  0.8248
   50MOL   C31216090  11.447   2.873   2.588 -0.1454  0.5372 -0.1572
   50MOL   C31316091  11.333   2.922   2.521  0.3082 -0.0446  0.1665
   50MOL   H31416092  11.121   2.976   2.350  0.2715 -0.3571 -0.3669
   50MOL   H31516093  11.043   2.816   2.382 -2.9147  1.4517  0.7388
   50MOL   H31616094  11.178   2.635   2.432  0.1368  0.7278 -2.9375
   50MOL   H31716095  11.385   2.538   2.541  0.8017 -0.3695  1.6237
   50MOL   H31816096  11.627   2.755   2.735 -0.4331 -0.5896  1.6115
   50MOL   H31916097  11.510   2.623   2.754 -0.6120  0.6946  1.3555
   50MOL   H32016098  11.519   2.930   2.644  0.7074  0.4883 -1.2033
   50MOL   H32116099  11.320   3.029   2.530  1.2922  0.3402 -2.5020
   50MOL   H32216100  11.624   2.595   2.633 -3.0234 -1.2316  0.7045
   51MOL     C116101   0.243   2.373   1.585 -0.3545 -0.1300  0.0395
   51MOL     C216102   0.392   2.361   1.556 -0.2199 -0.4423 -0.1696
   51MOL     C316103   0.486   2.446   1.621 -1.1400 -0.7001 -0.7855
   51MOL     C416104   0.622   2.439   1.581 -0.6794  0.2786  0.6790
   51MOL     C516105   0.666   2.348   1.478 -0.1572 -0.1629  0.3357
   51MOL     C616106   0.811   2.340   1.425  0.2443  1.1229  0.5127
   51MOL     C716107   0.571   2.255   1.421  0.5931  0.1802  0.2704
   51MOL     C816108   0.439   2.262   1.465  0.6628 -0.3024  0.2468
   51MOL     H916109   0.221   2.452   1.656 -0.0585 -1.8286  2.0493
   51MOL    H1016110   0.191   2.403   1.494  1.0330  0.5204 -0.5629
   51MOL    H1116111   0.474   2.529   1.690  0.1314  1.1117 -2.6625
   51MOL    H1216112   0.699   2.503   1.622 -0.0045 -1.0780  1.5509
   51MOL    H1316113   0.807   2.317   1.318  3.0339  0.9040  0.4224
   51MOL    H1416114   0.851   2.441   1.426 -0.8027  1.5520 -0.4092
   51MOL    H1516115   0.612   2.183   1.352 -0.6662 -0.7753  0.5061
   51MOL    H1616116   0.364   2.198   1.421  1.3877 -0.7129 -0.4066
   51MOL    H1716117   0.202   2.276   1.610 -1.9858  0.7718  0.9272
   51MOL    C1816118   0.885   2.232   1.497  0.3567 -0.6840 -0.3821
   51MOL    C1916119   1.018   2.193   1.432 -0.0734  0.2114 -0.1732
   51MOL    C2016120   1.139   2.251   1.483 -0.0611  0.0257  0.5143
   51MOL    C2116121   1.271   2.217   1.423 -0.0932  0.1883 -0.3108
   51MOL    C2216122   1.276   2.122   1.321  0.3391  0.9844 -0.6643
   51MOL    C2316123   1.410   2.091   1.265  0.4053  0.0463 -0.1080
   51MOL    C2416124   1.161   2.050   1.285  0.2629  0.8863 -0.5403
   51MOL    C2516125   1.034   2.089   1.333 -0.4996 -0.2252 -0.2884
   51MOL    H2616126   0.924   2.268   1.592  1.8163 -3.1925  0.0217
   51MOL    H2716127   0.817   2.149   1.515 -2.7217  1.1812 -3.0418
   51MOL    H2816128   1.124   2.332   1.553 -1.1513 -2.0214  2.7051
   51MOL    H2916129   1.358   2.276   1.448  0.4716 -1.1526  0.9072
   51MOL    H3016130   1.461   2.186   1.250 -1.2221  0.9487 -0.1042
   51MOL    H3116131   1.404   2.027   1.177  1.3542  0.5893 -0.5678
   51MOL    H3216132   1.155   1.964   1.221  1.4466  0.2269  0.2240
   51MOL    H3316133   0.950   2.028   1.303 -0.0100 -1.5190  0.9105
   51MOL    C3416134   1.488   2.009   1.360 -0.6153  0.4337  0.5880
   51MOL    C3516135   1.626   1.972   1.305 -0.0009  0.6660 -0.5319
   51MOL    C3616136   1.743   2.022   1.357  0.2208 -0.5186  0.2272
   51MOL    C3716137   1.867   1.983   1.306 -0.0496 -0.6596 -0.0289
   51MOL    C3816138   1.874   1.885   1.200 -0.1496  0.3549 -0.7087
   51MOL    C3916139   2.009   1.839   1.163 -0.3398  0.3078  0.1145
   51MOL    C4016140   1.757   1.835   1.141  0.4476  0.5421  0.7121
   51MOL    C4116141   1.638   1.879   1.203  0.1106 -0.6234  0.9007
   51MOL    H4216142   1.435   1.918   1.388 -0.4570 -0.0988 -0.7855
   51MOL    H4316143   1.511   2.060   1.453  0.2318  0.2652  0.4719
   51MOL    H4416144   1.739   2.092   1.439  0.2970 -0.5591  0.2647
   51MOL    H4516145   1.960   2.016   1.350  0.8717 -0.2352 -2.2044
   51MOL    H4616146   2.011   1.788   1.066  1.8607  1.4119 -0.4721
   51MOL    H4716147   2.075   1.919   1.128 -0.1618  0.1768  0.1491
   51MOL    H4816148   1.754   1.756   1.066  0.1899 -0.3543  1.6497
   51MOL    H4916149   1.545   1.843   1.161 -0.1330  0.2487  0.6843
   51MOL    C5016150   2.090   1.759   1.270 -0.1286  0.1848 -0.2454
   51MOL    C5116151   2.234   1.727   1.222 -0.2182  0.2528  0.6508
   51MOL    C5216152   2.348   1.790   1.281  0.0528 -0.5030  0.0915
   51MOL    C5316153   2.475   1.762   1.228  0.4946  0.4497 -0.4177
   51MOL    C5416154   2.496   1.669   1.129 -0.7053  0.3619 -0.0511
   51MOL    C5516155   2.633   1.631   1.070  0.1390  0.1228  0.3091
   51MOL    C5616156   2.379   1.609   1.072 -0.5680  0.1133 -0.5127
   51MOL    C5716157   2.254   1.632   1.126 -0.2377 -0.4905  1.1968
   51MOL    H5816158   2.044   1.665   1.302  0.8516 -0.3228 -0.2971
   51MOL    H5916159   2.095   1.825   1.356  3.9297  1.8773 -1.6564
   51MOL    H6016160   2.345   1.862   1.362  0.6536 -1.5428  1.0461
   51MOL    H6116161   2.560   1.805   1.280 -2.0478  3.8261  1.1754
   51MOL    H6216162   2.627   1.584   0.972  0.4907  0.3663  0.1672
   51MOL    H6316163   2.696   1.718   1.051  2.7864 -1.6741  0.5414
   51MOL    H6416164   2.380   1.539   0.990 -2.4155  2.3758 -2.5430
   51MOL    H6516165   2.170   1.592   1.071 -0.4419  1.7114 -0.1560
   51MOL    C6616166   2.714   1.550   1.171 -0.4133  0.4326  0.0793
   51MOL    C6716167   2.849   1.497   1.120  0.3515  0.4882  0.3553
   51MOL    C6816168   2.851   1.389   1.026 -0.0659 -0.3822 -0.1646
   51MOL    C6916169   2.978   1.329   0.992  0.7497  0.0130 -0.1152
   51MOL    C7016170   3.099   1.396   1.023  0.1064 -0.0328  0.6983
   51MOL    C7116171   3.240   1.347   0.987 -0.1999 -0.0079  0.0058
   51MOL    C7216172   3.095   1.496   1.124 -0.0711 -0.0166 -0.2058
   51MOL    C7316173   2.969   1.539   1.181  0.3636  0.3186  0.4713
   51MOL    H7416174   2.652   1.466   1.203  1.1750 -1.1563 -0.8752
   51MOL    H7516175   2.731   1.606   1.263  0.2388  1.2869 -0.5517
   51MOL    H7616176   2.761   1.342   0.988 -0.3416  0.4361 -0.5472
   51MOL    H7716177   2.984   1.248   0.921  0.0480 -0.6870  0.6184
   51MOL    H7816178   3.302   1.436   0.989  1.6643 -1.1306 -3.2509
   51MOL    H7916179   3.241   1.303   0.887 -0.8485 -0.6153  0.2545
   51MOL    H8016180   3.182   1.547   1.162  0.3652  0.6843 -2.1109
   51MOL    H8116181   2.966   1.611   1.262 -3.7984  1.3945 -0.5160
   51MOL    C8216182   3.284   1.253   1.096 -0.0975  0.9350  1.0560
   51MOL    C8316183   3.428   1.222   1.067 -0.4653 -0.2105 -0.3154
   51MOL    C8416184   3.534   1.265   1.149  0.4398  0.0631 -0.3702
   51MOL    C8516185   3.662   1.222   1.121  0.6063  0.0388  0.3062
   51MOL    C8616186   3.695   1.135   1.017 -0.0404  0.2245  0.2035
   51MOL    C8716187   3.838   1.105   0.982  0.3032  0.0482  0.0833
   51MOL    C8816188   3.588   1.086   0.933 -0.2169  0.6490  0.0439
   51MOL    C8916189   3.452   1.125   0.962 -0.1515 -0.6462  0.1418
   51MOL    H9016190   3.223   1.163   1.094 -0.2229  1.0360  0.3590
   51MOL    H9116191   3.261   1.285   1.198 -2.7988  0.0788  0.7595
   51MOL    H9216192   3.523   1.329   1.235  0.1946  1.3540 -1.3557
   51MOL    H9316193   3.737   1.247   1.194  0.3925 -1.0620  0.9190
   51MOL    H9416194   3.905   1.174   1.033  0.1166 -0.9164  1.6925
   51MOL    H9516195   3.834   1.127   0.876 -0.2804 -5.8099 -1.2746
   51MOL    H9616196   3.609   1.011   0.859 -1.3122 -0.5515  0.9200
   51MOL    H9716197   3.367   1.084   0.910  0.2226  0.6565 -1.5744
   51MOL    C9816198   3.874   0.961   0.999 -0.7975  0.6269 -0.1289
   51MOL    C9916199   4.024   0.938   0.965  0.0955 -0.0064  0.6331
   51MOL   C10016200   4.062   0.870   0.847 -0.3579 -0.4428  0.4151
   51MOL   C10116201   4.196   0.829   0.833  0.5142 -0.3100 -0.0037
   51MOL   C10216202   4.302   0.868   0.919  0.0695 -0.3629 -0.3488
   51MOL   C10316203   4.447   0.836   0.894  0.3537  0.0373 -0.2502
   51MOL   C10416204   4.260   0.947   1.026 -0.3275 -0.1515 -0.4926
   51MOL   C10516205   4.127   0.981   1.053  0.2687 -0.3584 -0.0959
   51MOL   H10616206   3.811   0.884   0.954 -0.6199 -0.1315  0.8953
   51MOL   H10716207   3.886   0.930   1.102 -1.7913  2.4846  0.5605
   51MOL   H10816208   3.986   0.838   0.776 -1.8373  1.8566  0.9035
   51MOL   H10916209   4.226   0.782   0.741 -0.3365  2.4397 -1.7762
   51MOL   H11016210   4.468   0.876   0.795 -1.9433 -0.1567 -0.8392
   51MOL   H11116211   4.500   0.896   0.969  1.6540 -0.6674 -0.5834
   51MOL   H11216212   4.329   0.969   1.106  0.4211  2.8095 -1.8695
   51MOL   H11316213   4.106   1.027   1.148 -2.6619 -1.5188 -0.1474
   51MOL   C11416214   4.485   0.693   0.915 -0.7019  0.2453 -0.1423
   51MOL   C11516215   4.634   0.659   0.902 -0.8997  0.0721 -0.5344
   51MOL   C11616216   4.670   0.537   0.850  0.3193 -0.1639 -0.0881
   51MOL   C11716217   4.812   0.514   0.834 -0.5384  0.2382 -0.2026
   51MOL   C11816218   4.905   0.606   0.879  0.1820  0.2735  0.1424
   51MOL   C11916219   5.052   0.573   0.871  0.1728  0.4861  0.4298
   51MOL   C12016220   4.868   0.722   0.941 -0.8155 -0.0998  0.1052
   51MOL   C12116221   4.728   0.751   0.947 -0.1914  0.2533 -0.1245
   51MOL   H12216222   4.435   0.625   0.847 -2.4075  0.3522  0.9628
   51MOL   H12316223   4.437   0.660   1.007 -1.2136 -1.0498 -0.8728
   51MOL   H12416224   4.602   0.457   0.827  0.2285  0.0144 -0.4435
   51MOL   H12516225   4.836   0.422   0.782  1.5526  2.0031 -2.4756
   51MOL   H12616226   5.105   0.618   0.955  2.2487  0.2137 -0.7090
   51MOL   H12716227   5.072   0.465   0.868  2.9910  0.9282  1.5757
   51MOL   H12816228   4.936   0.800   0.970  2.3115 -2.6885  0.0710
   51MOL   H12916229   4.700   0.844   0.993 -2.7669 -0.6942  0.3520
   51MOL   C13016230   5.118   0.622   0.731 -0.2461  0.2369  0.5400
   51MOL   C13116231   5.261   0.583   0.727  0.0524  0.1252  0.4891
   51MOL   C13216232   5.296   0.447   0.711 -0.3835 -0.0876 -0.0560
   51MOL   C13316233   5.427   0.407   0.700 -0.4629 -0.1452 -0.5131
   51MOL   C13416234   5.538   0.502   0.718  0.7322  0.4191  0.5638
   51MOL   C13516235   5.687   0.473   0.699  0.1178  0.2842  0.5946
   51MOL   C13616236   5.496   0.636   0.736  0.2363 -0.0727  0.2868
   51MOL   C13716237   5.365   0.679   0.738 -0.3186 -0.3061 -0.0338
   51MOL   H13816238   5.110   0.729   0.713  2.5602  0.4920  0.5110
   51MOL   H13916239   5.058   0.577   0.653 -1.7675 -0.9120  2.3347
   51MOL   H14016240   5.216   0.378   0.688 -1.6799  1.7132 -1.0983
   51MOL   H14116241   5.444   0.301   0.681 -1.8758 -0.3878 -0.4458
   51MOL   H14216242   5.697   0.388   0.631  0.0860 -0.7626  1.8681
   51MOL   H14316243   5.724   0.555   0.638  0.1000  0.6923  1.1348
   51MOL   H14416244   5.572   0.713   0.740  0.7973 -0.6470  0.7470
   51MOL   H14516245   5.346   0.782   0.762 -0.1709  0.0332 -1.3308
   51MOL   C14616246   5.777   0.438   0.823  0.0640 -0.0389 -0.1390
   51MOL   C14716247   5.921   0.407   0.778 -0.6206  0.3438 -0.1827
   51MOL   C14816248   5.963   0.277   0.746  0.8071  0.4650  0.5529
   51MOL   C14916249   6.092   0.251   0.693 -0.4403 -0.5181  0.3867
   51MOL   C15016250   6.182   0.359   0.678 -0.8903  0.0759  0.0461
   51MOL   C15116251   6.323   0.333   0.626  0.2745  0.7550 -0.8348
   51MOL   C15216252   6.143   0.489   0.713  0.4941  0.2430 -0.1835
   51MOL   C15316253   6.011   0.513   0.754  0.0374 -0.3345  0.0458
   51MOL   H15416254   5.741   0.351   0.878 -0.3285  1.2595  1.7170
   51MOL   H15516255   5.778   0.523   0.891 -2.0877 -1.5785  1.8981
   51MOL   H15616256   5.900   0.190   0.755 -0.5828  1.3079 -0.5560
   51MOL   H15716257   6.130   0.163   0.642  2.4602  0.4247  0.8467
   51MOL   H15816258   6.392   0.375   0.699  1.3383 -2.6874  0.2420
   51MOL   H15916259   6.343   0.226   0.626  1.2242  0.9283 -0.5173
   51MOL   H16016260   6.216   0.569   0.705  1.6869 -0.3776  3.5647
   51MOL   H16116261   5.978   0.616   0.756  0.5424 -0.0765 -2.4992
   51MOL   C16216262   6.363   0.392   0.488 -0.5780  0.2095  0.0007
   51MOL   C16316263   6.502   0.364   0.441  0.2467 -0.1667  0.5289
   51MOL   C16416264   6.609   0.412   0.519  0.7806  0.5088  0.2974
   51MOL   C16516265   6.743   0.391   0.475 -0.5962  0.0836  0.0047
   51MOL   C16616266   6.769   0.313   0.360 -0.0159 -0.0231 -0.1341
   51MOL   C16716267   6.912   0.284   0.322 -0.0389  0.8129 -0.0609
   51MOL   C16816268   6.659   0.261   0.284 -0.3162  0.4194  0.2380
   51MOL   C16916269   6.527   0.288   0.326 -0.1643  0.5282  0.2859
   51MOL   H17016270   6.352   0.501   0.489 -0.1752  0.2535 -0.3657
   51MOL   H17116271   6.294   0.353   0.413  0.4981 -0.3268 -0.7221
   51MOL   H17216272   6.581   0.476   0.602  0.7245  0.4134  0.3513
   51MOL   H17316273   6.828   0.433   0.526 -0.1564 -1.2143  0.3631
   51MOL   H17416274   6.966   0.290   0.417 -1.7773 -0.5616  1.0523
   51MOL   H17516275   6.926   0.179   0.296  0.1868  1.0837 -1.0468
   51MOL   H17616276   6.683   0.203   0.197  1.4985  0.4176  0.7149
   51MOL   H17716277   6.446   0.245   0.268 -2.1236  1.2417  2.4074
   51MOL   C17816278   6.964   0.384   0.221  0.2115 -0.3470  0.5672
   51MOL   C17916279   7.113   0.353   0.181 -0.4399 -0.2313 -0.3872
   51MOL   C18016280   7.207   0.459   0.194 -0.4322  0.0431 -0.9028
   51MOL   C18116281   7.336   0.435   0.150  0.0005 -0.7832  0.5302
   51MOL   C18216282   7.375   0.311   0.099 -0.7650  0.2175  0.3129
   51MOL   C18316283   7.518   0.300   0.047 -0.5265  0.3922 -0.4978
   51MOL   C18416284   7.286   0.202   0.101 -0.6157 -0.2045  0.4085
   51MOL   C18516285   7.153   0.228   0.140 -0.3354  1.1486  0.9730
   51MOL   H18616286   6.959   0.478   0.277  1.2099  0.3729 -0.5489
   51MOL   H18716287   6.905   0.393   0.130  0.5613 -1.8508  0.1942
   51MOL   H18816288   7.179   0.557   0.230  0.2113 -0.0133 -0.2300
   51MOL   H18916289   7.413   0.509   0.139  0.5677 -1.2362  1.3525
   51MOL   H19016290   7.506   0.276  -0.059  0.3482  0.2208 -0.5612
   51MOL   H19116291   7.569   0.396   0.039 -1.3956  0.7864 -1.4661
   51MOL   H19216292   7.306   0.108   0.052 -0.3478  1.0383 -1.9747
   51MOL   H19316293   7.084   0.147   0.128  2.4701 -1.4936  2.0951
   51MOL   C19416294   7.602   0.197   0.120 -0.2074 -0.2506 -0.6257
   51MOL   C19516295   7.730   0.159   0.049 -0.8853  0.0549  0.3452
   51MOL   C19616296   7.845   0.231   0.086 -0.6490 -0.3461  0.1165
   51MOL   C19716297   7.973   0.210   0.022 -0.0249 -0.3935  0.4128
   51MOL   C19816298   7.981   0.114  -0.079 -0.1571  0.4503  0.3625
   51MOL   C19916299   8.118   0.089  -0.133  0.0061  0.0632  0.1782
   51MOL   C20016300   7.868   0.035  -0.113  0.3176 -0.3291 -0.2284
   51MOL   C20116301   7.742   0.064  -0.052  0.4507 -0.4360  0.6241
   51MOL   H20216302   7.552   0.100   0.125 -1.5018  0.3867 -1.0512
   51MOL   H20316303   7.634   0.232   0.219 -1.7313  1.3955 -0.7050
   51MOL   H20416304   7.842   0.310   0.160  0.7936 -0.0806 -0.0764
   51MOL   H20516305   8.053   0.275   0.054 -0.9273  1.3255 -0.6980
   51MOL   H20616306   8.101   0.056  -0.236 -1.3285  0.4790  0.2514
   51MOL   H20716307   8.166   0.186  -0.141  0.5629 -0.3771 -1.9745
   51MOL   H20816308   7.862  -0.047  -0.183  2.1171 -2.4141  1.9606
   51MOL   H20916309   7.651   0.015  -0.081  0.9199 -0.1930 -1.3340
   51MOL   C21016310   8.200  -0.007  -0.048 -0.4408  0.1343  0.7175
   51MOL   C21116311   8.338  -0.036  -0.111  0.2326 -0.4451  0.2967
   51MOL   C21216312   8.447   0.052  -0.088 -0.2841  0.6288 -0.0121
   51MOL   C21316313   8.574   0.022  -0.138  0.2368 -0.2003  0.4036
   51MOL   C21416314   8.591  -0.088  -0.221 -0.2467 -0.6171  0.0034
   51MOL   C21516315   8.735  -0.108  -0.276  0.6106  0.0424 -0.1753
   51MOL   C21616316   8.486  -0.173  -0.250  0.0481 -0.7211 -0.1094
   51MOL   C21716317   8.364  -0.153  -0.192  0.1214 -0.3283 -0.7503
   51MOL   H21816318   8.149  -0.103  -0.041 -0.5027  0.1288  0.2043
   51MOL   H21916319   8.198   0.039   0.051 -1.5301 -0.0421  0.7762
   51MOL   H22016320   8.440   0.132  -0.015  1.4459  0.5138  0.3086
   51MOL   H22116321   8.657   0.089  -0.117 -1.1586  1.4661  0.7174
   51MOL   H22216322   8.733  -0.175  -0.363 -0.4363 -0.6029  0.3377
   51MOL   H22316323   8.780  -0.016  -0.314 -1.2606  1.4696  0.9956
   51MOL   H22416324   8.500  -0.266  -0.303  1.9664 -1.2581  1.2680
   51MOL   H22516325   8.283  -0.223  -0.203 -0.3761  0.2920 -1.0924
   51MOL   C22616326   8.824  -0.177  -0.173  0.8605 -0.4016 -0.4686
   51MOL   C22716327   8.959  -0.201  -0.245  0.5431 -0.2382  0.1156
   51MOL   C22816328   8.973  -0.315  -0.316 -0.7595 -0.3800  0.4964
   51MOL   C22916329   9.097  -0.350  -0.384 -0.5045 -0.3940  0.1536
   51MOL   C23016330   9.206  -0.259  -0.367 -0.4447  1.1699 -0.0707
   51MOL   C23116331   9.344  -0.289  -0.423 -0.2956  0.3160  0.0404
   51MOL   C23216332   9.182  -0.137  -0.301  0.1860 -0.4380  0.0441
   51MOL   C23316333   9.062  -0.106  -0.239 -0.2283  0.6273 -0.0616
   51MOL   H23416334   8.790  -0.278  -0.148 -1.6384  0.0388 -1.9487
   51MOL   H23516335   8.848  -0.109  -0.092 -0.7099  0.8656 -1.0490
   51MOL   H23616336   8.898  -0.392  -0.318 -0.0266 -1.1075  0.8250
   51MOL   H23716337   9.108  -0.438  -0.445  2.4369  1.5199 -2.2308
   51MOL   H23816338   9.342  -0.328  -0.525  1.3042 -1.1356  0.5332
   51MOL   H23916339   9.387  -0.191  -0.444  1.2536 -0.1543  0.8897
   51MOL   H24016340   9.260  -0.063  -0.313  0.7110 -1.2775 -1.8984
   51MOL   H24116341   9.049  -0.012  -0.186 -0.2620  0.7212 -0.2363
   51MOL   C24216342   9.429  -0.378  -0.329  0.4367 -0.1259  0.3091
   51MOL   C24316343   9.566  -0.396  -0.388 -0.2082 -0.6712  0.0148
   51MOL   C24416344   9.588  -0.516  -0.464  0.1207 -0.2123 -0.2975
   51MOL   C24516345   9.717  -0.538  -0.520 -0.0219  0.0088  0.0229
   51MOL   C24616346   9.814  -0.432  -0.502 -0.9815 -0.5046  0.0560
   51MOL   C24716347   9.946  -0.446  -0.576 -0.1637  0.8643  0.2115
   51MOL   C24816348   9.795  -0.316  -0.424 -0.3583 -0.0417 -0.3124
   51MOL   C24916349   9.668  -0.297  -0.368 -0.4028  0.0300 -1.2823
   51MOL   H25016350   9.443  -0.320  -0.238 -0.1718 -1.0264  0.9793
   51MOL   H25116351   9.372  -0.466  -0.301 -2.2406  1.2145 -0.7398
   51MOL   H25216352   9.513  -0.593  -0.473  0.7350 -0.7268 -1.0514
   51MOL   H25316353   9.734  -0.629  -0.575  1.1865  0.4227 -0.3122
   51MOL   H25416354   9.920  -0.495  -0.670  0.0179 -0.7104  0.9570
   51MOL   H25516355  10.000  -0.353  -0.593  1.3265  0.2421  1.3840
   51MOL   H25616356   9.876  -0.245  -0.420  1.1905 -1.7581 -0.4422
   51MOL   H25716357   9.652  -0.206  -0.312  1.4924 -0.4470  0.0722
   51MOL   C25816358  10.048  -0.534  -0.499 -0.2862 -0.1405  0.6078
   51MOL   C25916359  10.182  -0.554  -0.564  0.2192  0.0303  0.3685
   51MOL   C26016360  10.217  -0.684  -0.594  0.3078 -0.0047  0.1282
   51MOL   C26116361  10.350  -0.707  -0.636 -0.0257 -0.4002 -0.0138
   51MOL   C26216362  10.443  -0.605  -0.655 -0.3320  0.1806  0.5155
   51MOL   C26316363  10.569  -0.634  -0.725  0.2987 -0.0322  0.0084
   51MOL   C26416364  10.398  -0.473  -0.641  0.2068 -0.1745  0.3746
   51MOL   C26516365  10.273  -0.448  -0.584  0.4684  0.5512  0.8687
   51MOL   H26616366   9.999  -0.627  -0.471 -2.6347  1.3643  1.6841
   51MOL   H26716367  10.073  -0.485  -0.405 -4.0196  0.5525  1.3399
   51MOL   H26816368  10.164  -0.776  -0.579  1.6332 -0.9816 -1.0298
   51MOL   H26916369  10.388  -0.806  -0.655 -1.9018 -1.7026  2.7700
   51MOL   H27016370  10.539  -0.690  -0.814 -1.4800  0.9722 -0.0344
   51MOL   H27116371  10.623  -0.549  -0.769 -2.3539  0.5537 -2.3043
   51MOL   H27216372  10.451  -0.381  -0.664  1.4162 -1.2866 -1.4332
   51MOL   H27316373  10.233  -0.352  -0.554  1.2364  1.9694 -2.4916
   51MOL   C27416374  10.664  -0.708  -0.640 -0.1608 -0.1715  0.2243
   51MOL   C27516375  10.790  -0.767  -0.703  0.1614 -0.2535  0.5239
   51MOL   C27616376  10.901  -0.680  -0.733  0.6788 -0.8123  0.2589
   51MOL   C27716377  11.012  -0.729  -0.788  0.4924  0.1556  0.1677
   51MOL   C27816378  11.023  -0.866  -0.819 -0.4001 -0.4755 -0.4311
   51MOL   C27916379  11.149  -0.914  -0.886 -0.1918  0.3707  0.9020
   51MOL   C28016380  10.925  -0.957  -0.777  0.4816 -0.1724  0.1064
   51MOL   C28116381  10.805  -0.903  -0.729 -0.1778  0.1246 -0.3701
   51MOL   H28216382  10.690  -0.635  -0.563  0.6815 -0.0421 -0.1834
   51MOL   H28316383  10.612  -0.795  -0.598 -1.3852  0.3027 -0.2837
   51MOL   H28416384  10.897  -0.573  -0.716 -0.7069 -0.5734 -1.4331
   51MOL   H28516385  11.095  -0.661  -0.805  0.4704  0.4549  1.2233
   51MOL   H28616386  11.124  -0.991  -0.959  0.3428 -1.2688  2.3901
   51MOL   H28716387  11.193  -0.831  -0.940  1.2559 -0.7887  0.2521
   51MOL   H28816388  10.933  -1.061  -0.806  0.4764  0.1813 -1.1853
   51MOL   H28916389  10.728  -0.979  -0.717 -0.3499 -0.3330 -3.7510
   51MOL   C29016390  11.260  -0.965  -0.796 -0.0827  1.1907  0.0177
   51MOL   C29116391  11.389  -1.003  -0.869  0.1169 -0.2768 -0.0000
   51MOL   C29216392  11.426  -1.140  -0.887 -0.2202  0.3779 -0.6410
   51MOL   C29316393  11.542  -1.174  -0.952 -0.1243 -0.7744  0.0634
   51MOL   C29416394  11.618  -1.067  -1.008  0.0979  0.3811 -0.2179
   51MOL   C29516395  11.751  -1.104  -1.075  0.0121  0.0237  0.6592
   51MOL   C29616396  11.587  -0.932  -0.998 -0.4194  0.9088 -0.5971
   51MOL   C29716397  11.461  -0.903  -0.935 -0.6058  0.1642  0.0741
   51MOL   H29816398  11.214  -1.055  -0.755  2.2342  0.2342  0.5609
   51MOL   H29916399  11.276  -0.903  -0.708 -2.9661 -0.8434  2.0696
   51MOL   H30016400  11.370  -1.221  -0.844 -0.1022 -0.6798 -2.4321
   51MOL   H30116401  11.568  -1.278  -0.965  0.3114 -0.4368 -1.9042
   51MOL   H30216402  11.741  -1.163  -1.166 -0.8861  0.2555  0.6072
   51MOL   H30316403  11.797  -1.006  -1.091 -0.1508  0.5001  2.8688
   51MOL   H30416404  11.652  -0.851  -1.027 -1.2622  2.5332  1.9379
   51MOL   H30516405  11.427  -0.800  -0.933  0.4161  0.5218 -0.6198
   51MOL   C30616406  11.855  -1.175  -0.981  0.7087 -0.0136  0.2529
   51MOL   C30716407  11.986  -1.220  -1.056 -0.3206  0.1742 -0.3623
   51MOL   C30816408  12.016  -1.355  -1.067  0.3061 -0.0178 -0.2628
   51MOL   C30916409  12.142  -1.392  -1.121 -0.6104  0.0579 -0.5621
   51MOL   C31016410  12.233  -1.294  -1.162 -0.6620 -0.2531 -0.1456
   51MOL   C31116411  12.368  -1.326  -1.228 -0.0408  0.2007  0.3158
   51MOL   C31216412  12.198  -1.160  -1.160  0.5570 -0.4820 -0.2452
   51MOL   C31316413  12.075  -1.123  -1.106  0.1256 -0.3042  0.1575
   51MOL   H31416414  11.812  -1.265  -0.936 -0.3553  1.2198  1.7538
   51MOL   H31516415  11.877  -1.116  -0.892  2.0695 -1.2672  0.7794
   51MOL   H31616416  11.944  -1.428  -1.033  0.9755  0.1182  1.4614
   51MOL   H31716417  12.174  -1.495  -1.125  0.2391  0.2063  1.8596
   51MOL   H31816418  12.438  -1.244  -1.217 -0.0502  0.1401  0.8595
   51MOL   H31916419  12.407  -1.426  -1.211  0.2672  0.2029 -0.3771
   51MOL   H32016420  12.255  -1.078  -1.200 -0.4047 -0.1914 -1.0253
   51MOL   H32116421  12.046  -1.019  -1.116  0.9759  0.0615  1.4081
   51MOL   H32216422  12.355  -1.334  -1.336  0.8312 -2.1123  0.3564
   52MOL     C116423   3.258   5.425   7.300  0.1261 -0.7265 -0.3248
   52MOL     C216424   3.370   5.350   7.234  0.2066 -0.4880  0.0497
   52MOL     C316425   3.476   5.312   7.315 -0.2389  0.0195 -0.5710
   52MOL     C416426   3.584   5.247   7.262 -0.2546  0.1069 -0.6295
   52MOL     C516427   3.588   5.207   7.125  0.1792 -0.5551  0.1472
   52MOL     C616428   3.709   5.147   7.060 -0.3198 -0.0259 -0.6427
   52MOL     C716429   3.482   5.250   7.044  0.3785 -0.2351 -0.1986
   52MOL     C816430   3.370   5.320   7.098  0.3910  0.6109  0.4294
   52MOL     H916431   3.232   5.515   7.244  0.3373  0.2397  1.0859
   52MOL    H1016432   3.169   5.365   7.281  0.6286 -1.3793 -0.6474
   52MOL    H1116433   3.458   5.347   7.416 -0.3473 -0.0220 -0.5763
   52MOL    H1216434   3.660   5.213   7.330 -0.0100 -0.5696 -1.2447
   52MOL    H1316435   3.710   5.045   7.099  0.0297  0.2143 -0.0221
   52MOL    H1416436   3.689   5.125   6.955 -1.9680  0.0518 -0.3573
   52MOL    H1516437   3.490   5.239   6.937 -0.9208  2.1395 -0.5591
   52MOL    H1616438   3.293   5.356   7.032  0.1505  0.1344  0.4493
   52MOL    H1716439   3.270   5.444   7.406 -0.5021  1.5988 -0.6331
   52MOL    C1816440   3.835   5.232   7.081  0.6243  0.1274  0.0059
   52MOL    C1916441   3.957   5.140   7.059 -0.3077  0.0817  0.2110
   52MOL    C2016442   4.018   5.072   7.170 -0.1277 -0.7495 -0.0065
   52MOL    C2116443   4.139   5.003   7.150 -0.5252  0.4752 -0.2974
   52MOL    C2216444   4.198   5.002   7.021  0.9707  0.0114 -0.8612
   52MOL    C2316445   4.333   4.930   6.989 -0.1252  0.3007 -0.0391
   52MOL    C2416446   4.135   5.063   6.916  0.1416 -0.3066 -0.6559
   52MOL    C2516447   4.017   5.138   6.933 -0.1075 -0.5812 -0.3215
   52MOL    H2616448   3.854   5.316   7.014 -0.3537 -0.9758 -1.7062
   52MOL    H2716449   3.841   5.257   7.187 -0.9412  0.5474  0.0136
   52MOL    H2816450   3.967   5.086   7.264 -2.5224  0.5948 -1.4488
   52MOL    H2916451   4.198   4.953   7.226 -1.1822 -1.0394 -0.7532
   52MOL    H3016452   4.414   4.992   7.025 -0.1448  0.1927  0.1905
   52MOL    H3116453   4.346   4.929   6.881  1.5930 -0.9499  0.1548
   52MOL    H3216454   4.195   5.063   6.826  0.6904 -0.1487 -0.2959
   52MOL    H3316455   3.974   5.199   6.854  2.7993 -0.1342 -1.6103
   52MOL    C3416456   4.338   4.788   7.058  0.4853 -0.8926 -0.0603
   52MOL    C3516457   4.455   4.703   7.018  0.1411 -0.5105  0.7486
   52MOL    C3616458   4.436   4.586   6.940  0.0935  0.1634  0.0866
   52MOL    C3716459   4.548   4.515   6.896 -0.2409 -0.4212 -0.6906
   52MOL    C3816460   4.677   4.550   6.941 -0.0253  0.2627  0.1964
   52MOL    C3916461   4.792   4.457   6.901 -0.0272 -0.1104  0.3136
   52MOL    C4016462   4.699   4.653   7.027 -0.6626 -0.4414  0.0258
   52MOL    C4116463   4.588   4.735   7.056 -0.5646 -0.2829  0.4867
   52MOL    H4216464   4.247   4.737   7.025  1.3999 -1.7362 -1.3470
   52MOL    H4316465   4.319   4.796   7.165  2.2415 -0.0654  0.2077
   52MOL    H4416466   4.336   4.553   6.913 -0.2795  0.1343  1.4857
   52MOL    H4516467   4.528   4.440   6.822 -1.6003  1.3314 -2.1600
   52MOL    H4616468   4.880   4.496   6.952  0.4102  0.7677 -1.0712
   52MOL    H4716469   4.782   4.357   6.944 -0.9205  0.0065  0.3770
   52MOL    H4816470   4.797   4.678   7.066 -0.6072 -0.7178  0.0600
   52MOL    H4916471   4.601   4.816   7.127  0.9433  0.7284 -0.9171
   52MOL    C5016472   4.823   4.435   6.757 -0.0373 -0.4321 -0.1433
   52MOL    C5116473   4.940   4.345   6.727 -0.0955 -0.3246  0.3182
   52MOL    C5216474   4.921   4.201   6.734 -0.3152  0.1928  0.2198
   52MOL    C5316475   5.042   4.127   6.707  0.0227 -0.8367  0.1016
   52MOL    C5416476   5.164   4.189   6.673  0.0102 -0.4318 -0.6786
   52MOL    C5516477   5.291   4.102   6.658 -0.9487  1.3185 -0.2615
   52MOL    C5616478   5.175   4.326   6.657 -0.8945 -0.4278  0.5879
   52MOL    C5716479   5.064   4.410   6.686  0.0301 -0.0599 -0.1633
   52MOL    H5816480   4.842   4.537   6.724 -1.5348 -0.7260 -1.9384
   52MOL    H5916481   4.745   4.388   6.699  0.6566 -1.7508 -0.0416
   52MOL    H6016482   4.835   4.145   6.767  0.7104 -1.4325  0.1925
   52MOL    H6116483   5.023   4.021   6.705  0.9365 -1.0172  1.0454
   52MOL    H6216484   5.368   4.149   6.718 -1.5884  0.4654  1.2430
   52MOL    H6316485   5.289   4.014   6.722  0.3873  1.8311  0.4928
   52MOL    H6416486   5.268   4.378   6.636  0.5975 -3.2087  0.1004
   52MOL    H6516487   5.083   4.514   6.666  1.7885 -0.8526 -2.9634
   52MOL    C6616488   5.329   4.061   6.517 -0.2470 -1.2355 -0.0431
   52MOL    C6716489   5.471   3.997   6.503 -0.3632 -0.0290  0.3341
   52MOL    C6816490   5.489   3.861   6.502  0.2197  0.2553  0.9435
   52MOL    C6916491   5.615   3.802   6.479  0.1651  0.1962  0.3845
   52MOL    C7016492   5.726   3.880   6.448  0.6825  0.5859 -0.2437
   52MOL    C7116493   5.862   3.816   6.436  0.0232  0.6614 -0.1653
   52MOL    C7216494   5.706   4.021   6.442 -0.4204 -0.0319  0.3973
   52MOL    C7316495   5.580   4.079   6.480 -0.1901 -0.3130 -0.1883
   52MOL    H7416496   5.332   4.148   6.451  3.2605 -1.5506 -0.4105
   52MOL    H7516497   5.257   3.991   6.473 -1.0485 -1.6573  1.9175
   52MOL    H7616498   5.399   3.802   6.510  0.2726  0.1885  1.0382
   52MOL    H7716499   5.622   3.694   6.469 -0.7090  0.2158 -0.5480
   52MOL    H7816500   5.855   3.715   6.478 -1.0048 -0.2373 -2.4589
   52MOL    H7916501   5.925   3.872   6.506 -0.7901  2.1240 -0.6018
   52MOL    H8016502   5.791   4.086   6.428 -0.9811  1.0102  1.6835
   52MOL    H8116503   5.573   4.187   6.485 -2.0973 -0.4732  0.9568
   52MOL    C8216504   5.909   3.822   6.296 -0.8346 -0.7692  0.5637
   52MOL    C8316505   6.050   3.779   6.276 -0.7452 -0.0683  0.4721
   52MOL    C8416506   6.082   3.661   6.215  0.1937 -0.1693  0.2653
   52MOL    C8516507   6.210   3.608   6.198 -0.0390  0.5249  0.4368
   52MOL    C8616508   6.316   3.701   6.229 -0.4329  0.0636 -0.6814
   52MOL    C8716509   6.465   3.659   6.218 -0.0368  0.1828 -0.0383
   52MOL    C8816510   6.291   3.824   6.288  0.1087 -0.3920 -0.8877
   52MOL    C8916511   6.157   3.868   6.313  0.0927  0.2323  0.5771
   52MOL    H9016512   5.903   3.921   6.251  0.0794 -1.9468 -2.2486
   52MOL    H9116513   5.844   3.760   6.233  0.4468 -1.6851  0.1265
   52MOL    H9216514   5.996   3.605   6.180 -1.3133  1.7926  0.7833
   52MOL    H9316515   6.225   3.509   6.158 -0.7403 -0.7441  3.1637
   52MOL    H9416516   6.461   3.552   6.241  3.4483  0.6416  3.2918
   52MOL    H9516517   6.525   3.701   6.299 -0.8396 -1.2287  1.3271
   52MOL    H9616518   6.375   3.884   6.322  2.0396 -3.8230  0.6470
   52MOL    H9716519   6.140   3.962   6.364  4.1453  1.9942 -1.0826
   52MOL    C9816520   6.528   3.699   6.091 -0.0081 -0.3903 -0.2635
   52MOL    C9916521   6.670   3.652   6.076 -0.2297  0.8400 -0.9643
   52MOL   C10016522   6.777   3.742   6.087 -0.0920  0.4187 -0.0960
   52MOL   C10116523   6.907   3.689   6.096 -0.0955 -0.6667  0.0917
   52MOL   C10216524   6.931   3.550   6.082  0.2129  0.4962  0.1274
   52MOL   C10316525   7.076   3.503   6.087  0.7164 -0.0592 -0.0066
   52MOL   C10416526   6.821   3.464   6.049  0.0045 -0.0609 -0.0937
   52MOL   C10516527   6.686   3.514   6.048 -0.4362  0.2473 -0.0822
   52MOL   H10616528   6.528   3.808   6.088  1.1066 -0.3894 -0.3388
   52MOL   H10716529   6.465   3.666   6.008  0.1361 -1.6004  0.0908
   52MOL   H10816530   6.754   3.846   6.106  1.5608  0.8315 -0.2173
   52MOL   H10916531   6.997   3.742   6.126  0.6336 -2.2770  0.8247
   52MOL   H11016532   7.120   3.535   6.181  0.6134 -1.1184  0.4093
   52MOL   H11116533   7.078   3.394   6.084 -1.0144 -0.1582  1.7399
   52MOL   H11216534   6.833   3.359   6.029  0.1624  0.2806 -1.8888
   52MOL   H11316535   6.606   3.442   6.032  0.1859  0.0404 -2.5041
   52MOL   C11416536   7.139   3.560   5.963 -0.6812  0.0364 -0.0023
   52MOL   C11516537   7.282   3.516   5.940  1.0237  0.1954 -0.0217
   52MOL   C11616538   7.386   3.610   5.945 -0.9925 -0.0924  0.4918
   52MOL   C11716539   7.523   3.572   5.943 -0.7350 -0.8557 -0.8717
   52MOL   C11816540   7.552   3.432   5.928 -1.0957  0.1321  0.5803
   52MOL   C11916541   7.692   3.386   5.925  0.3465  0.7749 -0.0549
   52MOL   C12016542   7.447   3.338   5.910  0.0195 -0.1619  0.9257
   52MOL   C12116543   7.314   3.383   5.923 -0.6670 -0.3276 -0.1541
   52MOL   H12216544   7.127   3.668   5.966 -1.1678 -0.0326  0.6312
   52MOL   H12316545   7.077   3.527   5.880 -0.6400  0.2723 -0.1255
   52MOL   H12416546   7.361   3.715   5.956 -2.0141 -0.2358 -0.3383
   52MOL   H12516547   7.602   3.641   5.968 -0.4297 -0.8246 -1.9095
   52MOL   H12616548   7.743   3.424   6.014  1.4370  2.5957 -1.4152
   52MOL   H12716549   7.693   3.283   5.959  2.4052  0.7440 -0.1104
   52MOL   H12816550   7.471   3.233   5.904 -0.4835 -0.2217 -0.1072
   52MOL   H12916551   7.232   3.312   5.916  0.0914 -1.5933  3.0426
   52MOL   C13016552   7.771   3.409   5.799 -0.3512 -0.3618  0.4310
   52MOL   C13116553   7.912   3.347   5.792  0.2910 -0.1608  0.2765
   52MOL   C13216554   7.921   3.210   5.774  0.1782  0.0882 -0.8301
   52MOL   C13316555   8.051   3.151   5.768  0.2098 -0.5938 -0.4234
   52MOL   C13416556   8.166   3.232   5.796 -0.3512 -0.3995  0.1267
   52MOL   C13516557   8.305   3.172   5.816  0.0479 -0.4985 -0.0802
   52MOL   C13616558   8.154   3.372   5.803 -0.1242  0.0371 -0.7258
   52MOL   C13716559   8.021   3.430   5.792  0.2901  0.2165 -0.4964
   52MOL   H13816560   7.783   3.517   5.787 -1.9463 -0.0884  1.1739
   52MOL   H13916561   7.713   3.384   5.710 -0.4191  1.1933  0.0176
   52MOL   H14016562   7.831   3.150   5.762 -0.7094  1.1217  0.5141
   52MOL   H14116563   8.067   3.045   5.753 -0.1559 -0.9242  1.4439
   52MOL   H14216564   8.371   3.233   5.878  1.1548  0.8941 -2.5990
   52MOL   H14316565   8.293   3.068   5.847 -3.5292  0.2525  1.3882
   52MOL   H14416566   8.238   3.437   5.822 -1.9032  2.2496 -0.2207
   52MOL   H14516567   8.002   3.537   5.792 -1.1390 -0.0100  1.9755
   52MOL   C14616568   8.370   3.177   5.679  0.2624 -0.4061 -0.3367
   52MOL   C14716569   8.508   3.115   5.685 -0.6378  0.0319 -0.1460
   52MOL   C14816570   8.620   3.184   5.741  0.2500 -0.3565  0.2229
   52MOL   C14916571   8.745   3.114   5.748  0.6792 -0.7351  0.6511
   52MOL   C15016572   8.760   2.986   5.693 -0.0306  0.2966 -0.3572
   52MOL   C15116573   8.899   2.924   5.692 -0.5322  0.0740  0.2106
   52MOL   C15216574   8.647   2.926   5.625 -0.6925 -0.1704 -0.0967
   52MOL   C15316575   8.523   2.990   5.626 -0.2062 -0.1669  0.1602
   52MOL   H15416576   8.386   3.277   5.638 -3.5502  0.1296 -0.7023
   52MOL   H15516577   8.304   3.122   5.612 -0.7285  1.3556 -0.8390
   52MOL   H15616578   8.620   3.287   5.773 -0.3396 -0.4204  0.4525
   52MOL   H15716579   8.829   3.173   5.782 -1.0893  1.4027  1.4709
   52MOL   H15816580   8.956   3.002   5.743  0.2007  0.2414 -0.8459
   52MOL   H15916581   8.899   2.829   5.746  1.1277 -0.8870 -1.4131
   52MOL   H16016582   8.654   2.830   5.575  0.5460  0.4718 -1.1868
   52MOL   H16116583   8.439   2.949   5.571  0.9052 -1.0863 -0.8815
   52MOL   C16216584   8.953   2.904   5.548  0.4244  0.1320  0.1938
   52MOL   C16316585   9.103   2.867   5.534 -0.4243  0.5823  0.5175
   52MOL   C16416586   9.136   2.741   5.478 -0.0611  0.3630  0.3317
   52MOL   C16516587   9.271   2.701   5.498  0.0161 -0.3797  0.6478
   52MOL   C16616588   9.367   2.785   5.553 -0.1776 -0.4136 -0.1878
   52MOL   C16716589   9.504   2.726   5.581 -0.3981 -0.3836  0.7499
   52MOL   C16816590   9.334   2.916   5.593 -0.0799  0.0098  0.5120
   52MOL   C16916591   9.200   2.953   5.589 -0.0922  0.9170 -0.5039
   52MOL   H17016592   8.951   3.000   5.495  3.7004  0.7464  1.0112
   52MOL   H17116593   8.877   2.842   5.501  1.9123  0.4416 -2.7631
   52MOL   H17216594   9.062   2.676   5.432  0.4356 -1.8778  2.5905
   52MOL   H17316595   9.304   2.602   5.472  0.1289  0.0974 -1.1235
   52MOL   H17416596   9.537   2.766   5.678  0.1778  1.1108 -0.0502
   52MOL   H17516597   9.501   2.617   5.585  0.8409 -0.4508  0.0588
   52MOL   H17616598   9.406   2.982   5.637 -1.0967  1.3481  0.2070
   52MOL   H17716599   9.176   3.042   5.645  1.4406  0.8589  0.2565
   52MOL   C17816600   9.590   2.777   5.467  0.1051  0.0942  0.1298
   52MOL   C17916601   9.733   2.745   5.459 -0.5518  0.5274 -0.1904
   52MOL   C18016602   9.824   2.827   5.521  0.0032 -0.2734  0.3956
   52MOL   C18116603   9.961   2.813   5.498  0.2137 -0.6375 -0.8812
   52MOL   C18216604  10.010   2.711   5.415 -0.0715 -0.5919  0.0618
   52MOL   C18316605  10.151   2.686   5.401 -0.0188  0.0031 -0.1627
   52MOL   C18416606   9.915   2.632   5.344 -0.1937  0.3947  0.2404
   52MOL   C18516607   9.777   2.643   5.369  0.0358  0.0538 -1.1812
   52MOL   H18616608   9.577   2.885   5.470 -1.2528 -0.0364 -0.4675
   52MOL   H18716609   9.548   2.745   5.372  0.1458 -0.1320  0.1877
   52MOL   H18816610   9.778   2.906   5.579 -1.2922  0.2294 -1.2641
   52MOL   H18916611  10.023   2.886   5.548 -1.6718 -0.2931  0.9776
   52MOL   H19016612  10.170   2.591   5.352  2.1205  0.6646 -0.6453
   52MOL   H19116613  10.189   2.773   5.347  2.2623  0.0514  1.4860
   52MOL   H19216614   9.955   2.550   5.285  1.3425  1.6700 -0.5464
   52MOL   H19316615   9.709   2.568   5.330  0.2598 -1.1329  0.6137
   52MOL   C19416616  10.245   2.669   5.522 -1.0354  0.3885  0.8165
   52MOL   C19516617  10.391   2.678   5.478 -0.5683  0.5377 -0.1147
   52MOL   C19616618  10.440   2.790   5.400  0.0614  0.9444 -0.5382
   52MOL   C19716619  10.570   2.788   5.349 -0.1726  0.3998 -0.2984
   52MOL   C19816620  10.654   2.682   5.384 -0.5303  0.1774 -0.2494
   52MOL   C19916621  10.792   2.680   5.339 -0.2369  0.0996  0.4740
   52MOL   C20016622  10.609   2.574   5.472 -0.2606 -0.4196  0.8048
   52MOL   C20116623  10.477   2.578   5.523  1.5274 -0.6584 -0.2683
   52MOL   H20216624  10.220   2.581   5.581  1.0198 -0.8308 -0.0698
   52MOL   H20316625  10.225   2.742   5.599  0.8231  1.4565  0.3279
   52MOL   H20416626  10.382   2.877   5.374  0.3577  1.5000  0.6222
   52MOL   H20516627  10.584   2.861   5.271 -1.6547  0.0510 -0.9003
   52MOL   H20616628  10.843   2.593   5.381  0.2258  0.0744 -0.1337
   52MOL   H20716629  10.788   2.654   5.233  0.6541 -1.4255  0.7864
   52MOL   H20816630  10.672   2.495   5.510  2.4120  0.1044 -2.3577
   52MOL   H20916631  10.424   2.508   5.586  0.5850  0.3655  0.0944
   52MOL   C21016632  10.859   2.813   5.381 -0.2427  0.3832  0.4575
   52MOL   C21116633  10.982   2.831   5.300 -0.7725 -0.4261  0.3683
   52MOL   C21216634  10.977   2.913   5.185 -0.2191  0.0007 -0.3504
   52MOL   C21316635  11.088   2.922   5.097 -0.5774  0.3754  0.0030
   52MOL   C21416636  11.208   2.858   5.129 -0.2935  0.0596 -0.5084
   52MOL   C21516637  11.325   2.842   5.031 -0.0739 -0.1256 -0.4719
   52MOL   C21616638  11.212   2.782   5.247  0.5764  0.3466  0.1162
   52MOL   C21716639  11.102   2.770   5.331 -0.9464 -0.4873  0.4167
   52MOL   H21816640  10.862   2.821   5.489  1.6406 -0.9918  0.5421
   52MOL   H21916641  10.795   2.895   5.350 -2.6890 -1.1776  1.2422
   52MOL   H22016642  10.885   2.961   5.155 -1.4273 -0.0293  3.1220
   52MOL   H22116643  11.085   2.970   5.001 -0.8343 -0.9975 -0.6913
   52MOL   H22216644  11.340   2.932   4.972  0.7791 -0.5743 -0.9487
   52MOL   H22316645  11.421   2.831   5.083  0.9677 -0.9629 -2.5356
   52MOL   H22416646  11.294   2.718   5.272  0.8366  0.7035  0.1856
   52MOL   H22516647  11.109   2.712   5.421  0.5051 -2.6596 -1.0416
   52MOL   C22616648  11.284   2.725   4.938 -0.5381 -0.1497  0.0319
   52MOL   C22716649  11.385   2.712   4.828  0.0812 -0.6896 -0.8430
   52MOL   C22816650  11.358   2.766   4.697 -0.8954  0.0282  0.7194
   52MOL   C22916651  11.448   2.757   4.594  0.3635 -0.1362  0.1906
   52MOL   C23016652  11.574   2.692   4.612 -0.2100 -0.0205  0.3297
   52MOL   C23116653  11.666   2.670   4.497 -0.5906  0.2062 -0.0771
   52MOL   C23216654  11.598   2.643   4.742  0.5862 -0.5090  0.2819
   52MOL   C23316655  11.509   2.645   4.848  0.8073  0.3653 -0.1119
   52MOL   H23416656  11.188   2.731   4.888 -0.6864 -0.8472  0.2200
   52MOL   H23516657  11.288   2.625   4.983  1.1615 -1.1881 -2.2866
   52MOL   H23616658  11.264   2.816   4.675 -1.1590 -0.6090  0.4021
   52MOL   H23716659  11.420   2.799   4.499 -1.8409  0.2958  0.9867
   52MOL   H23816660  11.622   2.721   4.411 -0.4118  1.8595  0.7865
   52MOL   H23916661  11.764   2.706   4.528  0.2322 -0.2704 -2.0209
   52MOL   H24016662  11.695   2.597   4.752  1.6584  1.6754  0.0264
   52MOL   H24116663  11.546   2.605   4.941  1.9963 -0.2401 -0.8364
   52MOL   C24216664  11.699   2.524   4.467  0.2839 -0.0939  1.0274
   52MOL   C24316665  11.814   2.499   4.369  0.5009 -0.3917  0.0166
   52MOL   C24416666  11.839   2.585   4.261 -0.1704  0.3535 -0.1976
   52MOL   C24516667  11.953   2.558   4.180 -0.6644  0.2013 -0.0414
   52MOL   C24616668  12.038   2.451   4.207 -0.1026  0.0275 -0.2110
   52MOL   C24716669  12.166   2.442   4.126 -0.0994  0.1125  0.0501
   52MOL   C24816670  12.010   2.363   4.313  0.2497 -0.7222  0.6497
   52MOL   C24916671  11.896   2.391   4.393  0.3799 -0.3836 -0.5358
   52MOL   H25016672  11.723   2.482   4.564 -0.6470 -1.7675  0.5703
   52MOL   H25116673  11.607   2.470   4.442  1.1840 -0.5724 -1.3857
   52MOL   H25216674  11.772   2.668   4.242 -0.3594 -0.0968 -1.5652
   52MOL   H25316675  11.973   2.622   4.096 -1.8698 -1.2306 -1.4552
   52MOL   H25416676  12.189   2.335   4.125 -0.1811  0.0311  2.8242
   52MOL   H25516677  12.134   2.466   4.025 -1.0226 -0.4401  0.2038
   52MOL   H25616678  12.074   2.277   4.325  1.5293  0.2687  1.0513
   52MOL   H25716679  11.883   2.316   4.470  2.2022 -1.5020 -1.2920
   52MOL   C25816680  12.277   2.527   4.182  0.4850  0.0954 -0.2414
   52MOL   C25916681  12.414   2.499   4.118 -0.1613 -0.2887 -0.6835
   52MOL   C26016682  12.529   2.525   4.193 -0.0399  0.6113  0.2710
   52MOL   C26116683  12.653   2.511   4.143 -0.3340  0.6421 -0.7863
   52MOL   C26216684  12.670   2.448   4.017  0.0672 -0.2352  0.5541
   52MOL   C26316685  12.816   2.410   3.966 -0.3251 -0.1042  0.1450
   52MOL   C26416686  12.556   2.426   3.936  0.0746 -0.3138  0.5977
   52MOL   C26516687  12.427   2.455   3.987  0.4302 -0.7834  0.6625
   52MOL   H26616688  12.268   2.515   4.290  0.0200  0.9093 -0.1853
   52MOL   H26716689  12.251   2.630   4.157  0.8419  0.3216  0.3152
   52MOL   H26816690  12.528   2.567   4.292  3.8540  1.0907  0.1715
   52MOL   H26916691  12.737   2.534   4.208 -1.4226 -0.1409  0.9410
   52MOL   H27016692  12.860   2.479   3.895  0.8435 -2.0910 -1.1272
   52MOL   H27116693  12.870   2.413   4.060  0.0877  1.0412 -0.1260
   52MOL   H27216694  12.566   2.385   3.836 -1.5685 -2.2446  1.1896
   52MOL   H27316695  12.339   2.432   3.928 -0.4568  1.5517  1.0344
   52MOL   C27416696  12.826   2.269   3.905  0.1457  0.4834 -0.1043
   52MOL   C27516697  12.973   2.233   3.910 -0.1485  0.9313  0.1372
   52MOL   C27616698  13.054   2.232   3.791  0.6538 -0.2774  0.0679
   52MOL   C27716699  13.191   2.213   3.802 -0.1424  0.2838  0.3067
   52MOL   C27816700  13.254   2.187   3.923  0.0033 -0.6271  0.2859
   52MOL   C27916701  13.403   2.163   3.923 -0.0758  0.4525  0.3545
   52MOL   C28016702  13.172   2.178   4.037  0.1075 -0.2064 -0.0168
   52MOL   C28116703  13.036   2.201   4.033  0.6004  0.2468 -0.6233
   52MOL   H28216704  12.768   2.189   3.951  1.1457 -1.0802 -1.4866
   52MOL   H28316705  12.787   2.274   3.803 -2.5904 -0.1164  0.8900
   52MOL   H28416706  13.003   2.259   3.700  1.8264 -0.3337 -0.6176
   52MOL   H28516707  13.252   2.204   3.713  0.6578  1.9671  0.6555
   52MOL   H28616708  13.447   2.239   3.858  1.0974  0.8122  1.5467
   52MOL   H28716709  13.461   2.186   4.012  0.2017 -1.8803  0.7903
   52MOL   H28816710  13.218   2.156   4.132  2.2745  1.0825 -0.7330
   52MOL   H28916711  12.985   2.200   4.128  0.3290 -2.9294 -0.7506
   52MOL   C29016712  13.442   2.024   3.880 -0.0499  0.2445 -0.4388
   52MOL   C29116713  13.589   2.020   3.852 -0.1102  0.8627  0.0950
   52MOL   C29216714  13.637   2.006   3.722  0.1393 -0.2009  0.2689
   52MOL   C29316715  13.778   1.989   3.702  0.4948  1.0662 -0.6378
   52MOL   C29416716  13.869   1.999   3.812 -0.2522 -0.3957  0.4443
   52MOL   C29516717  14.017   1.980   3.792 -0.7797  0.0380 -0.0452
   52MOL   C29616718  13.816   2.004   3.939  0.0131 -0.1609 -0.3148
   52MOL   C29716719  13.675   2.010   3.957  0.1554  0.7705 -0.6858
   52MOL   H29816720  13.388   1.984   3.794 -2.7275  1.3540  0.6909
   52MOL   H29916721  13.414   1.953   3.959  0.1502  2.7018  1.9057
   52MOL   H30016722  13.568   2.013   3.639  0.1673 -0.3047  0.2361
   52MOL   H30116723  13.823   1.969   3.606  2.0206 -0.9950  0.4376
   52MOL   H30216724  14.045   2.031   3.699 -1.3322 -2.2149 -1.4940
   52MOL   H30316725  14.079   2.019   3.873 -0.5381  0.3321 -0.3679
   52MOL   H30416726  13.882   2.004   4.024 -1.6101 -1.2004  0.9705
   52MOL   H30516727  13.641   2.010   4.060  1.1542 -0.9630 -0.3241
   52MOL   C30616728  14.062   1.832   3.784  0.2348 -0.2034 -0.2654
   52MOL   C30716729  14.208   1.810   3.775 -0.4517  0.6074 -0.1649
   52MOL   C30816730  14.272   1.730   3.869 -0.2638 -0.1350 -0.2679
   52MOL   C30916731  14.411   1.716   3.861 -0.5973  0.5049  0.0694
   52MOL   C31016732  14.488   1.777   3.765 -0.4725 -1.1457 -0.0576
   52MOL   C31116733  14.638   1.778   3.774  0.1164  0.6825 -0.2276
   52MOL   C31216734  14.420   1.851   3.668 -0.2159 -0.1998  0.0597
   52MOL   C31316735  14.280   1.866   3.673 -0.0934 -0.3028 -0.2096
   52MOL   H31416736  14.017   1.770   3.706  1.8707 -3.7150  1.5014
   52MOL   H31516737  14.040   1.789   3.881 -1.6853  0.2225 -0.4892
   52MOL   H31616738  14.224   1.671   3.946 -0.2397 -1.6730 -1.4069
   52MOL   H31716739  14.454   1.653   3.938  0.1793 -1.3872 -1.8559
   52MOL   H31816740  14.675   1.777   3.877  0.4885  0.4356 -0.3648
   52MOL   H31916741  14.678   1.694   3.718 -0.6879  0.2050 -0.0962
   52MOL   H32016742  14.469   1.895   3.582 -0.0416 -0.3947  0.0585
   52MOL   H32116743  14.225   1.914   3.594 -0.5419 -0.4331  0.0241
   52MOL   H32216744  14.689   1.863   3.728  0.1930 -0.8339 -3.0462
   53MOL     C116745   1.734   3.364   0.247 -0.2915 -0.0587 -0.0167
   53MOL     C216746   1.881   3.378   0.217  0.6075 -0.5094  0.2147
   53MOL     C316747   1.922   3.424   0.091 -1.0333  0.1968 -0.4837
   53MOL     C416748   2.057   3.401   0.053  0.4248 -0.3269  0.3694
   53MOL     C516749   2.154   3.357   0.142 -0.9517 -0.3543 -0.8231
   53MOL     C616750   2.301   3.329   0.099 -0.3036 -0.0341  0.9027
   53MOL     C716751   2.110   3.332   0.277  0.3765  0.2032  0.4869
   53MOL     C816752   1.977   3.337   0.310 -0.3347 -0.2158  1.1034
   53MOL     H916753   1.698   3.287   0.179  0.2038 -0.8576  0.6189
   53MOL    H1016754   1.723   3.333   0.351  3.1626 -2.0681 -0.1640
   53MOL    H1116755   1.855   3.465   0.017  0.4394  1.4317 -1.1509
   53MOL    H1216756   2.099   3.416  -0.045  1.1328  0.9895  0.8668
   53MOL    H1316757   2.309   3.339  -0.009  0.9560  0.1887  1.0089
   53MOL    H1416758   2.378   3.394   0.140  0.6415  0.5763 -1.7264
   53MOL    H1516759   2.193   3.298   0.337  0.3601 -2.2361 -0.8416
   53MOL    H1616760   1.947   3.304   0.408 -3.1500 -1.9662 -0.3009
   53MOL    H1716761   1.691   3.461   0.220 -0.0537 -0.2622 -1.1744
   53MOL    C1816762   2.342   3.187   0.136 -0.3741  0.0995  0.5245
   53MOL    C1916763   2.483   3.136   0.106 -0.1484  0.7186 -0.2180
   53MOL    C2016764   2.592   3.219   0.140  0.6399  0.2771 -0.4810
   53MOL    C2116765   2.722   3.178   0.102  0.7482  0.0132 -0.1941
   53MOL    C2216766   2.739   3.054   0.038  0.4226  0.3163  0.5473
   53MOL    C2316767   2.871   3.008  -0.011 -0.2097  0.0296  0.6090
   53MOL    C2416768   2.629   2.968   0.016  1.1374  0.0985 -0.5513
   53MOL    C2516769   2.501   3.012   0.046  0.2275  0.7533 -0.8538
   53MOL    H2616770   2.336   3.176   0.245 -1.6130 -1.7481  0.2802
   53MOL    H2716771   2.268   3.118   0.095  1.3804 -1.3028 -0.3574
   53MOL    H2816772   2.576   3.313   0.191 -0.5507 -0.6372  0.8581
   53MOL    H2916773   2.807   3.239   0.126  0.1601  1.0219 -0.6257
   53MOL    H3016774   2.912   3.089  -0.070 -1.4799  0.3627  0.1638
   53MOL    H3116775   2.853   2.929  -0.084  0.2358  0.7424 -0.2764
   53MOL    H3216776   2.638   2.871  -0.031 -2.8037 -0.9610  0.7448
   53MOL    H3316777   2.419   2.947   0.021  0.3373  0.7841 -1.2914
   53MOL    C3416778   2.966   2.960   0.104  0.2061  0.0874 -0.0517
   53MOL    C3516779   3.108   2.934   0.068  0.2001  0.5552  0.1884
   53MOL    C3616780   3.184   3.043   0.018  0.0606 -0.5577  0.0927
   53MOL    C3716781   3.322   3.020  -0.011  0.2544 -0.1776 -0.0991
   53MOL    C3816782   3.386   2.894  -0.003 -0.0491  0.8175  0.3942
   53MOL    C3916783   3.528   2.858  -0.052 -0.9481 -0.4231  0.1266
   53MOL    C4016784   3.304   2.785   0.036 -0.6442 -0.4147 -0.6965
   53MOL    C4116785   3.162   2.803   0.072  0.1264  0.2991  0.3550
   53MOL    H4216786   2.928   2.869   0.151 -2.4552  0.8702 -0.5616
   53MOL    H4316787   2.957   3.043   0.175  0.3912  1.6882 -1.8449
   53MOL    H4416788   3.148   3.145   0.017  2.5994  0.3728 -1.4607
   53MOL    H4516789   3.375   3.113  -0.025 -0.5597  0.9233  3.6558
   53MOL    H4616790   3.604   2.915   0.002 -0.7323  0.3218 -0.9493
   53MOL    H4716791   3.547   2.754  -0.028 -1.5218 -0.7959 -1.0401
   53MOL    H4816792   3.349   2.687   0.041  2.9627  1.1189 -1.5685
   53MOL    H4916793   3.102   2.728   0.121  1.6943 -0.2238  1.4606
   53MOL    C5016794   3.556   2.900  -0.195  0.8518  0.5408  0.4699
   53MOL    C5116795   3.697   2.872  -0.238 -0.0220 -0.0304  0.3026
   53MOL    C5216796   3.812   2.918  -0.168  0.6032  0.2040  0.3551
   53MOL    C5316797   3.940   2.898  -0.222 -0.4981  0.2810 -0.0459
   53MOL    C5416798   3.959   2.807  -0.326  0.2047  0.4199 -0.2666
   53MOL    C5516799   4.097   2.770  -0.375 -0.1230 -0.0592 -0.2251
   53MOL    C5616800   3.847   2.757  -0.391  0.2043 -0.2927 -0.4581
   53MOL    C5716801   3.714   2.793  -0.352 -0.3699 -0.6397  0.5228
   53MOL    H5816802   3.531   3.006  -0.209 -1.4532  0.1582  1.4750
   53MOL    H5916803   3.486   2.858  -0.268  1.0335 -1.2499  1.3071
   53MOL    H6016804   3.801   2.974  -0.077 -0.5509  0.7297 -0.0953
   53MOL    H6116805   4.023   2.942  -0.168  0.5436 -1.5340 -0.1054
   53MOL    H6216806   4.100   2.798  -0.481 -1.3909 -2.6370 -0.9621
   53MOL    H6316807   4.179   2.822  -0.325 -0.2954 -1.0816  1.1190
   53MOL    H6416808   3.862   2.696  -0.480 -1.6220  1.8349 -2.2787
   53MOL    H6516809   3.628   2.749  -0.399 -0.8768  2.1130 -1.2405
   53MOL    C6616810   4.126   2.619  -0.347 -0.5694 -0.2576 -0.0007
   53MOL    C6716811   4.257   2.569  -0.395  0.3562  0.6479 -0.7138
   53MOL    C6816812   4.250   2.477  -0.502  0.3879 -0.3836 -0.4596
   53MOL    C6916813   4.364   2.426  -0.558  0.0896  0.5089  0.1607
   53MOL    C7016814   4.487   2.473  -0.509 -0.0224 -0.8086  0.9131
   53MOL    C7116815   4.616   2.432  -0.583  0.3677  0.1938  1.0892
   53MOL    C7216816   4.497   2.564  -0.401  0.2195 -1.0520  0.0229
   53MOL    C7316817   4.382   2.614  -0.345  0.0069 -0.0593  0.0326
   53MOL    H7416818   4.042   2.560  -0.384 -2.0412  0.7891  1.6163
   53MOL    H7516819   4.128   2.591  -0.242  0.6772  1.1868  0.3779
   53MOL    H7616820   4.153   2.445  -0.537  0.6458 -0.9695 -0.6436
   53MOL    H7716821   4.359   2.349  -0.634  0.8318 -1.3168  1.8962
   53MOL    H7816822   4.687   2.515  -0.577 -0.3615  0.9694 -0.7533
   53MOL    H7916823   4.599   2.403  -0.687  1.7330 -0.0928  0.9373
   53MOL    H8016824   4.595   2.588  -0.363  0.6395 -2.5572 -0.0695
   53MOL    H8116825   4.396   2.688  -0.267  0.6558  0.5797 -0.6784
   53MOL    C8216826   4.682   2.315  -0.523 -0.6615 -0.1764  0.2519
   53MOL    C8316827   4.819   2.288  -0.576  0.1326 -0.3168 -0.3492
   53MOL    C8416828   4.835   2.211  -0.697  0.3434 -0.2336  0.4271
   53MOL    C8516829   4.961   2.204  -0.754 -0.0012  0.6762  0.0136
   53MOL    C8616830   5.075   2.259  -0.695 -0.3456 -0.0463  0.6139
   53MOL    C8716831   5.216   2.223  -0.748 -0.2519  0.0984  0.8684
   53MOL    C8816832   5.060   2.334  -0.577 -0.2236 -0.6481 -0.0216
   53MOL    C8916833   4.932   2.353  -0.522 -0.3123  0.0859 -0.7130
   53MOL    H9016834   4.607   2.237  -0.534 -0.3076 -0.3396 -1.0814
   53MOL    H9116835   4.685   2.315  -0.414  1.2413  1.0674  0.2181
   53MOL    H9216836   4.759   2.157  -0.752 -1.6785  2.0365  0.8692
   53MOL    H9316837   4.968   2.171  -0.856  0.4170  1.5491 -0.2454
   53MOL    H9416838   5.282   2.305  -0.721  0.9338 -0.6538  0.2646
   53MOL    H9516839   5.212   2.210  -0.856 -0.8853 -1.5382  1.0709
   53MOL    H9616840   5.147   2.380  -0.531 -0.7282  0.9412 -0.6348
   53MOL    H9716841   4.929   2.416  -0.435  0.0356  0.1204 -0.7223
   53MOL    C9816842   5.267   2.085  -0.696  0.5183 -0.3150  0.4552
   53MOL    C9916843   5.413   2.063  -0.730  0.0257  0.6751 -0.0724
   53MOL   C10016844   5.454   2.053  -0.865  0.3299  0.1091  0.1046
   53MOL   C10116845   5.588   2.028  -0.906 -0.5248 -0.0198 -0.6866
   53MOL   C10216846   5.682   2.016  -0.805 -0.3883  0.0403 -0.1270
   53MOL   C10316847   5.829   1.994  -0.841  0.0933  0.6532  0.0839
   53MOL   C10416848   5.649   2.028  -0.666  0.3265  0.2799  0.7105
   53MOL   C10516849   5.514   2.055  -0.632  0.5480 -0.5389 -0.0735
   53MOL   H10616850   5.211   2.004  -0.743 -1.1022  0.6237  0.7578
   53MOL   H10716851   5.260   2.077  -0.588 -0.4352  0.9726  0.4975
   53MOL   H10816852   5.378   2.071  -0.939  1.1356  4.0526  0.1320
   53MOL   H10916853   5.614   2.018  -1.010 -0.6190  0.6393 -0.7729
   53MOL   H11016854   5.839   2.040  -0.939 -0.6516  1.9509  0.6063
   53MOL   H11116855   5.897   2.054  -0.781  1.4926 -1.1063  0.2986
   53MOL   H11216856   5.727   2.020  -0.592  0.4920 -1.5497  0.3638
   53MOL   H11316857   5.485   2.070  -0.529 -2.0182  2.3273 -1.1349
   53MOL   C11416858   5.865   1.851  -0.843 -0.7339  0.3938  0.8836
   53MOL   C11516859   6.008   1.823  -0.871  0.5477  0.1974 -0.8019
   53MOL   C11616860   6.047   1.799  -1.003 -0.0378  0.5229 -0.1694
   53MOL   C11716861   6.184   1.802  -1.035  0.3056  0.4840 -0.1270
   53MOL   C11816862   6.280   1.777  -0.932  0.2438 -0.0777 -0.4722
   53MOL   C11916863   6.426   1.761  -0.964 -0.1416 -0.0224  0.7060
   53MOL   C12016864   6.235   1.773  -0.797 -0.3712 -0.4267  0.7697
   53MOL   C12116865   6.101   1.806  -0.767 -0.1620 -0.5976 -0.2874
   53MOL   H12216866   5.801   1.792  -0.908  0.5963 -2.3684  1.9692
   53MOL   H12316867   5.842   1.812  -0.744 -1.2735 -1.7574 -0.0527
   53MOL   H12416868   5.972   1.802  -1.081 -0.4337 -0.1025  0.1912
   53MOL   H12516869   6.209   1.805  -1.140 -4.5566  0.1904 -1.4409
   53MOL   H12616870   6.461   1.835  -1.036  0.2238  1.0490  1.9753
   53MOL   H12716871   6.479   1.784  -0.872 -0.8100 -0.1408  1.1246
   53MOL   H12816872   6.317   1.778  -0.727  2.2506  0.1394 -2.2705
   53MOL   H12916873   6.064   1.827  -0.667  0.7056 -1.2340  0.1710
   53MOL   C13016874   6.452   1.617  -1.006  0.9759 -0.7722  0.0919
   53MOL   C13116875   6.603   1.598  -1.040  0.0600 -0.4452  0.3225
   53MOL   C13216876   6.639   1.554  -1.167 -1.0307 -0.1456  0.6285
   53MOL   C13316877   6.775   1.545  -1.214  0.4268 -0.2176  0.1915
   53MOL   C13416878   6.874   1.585  -1.123 -0.3344  0.5092 -0.3806
   53MOL   C13516879   7.022   1.594  -1.169 -0.2977  1.3982 -0.2907
   53MOL   C13616880   6.838   1.623  -0.992 -0.6359  0.0063  0.1225
   53MOL   C13716881   6.706   1.623  -0.949 -0.0546  0.6802 -0.2509
   53MOL   H13816882   6.392   1.595  -1.094 -0.7260  1.3789  0.6739
   53MOL   H13916883   6.425   1.542  -0.932  1.7931 -3.2094 -1.9687
   53MOL   H14016884   6.564   1.531  -1.241 -2.1106 -1.3129  2.0619
   53MOL   H14116885   6.808   1.523  -1.314 -2.0315  1.0109 -0.9041
   53MOL   H14216886   7.012   1.647  -1.264  0.8307 -1.1230 -1.8670
   53MOL   H14316887   7.075   1.663  -1.104 -1.5219  1.3042  0.8397
   53MOL   H14416888   6.915   1.664  -0.928 -0.3390  1.0194 -0.8860
   53MOL   H14516889   6.674   1.668  -0.856  0.6056  0.6933 -0.0272
   53MOL   C14616890   7.098   1.456  -1.181  0.4359 -0.2600  0.5895
   53MOL   C14716891   7.245   1.480  -1.218 -0.0299 -0.3736 -0.3225
   53MOL   C14816892   7.288   1.506  -1.350  0.2570 -0.8281  0.0380
   53MOL   C14916893   7.424   1.502  -1.375  0.1018 -0.4893  0.0078
   53MOL   C15016894   7.522   1.482  -1.271 -0.6783  0.3329  0.0910
   53MOL   C15116895   7.668   1.464  -1.309 -0.3319 -0.1402 -0.1553
   53MOL   C15216896   7.478   1.477  -1.140 -0.0009  0.0848 -0.7046
   53MOL   C15316897   7.343   1.484  -1.118  0.4730  0.6232 -0.7414
   53MOL   H15416898   7.071   1.385  -1.259  4.7934 -2.8802  1.3036
   53MOL   H15516899   7.077   1.397  -1.092 -0.7254  0.6961  0.9620
   53MOL   H15616900   7.221   1.517  -1.434 -0.4649  2.0343  0.9332
   53MOL   H15716901   7.457   1.510  -1.478 -2.3066  2.5485 -0.5953
   53MOL   H15816902   7.679   1.480  -1.417  1.4206 -0.5634 -0.0518
   53MOL   H15916903   7.730   1.540  -1.262  0.5566 -1.8924  1.5469
   53MOL   H16016904   7.550   1.477  -1.059 -0.7034  1.4308 -0.0660
   53MOL   H16116905   7.313   1.483  -1.014  1.4608 -0.1830 -0.4514
   53MOL   C16216906   7.719   1.328  -1.281  0.1790  0.0686  0.0940
   53MOL   C16316907   7.867   1.317  -1.310 -0.0759 -0.4708 -0.1147
   53MOL   C16416908   7.958   1.297  -1.210 -0.4191 -0.1289 -0.2063
   53MOL   C16516909   8.091   1.270  -1.241 -0.0547  0.4589 -0.0302
   53MOL   C16616910   8.137   1.270  -1.371  1.1578  0.6301  0.7053
   53MOL   C16716911   8.288   1.261  -1.399  0.4312 -0.3009 -0.3349
   53MOL   C16816912   8.050   1.300  -1.479 -1.3644  0.1027 -0.6201
   53MOL   C16916913   7.911   1.319  -1.444 -0.3952 -0.1473 -1.4795
   53MOL   H17016914   7.669   1.244  -1.328  0.2220 -0.2256  0.5711
   53MOL   H17116915   7.702   1.314  -1.174 -4.0270  1.6633 -0.2713
   53MOL   H17216916   7.924   1.293  -1.107  0.4525  0.3596  0.1054
   53MOL   H17316917   8.163   1.257  -1.163 -0.4349 -0.7775  0.1242
   53MOL   H17416918   8.303   1.309  -1.495  1.1362  2.9380  1.3311
   53MOL   H17516919   8.334   1.326  -1.324  1.6534 -1.8796  0.3262
   53MOL   H17616920   8.089   1.294  -1.580  1.0110  0.1509  0.2484
   53MOL   H17716921   7.846   1.323  -1.530 -1.1054  1.6969 -0.8699
   53MOL   C17816922   8.359   1.123  -1.405 -0.2026  0.2411 -0.0694
   53MOL   C17916923   8.501   1.133  -1.458 -0.0654  0.5693 -0.0065
   53MOL   C18016924   8.604   1.117  -1.364 -0.4684  0.2203 -0.6795
   53MOL   C18116925   8.737   1.115  -1.412  0.8878  0.5215  0.5190
   53MOL   C18216926   8.764   1.119  -1.552  0.3911  0.1336  0.2583
   53MOL   C18316927   8.907   1.115  -1.595  0.3639 -0.1521  0.4588
   53MOL   C18416928   8.663   1.135  -1.647  0.2039 -0.3876  0.4892
   53MOL   C18516929   8.530   1.148  -1.600 -0.1193 -0.4487 -0.4131
   53MOL   H18616930   8.302   1.071  -1.482  1.6305 -0.2245 -1.1505
   53MOL   H18716931   8.357   1.075  -1.307  2.3813  0.0807 -0.0575
   53MOL   H18816932   8.585   1.113  -1.257  2.2621  1.7807 -0.0937
   53MOL   H18916933   8.813   1.108  -1.336 -1.6191  2.1419  3.3157
   53MOL   H19016934   8.926   1.150  -1.696 -1.0740 -0.9391 -0.1057
   53MOL   H19116935   8.965   1.182  -1.531  0.2020  2.2612 -1.8755
   53MOL   H19216936   8.680   1.132  -1.753 -0.3896 -3.0070  0.4250
   53MOL   H19316937   8.452   1.160  -1.673 -0.9943 -0.9087  0.4217
   53MOL   C19416938   8.965   0.974  -1.588  0.3089  0.6551 -0.6135
   53MOL   C19516939   9.109   0.965  -1.643 -0.0208  0.3978  0.0171
   53MOL   C19616940   9.219   0.942  -1.554  0.3468 -0.2920  0.2976
   53MOL   C19716941   9.349   0.938  -1.603 -0.1942 -0.0298 -0.6255
   53MOL   C19816942   9.377   0.940  -1.741  0.0899  0.6262 -0.4490
   53MOL   C19916943   9.521   0.920  -1.795  0.9748  0.8616 -0.5241
   53MOL   C20016944   9.273   0.970  -1.828 -0.6550  0.4452  0.7659
   53MOL   C20116945   9.139   0.983  -1.783 -0.3609 -0.7645  0.3195
   53MOL   H20216946   8.900   0.915  -1.652  0.6108 -0.1550 -0.1755
   53MOL   H20316947   8.951   0.942  -1.485  0.2803  0.6127 -0.6312
   53MOL   H20416948   9.194   0.919  -1.451 -2.0329  0.4722 -0.0737
   53MOL   H20516949   9.428   0.918  -1.532 -2.6978 -2.0426  1.6902
   53MOL   H20616950   9.523   0.933  -1.903 -0.6171 -1.7621 -0.9078
   53MOL   H20716951   9.586   0.991  -1.744  1.4906  0.3547 -0.4774
   53MOL   H20816952   9.281   0.974  -1.935 -1.1945 -0.7899  0.6712
   53MOL   H20916953   9.057   1.005  -1.849 -1.4917  2.4711  2.6807
   53MOL   C21016954   9.567   0.772  -1.765  0.7435  0.3849  0.4122
   53MOL   C21116955   9.715   0.748  -1.796 -0.0554 -0.5895 -0.4196
   53MOL   C21216956   9.804   0.756  -1.689  0.1754 -0.1414 -0.0341
   53MOL   C21316957   9.943   0.747  -1.712 -0.4429  0.3755 -0.4652
   53MOL   C21416958   9.990   0.705  -1.837  0.7181  0.4525  0.4075
   53MOL   C21516959  10.138   0.696  -1.865 -0.0550  0.8914  0.7015
   53MOL   C21616960   9.896   0.684  -1.943  0.1931  0.2548 -0.5608
   53MOL   C21716961   9.757   0.709  -1.923 -0.4475  0.1744 -0.4975
   53MOL   H21816962   9.507   0.699  -1.819 -0.7254 -1.0599  3.8591
   53MOL   H21916963   9.555   0.760  -1.657  2.9744  1.8602  0.8669
   53MOL   H22016964   9.769   0.774  -1.589  0.3156  2.8436 -0.4933
   53MOL   H22116965  10.008   0.765  -1.628 -3.0399 -0.1525  1.7248
   53MOL   H22216966  10.164   0.753  -1.954 -1.6752 -0.4318 -0.6580
   53MOL   H22316967  10.191   0.739  -1.780  0.8730 -1.9084  1.5948
   53MOL   H22416968   9.930   0.650  -2.040  0.7916 -1.6302  0.2850
   53MOL   H22516969   9.675   0.694  -1.992 -0.0154 -0.9877 -0.7670
   53MOL   C22616970  10.182   0.550  -1.887 -0.4614 -0.4328 -0.0446
   53MOL   C22716971  10.334   0.544  -1.901 -0.2896  0.6758 -0.2017
   53MOL   C22816972  10.422   0.541  -1.792 -0.1044 -0.2152  0.6722
   53MOL   C22916973  10.562   0.525  -1.818 -0.0651  0.7839 -0.1149
   53MOL   C23016974  10.608   0.500  -1.945 -0.6608  0.7457  0.4703
   53MOL   C23116975  10.760   0.481  -1.975  0.3318 -0.6546  0.2557
   53MOL   C23216976  10.518   0.497  -2.050 -0.0941  0.3967 -0.1126
   53MOL   C23316977  10.380   0.525  -2.027 -0.3284  0.0820  0.4098
   53MOL   H23416978  10.142   0.499  -1.975  2.2679 -1.6026 -0.6597
   53MOL   H23516979  10.166   0.487  -1.800  3.4278  0.1233  1.1945
   53MOL   H23616980  10.395   0.569  -1.691 -0.9779 -1.0834  0.6842
   53MOL   H23716981  10.631   0.533  -1.735  0.7528  2.1480 -0.8947
   53MOL   H23816982  10.782   0.469  -2.081  0.7297  2.3804 -0.0626
   53MOL   H23916983  10.820   0.571  -1.959  1.5550 -1.6800  1.5741
   53MOL   H24016984  10.549   0.488  -2.153 -0.5009  0.4283 -0.2408
   53MOL   H24116985  10.309   0.528  -2.108 -1.3129  1.2512  1.3090
   53MOL   C24216986  10.827   0.371  -1.890 -0.1775  0.1408 -0.1945
   53MOL   C24316987  10.968   0.348  -1.941 -0.8161 -0.7184  0.2581
   53MOL   C24416988  10.990   0.308  -2.070 -0.8280  1.1643  0.0759
   53MOL   C24516989  11.124   0.270  -2.112  0.0409 -0.3188  0.2492
   53MOL   C24616990  11.236   0.281  -2.020  0.4596 -0.2784  0.3954
   53MOL   C24716991  11.369   0.246  -2.078  0.3733 -0.6154  0.0061
   53MOL   C24816992  11.218   0.343  -1.895 -0.2940  0.1130  0.7163
   53MOL   C24916993  11.083   0.371  -1.857  0.5357  0.3442 -0.4020
   53MOL   H25016994  10.835   0.400  -1.785 -0.8547 -0.0083 -0.0957
   53MOL   H25116995  10.775   0.277  -1.905  1.4251 -0.3738 -2.7422
   53MOL   H25216996  10.907   0.290  -2.136  1.6262 -1.7632 -2.3714
   53MOL   H25316997  11.142   0.224  -2.208  0.5022  0.1836  0.0930
   53MOL   H25416998  11.368   0.265  -2.186  0.1127 -0.6502  0.0014
   53MOL   H25516999  11.428   0.331  -2.045  2.0766 -2.2420  1.2310
   53MOL   H25617000  11.301   0.359  -1.828 -0.0245 -0.2961  0.4850
   53MOL   H25717001  11.071   0.403  -1.754 -2.3543  0.4299 -0.7317
   53MOL   C25817002  11.419   0.106  -2.041 -0.1925  0.8165 -0.5610
   53MOL   C25917003  11.551   0.073  -2.100 -0.7744  0.3866  0.0896
   53MOL   C26017004  11.664   0.070  -2.020  0.3226 -0.1810 -0.4033
   53MOL   C26117005  11.794   0.039  -2.070 -0.0455 -0.8050 -0.0093
   53MOL   C26217006  11.810   0.018  -2.211  0.2093 -0.1387 -0.2939
   53MOL   C26317007  11.949  -0.013  -2.280 -0.1669 -0.3335  0.4476
   53MOL   C26417008  11.690   0.020  -2.288  0.2073  0.0559  0.2957
   53MOL   C26517009  11.559   0.042  -2.235  0.3980 -0.2434  0.1436
   53MOL   H26617010  11.348   0.026  -2.061  0.6152  0.3515 -1.5752
   53MOL   H26717011  11.431   0.108  -1.932  1.6144  0.7474 -0.7476
   53MOL   H26817012  11.658   0.100  -1.916  2.8084 -2.7545  0.5527
   53MOL   H26917013  11.881   0.051  -2.007  0.9906  0.0596 -1.5566
   53MOL   H27017014  11.964   0.071  -2.349 -1.6287 -0.5294 -0.1292
   53MOL   H27117015  12.026  -0.031  -2.206  1.2359 -0.4499 -1.0144
   53MOL   H27217016  11.718  -0.007  -2.389 -0.8164 -0.8874  0.2525
   53MOL   H27317017  11.480   0.046  -2.309  0.4473 -0.2928  0.0880
   53MOL   C27417018  11.951  -0.152  -2.352  0.3413 -0.0499  0.5696
   53MOL   C27517019  12.092  -0.187  -2.407 -0.4817 -0.2721 -0.4825
   53MOL   C27617020  12.196  -0.242  -2.325 -0.2572 -0.1338  0.9023
   53MOL   C27717021  12.321  -0.274  -2.382  0.6937  0.0137 -0.3438
   53MOL   C27817022  12.340  -0.253  -2.521  0.1304 -0.1833 -0.2330
   53MOL   C27917023  12.474  -0.294  -2.581 -0.3298  0.3304 -0.6662
   53MOL   C28017024  12.235  -0.206  -2.604  0.0299  0.6621  0.8354
   53MOL   C28117025  12.116  -0.173  -2.546 -0.4405 -0.1845 -0.4047
   53MOL   H28217026  11.905  -0.227  -2.289 -0.1372  0.6677  1.0854
   53MOL   H28317027  11.879  -0.136  -2.433  1.0312  1.6911  0.2699
   53MOL   H28417028  12.186  -0.262  -2.220  2.0012  0.2802  1.2277
   53MOL   H28517029  12.398  -0.322  -2.322  1.2855  1.0553 -0.2687
   53MOL   H28617030  12.479  -0.401  -2.558  1.1293  0.6451  0.6043
   53MOL   H28717031  12.471  -0.295  -2.690  0.0711 -1.6729 -0.6872
   53MOL   H28817032  12.248  -0.201  -2.711  1.0612  0.9623  0.9731
   53MOL   H28917033  12.032  -0.146  -2.607 -0.0066  1.9060 -0.1205
   53MOL   C29017034  12.607  -0.242  -2.524  0.0466  0.1026  0.0408
   53MOL   C29117035  12.733  -0.308  -2.593 -0.5704 -0.7524  0.1634
   53MOL   C29217036  12.768  -0.270  -2.724  0.8816  0.1660  0.4453
   53MOL   C29317037  12.874  -0.329  -2.788  0.4831  0.1563 -0.4059
   53MOL   C29417038  12.935  -0.435  -2.728 -0.2064  0.4134 -0.0523
   53MOL   C29517039  13.031  -0.517  -2.810  0.0811  0.1519  0.6330
   53MOL   C29617040  12.901  -0.479  -2.604 -0.9154 -0.1059 -0.8317
   53MOL   C29717041  12.804  -0.414  -2.530 -0.2388  0.1042 -0.1294
   53MOL   H29817042  12.611  -0.260  -2.416  1.2278  0.9830  0.1637
   53MOL   H29917043  12.608  -0.133  -2.526 -1.3958  0.1394  0.6039
   53MOL   H30017044  12.718  -0.193  -2.780  2.1610  0.0433 -0.8866
   53MOL   H30117045  12.910  -0.294  -2.884 -0.0557 -0.1039 -0.7042
   53MOL   H30217046  13.049  -0.614  -2.765 -0.3609  0.3303  1.1967
   53MOL   H30317047  12.994  -0.540  -2.910  1.0390 -0.2433  0.3676
   53MOL   H30417048  12.955  -0.560  -2.557 -0.9341  0.7418  0.6621
   53MOL   H30517049  12.784  -0.453  -2.431 -0.9567 -0.0648 -0.3324
   53MOL   C30617050  13.166  -0.446  -2.825  0.1629  0.0879  0.0993
   53MOL   C30717051  13.264  -0.541  -2.887 -0.0160 -0.2160 -0.9427
   53MOL   C30817052  13.360  -0.610  -2.810  0.1247  0.4020  0.5315
   53MOL   C30917053  13.437  -0.711  -2.866  0.2543  0.2408 -0.4858
   53MOL   C31017054  13.427  -0.738  -3.000 -0.3549 -0.0364 -0.5278
   53MOL   C31117055  13.525  -0.832  -3.079  0.5376 -0.0460 -0.0913
   53MOL   C31217056  13.336  -0.669  -3.082  0.1554  0.1405  0.2522
   53MOL   C31317057  13.258  -0.564  -3.024  0.2370  0.1921  0.4777
   53MOL   H31417058  13.196  -0.412  -2.726  0.8707  0.3954 -0.2169
   53MOL   H31517059  13.154  -0.348  -2.872 -0.5407 -0.5185 -1.0056
   53MOL   H31617060  13.369  -0.592  -2.704 -0.4329 -0.2471  0.6941
   53MOL   H31717061  13.508  -0.761  -2.803  1.2343  1.1279 -0.8782
   53MOL   H31817062  13.493  -0.936  -3.071  0.3609 -0.3756 -4.0593
   53MOL   H31917063  13.528  -0.811  -3.186 -1.2435  0.1056 -0.1188
   53MOL   H32017064  13.341  -0.694  -3.187 -1.9363 -1.4579  0.5072
   53MOL   H32117065  13.190  -0.504  -3.083 -1.6198 -0.1902  2.1840
   53MOL   H32217066  13.627  -0.830  -3.040 -0.3344  1.2704  2.2578
   54MOL     C117067   2.945   3.796   6.249  0.2155 -0.0404 -0.1651
   54MOL     C217068   2.794   3.813   6.275 -0.0536  0.1648  0.3033
   54MOL     C317069   2.752   3.902   6.375  0.1113 -0.0068  0.4508
   54MOL     C417070   2.618   3.924   6.392  0.5321  0.0943 -0.1792
   54MOL     C517071   2.521   3.860   6.312  0.1906  0.3310 -0.3997
   54MOL     C617072   2.369   3.879   6.337  0.8637 -0.1107  0.0915
   54MOL     C717073   2.558   3.772   6.204 -0.1234  0.3361 -0.3353
   54MOL     C817074   2.698   3.746   6.192  1.0189 -0.3727  0.4415
   54MOL     H917075   3.003   3.821   6.338 -0.5931 -1.3293  0.7339
   54MOL    H1017076   2.973   3.696   6.216 -0.3796 -0.8000  1.6061
   54MOL    H1117077   2.821   3.946   6.445  0.3682 -0.2632  0.3613
   54MOL    H1217078   2.583   3.989   6.471 -1.8674 -0.9927 -0.2988
   54MOL    H1317079   2.308   3.809   6.279 -1.4570  1.3197  0.7299
   54MOL    H1417080   2.343   3.856   6.440 -1.1313 -1.2612 -0.6285
   54MOL    H1517081   2.483   3.722   6.146 -0.9704  1.2162 -0.0169
   54MOL    H1617082   2.724   3.677   6.114  0.9478 -0.9942  0.9592
   54MOL    H1717083   2.970   3.867   6.169 -1.0483  0.3443 -0.2406
   54MOL    C1817084   2.314   4.024   6.327  0.3020  0.6019 -0.0051
   54MOL    C1917085   2.169   4.047   6.364  0.7786 -0.6309 -0.1299
   54MOL    C2017086   2.082   3.938   6.398  0.2469 -0.0901  0.0132
   54MOL    C2117087   1.953   3.972   6.447  0.1939  0.2723  0.2340
   54MOL    C2217088   1.912   4.103   6.471 -0.2555 -0.6681 -0.3364
   54MOL    C2317089   1.785   4.132   6.543 -0.1030  1.1510 -0.0413
   54MOL    C2417090   2.002   4.207   6.447 -0.2059 -0.6976  0.2269
   54MOL    C2517091   2.124   4.185   6.382 -0.8394 -0.1641  0.1119
   54MOL    H2617092   2.374   4.100   6.377 -1.2043  0.9990  1.2085
   54MOL    H2717093   2.318   4.058   6.223  3.5082 -0.2206 -0.2027
   54MOL    H2817094   2.107   3.834   6.385 -0.3237 -0.1074 -1.0496
   54MOL    H2917095   1.885   3.891   6.469 -0.1598  0.9481  1.6648
   54MOL    H3017096   1.797   4.229   6.593 -1.0545 -0.0892  2.7002
   54MOL    H3117097   1.763   4.061   6.622  1.0433  1.2316  0.3616
   54MOL    H3217098   1.972   4.304   6.483 -1.6725 -0.6284 -1.1092
   54MOL    H3317099   2.189   4.269   6.364  1.3018 -2.1465 -1.8253
   54MOL    C3417100   1.664   4.152   6.452 -0.2658  0.5887  0.0212
   54MOL    C3517101   1.537   4.203   6.518  0.2733  1.0775  1.1207
   54MOL    C3617102   1.532   4.338   6.555  1.1947  0.0668  0.3734
   54MOL    C3717103   1.415   4.384   6.617  0.1953 -1.1186  0.1898
   54MOL    C3817104   1.310   4.301   6.641 -0.2087  0.9919 -0.0454
   54MOL    C3917105   1.185   4.354   6.718 -0.3210  0.5835  0.1695
   54MOL    C4017106   1.320   4.164   6.609  0.0510  0.3563  0.4509
   54MOL    C4117107   1.433   4.115   6.540 -0.1238  0.4571  0.5142
   54MOL    H4217108   1.649   4.058   6.399 -2.4441  0.7896  0.2165
   54MOL    H4317109   1.691   4.226   6.377  0.2085 -1.1689 -1.5634
   54MOL    H4417110   1.611   4.407   6.530  0.3049  0.5970 -1.0532
   54MOL    H4517111   1.412   4.486   6.650  0.1362 -0.2540 -2.3329
   54MOL    H4617112   1.151   4.297   6.805 -1.9143  0.4036 -0.5717
   54MOL    H4717113   1.237   4.438   6.764  2.3445 -0.9148  0.0444
   54MOL    H4817114   1.239   4.097   6.634  1.2313 -1.2815 -0.0136
   54MOL    H4917115   1.435   4.011   6.512  1.6774  0.5981  0.0448
   54MOL    C5017116   1.070   4.388   6.624 -0.0143  0.5581  0.1693
   54MOL    C5117117   0.939   4.414   6.698  0.1701  0.3555 -0.0931
   54MOL    C5217118   0.833   4.329   6.676  0.0429 -0.1221 -0.2621
   54MOL    C5317119   0.710   4.347   6.742  0.0197 -0.7422 -0.4954
   54MOL    C5417120   0.696   4.453   6.831  0.5264 -0.3624 -0.6145
   54MOL    C5517121   0.562   4.476   6.888 -0.6658  0.0900  0.1602
   54MOL    C5617122   0.805   4.535   6.865  0.3350 -0.6339 -0.7435
   54MOL    C5717123   0.925   4.518   6.796 -0.5823 -0.1673  0.4569
   54MOL    H5817124   1.047   4.302   6.560  0.7363 -0.7912  1.6854
   54MOL    H5917125   1.094   4.469   6.556  0.7552  2.3294  2.5119
   54MOL    H6017126   0.830   4.258   6.595 -4.1460 -0.9477  0.5124
   54MOL    H6117127   0.627   4.282   6.722 -0.6769 -1.0835  3.1160
   54MOL    H6217128   0.506   4.386   6.916  0.2582 -1.1501 -1.8939
   54MOL    H6317129   0.578   4.534   6.979  1.0835 -0.7872  0.4316
   54MOL    H6417130   0.794   4.612   6.940 -0.8349 -0.2154 -1.3247
   54MOL    H6517131   0.999   4.594   6.819  0.2055 -0.4480 -1.0948
   54MOL    C6617132   0.478   4.544   6.786  0.1815 -1.0433  0.5842
   54MOL    C6717133   0.344   4.563   6.846 -0.4552  0.0139 -0.0497
   54MOL    C6817134   0.230   4.479   6.812 -0.6986  0.4636 -0.7190
   54MOL    C6917135   0.104   4.508   6.869  0.1266  0.3739 -0.5776
   54MOL    C7017136   0.091   4.611   6.961  0.1964  0.3935  0.1283
   54MOL    C7117137  -0.048   4.645   7.018  0.1499 -0.2790  0.1582
   54MOL    C7217138   0.199   4.686   6.998  0.2722  0.1113  0.1453
   54MOL    C7317139   0.323   4.663   6.940 -0.0268  0.5019  0.1850
   54MOL    H7417140   0.489   4.483   6.697 -0.0767  1.2271 -1.0459
   54MOL    H7517141   0.522   4.640   6.760  2.2503 -1.8014  1.1335
   54MOL    H7617142   0.240   4.399   6.740  0.8246  1.1207 -1.2531
   54MOL    H7717143   0.020   4.444   6.845  0.0908 -0.2500  1.1319
   54MOL    H7817144  -0.043   4.720   7.097  0.5053  1.0319 -1.0941
   54MOL    H7917145  -0.102   4.558   7.055 -2.6649  0.7654 -1.3890
   54MOL    H8017146   0.190   4.766   7.069 -3.2652 -1.8720  2.0745
   54MOL    H8117147   0.408   4.717   6.981 -0.0245 -1.5125  2.9750
   54MOL    C8217148  -0.133   4.691   6.907  1.1014 -0.4821  0.7708
   54MOL    C8317149  -0.280   4.728   6.948 -0.7523 -0.3756  0.5595
   54MOL    C8417150  -0.398   4.661   6.915 -0.1441 -0.3094  0.1263
   54MOL    C8517151  -0.529   4.693   6.963  0.0192  0.5234 -0.1208
   54MOL    C8617152  -0.537   4.793   7.058  0.0429  0.0485  0.1655
   54MOL    C8717153  -0.678   4.825   7.116  0.3377  0.3472  0.7999
   54MOL    C8817154  -0.421   4.874   7.086 -0.4167 -0.2289 -0.0534
   54MOL    C8917155  -0.297   4.837   7.031 -0.5157  0.2571 -0.1209
   54MOL    H9017156  -0.129   4.620   6.824  0.4221 -0.0799  0.3903
   54MOL    H9117157  -0.102   4.786   6.864  0.8154 -1.5538 -1.9433
   54MOL    H9217158  -0.382   4.568   6.862  0.4160 -0.3978  0.4465
   54MOL    H9317159  -0.613   4.632   6.932  0.0311  0.6591 -0.4263
   54MOL    H9417160  -0.658   4.865   7.215 -0.9401  2.1053  0.3862
   54MOL    H9517161  -0.734   4.731   7.122  0.8944 -0.1288 -1.1343
   54MOL    H9617162  -0.426   4.963   7.148 -0.6133  0.3219 -0.8545
   54MOL    H9717163  -0.211   4.900   7.046 -0.8135  1.2840 -2.6400
   54MOL    C9817164  -0.745   4.935   7.031 -0.0628  0.1314 -0.3233
   54MOL    C9917165  -0.891   4.956   7.076 -0.5204 -0.2005 -0.1960
   54MOL   C10017166  -0.985   4.856   7.060  0.2631 -0.1529 -0.1389
   54MOL   C10117167  -1.106   4.859   7.128 -0.5874  0.3603 -0.1059
   54MOL   C10217168  -1.136   4.971   7.209  0.5544 -0.0496  0.0411
   54MOL   C10317169  -1.270   4.967   7.284  0.4453  0.0303  0.1393
   54MOL   C10417170  -1.043   5.078   7.220  0.2995  0.2457 -0.0170
   54MOL   C10517171  -0.926   5.073   7.153  0.1566  0.0713 -0.7622
   54MOL   H10617172  -0.736   4.911   6.925 -3.5165 -2.2371 -0.1665
   54MOL   H10717173  -0.691   5.028   7.047  1.5584 -1.0602  1.3806
   54MOL   H10817174  -0.950   4.775   6.996  0.9176  2.3147 -3.0374
   54MOL   H10917175  -1.179   4.780   7.123  1.1081 -1.4895  3.0826
   54MOL   H11017176  -1.289   4.870   7.329 -2.5585  0.5629  0.1190
   54MOL   H11117177  -1.254   5.041   7.363  1.2080 -0.0190  0.0378
   54MOL   H11217178  -1.056   5.164   7.283 -0.7449 -1.5831  2.3316
   54MOL   H11317179  -0.853   5.152   7.157  0.3008 -0.0936 -0.1340
   54MOL   C11417180  -1.386   5.006   7.193 -0.1866 -0.5464 -0.2286
   54MOL   C11517181  -1.516   5.020   7.264  0.6204 -0.3627  0.3675
   54MOL   C11617182  -1.625   4.930   7.260 -0.6585 -0.0510  0.0410
   54MOL   C11717183  -1.736   4.950   7.331  0.0490  1.1571 -0.1682
   54MOL   C11817184  -1.755   5.068   7.409  0.7140  0.2542  0.1374
   54MOL   C11917185  -1.879   5.078   7.503 -0.2505 -0.3134 -0.3549
   54MOL   C12017186  -1.656   5.161   7.412  0.1612  0.5213  0.3012
   54MOL   C12117187  -1.535   5.141   7.343 -0.0930  0.7935  0.1334
   54MOL   H12217188  -1.385   4.928   7.117 -2.0448 -1.3326  0.5308
   54MOL   H12317189  -1.361   5.095   7.135  1.1105 -0.7301  0.0369
   54MOL   H12417190  -1.617   4.847   7.192 -1.8085 -0.3678  0.2764
   54MOL   H12517191  -1.813   4.875   7.337  2.4399 -1.2970  0.8699
   54MOL   H12617192  -1.914   4.976   7.515  1.6993 -0.9011  0.5051
   54MOL   H12717193  -1.844   5.112   7.601  4.0051 -2.2618 -1.1056
   54MOL   H12817194  -1.673   5.250   7.471 -1.0919 -0.2664  1.1591
   54MOL   H12917195  -1.461   5.217   7.360  0.1161  0.7510 -0.5899
   54MOL   C13017196  -1.985   5.179   7.448  0.2718 -0.1954  0.0830
   54MOL   C13117197  -2.098   5.204   7.546  0.5962  0.5187 -0.1706
   54MOL   C13217198  -2.181   5.090   7.581  0.3089  0.0792 -0.2092
   54MOL   C13317199  -2.283   5.105   7.680  0.6295  0.0784 -0.5586
   54MOL   C13417200  -2.308   5.233   7.739 -0.2359  0.4995  0.5854
   54MOL   C13517201  -2.398   5.240   7.855 -1.0288  0.0715 -0.1535
   54MOL   C13617202  -2.226   5.340   7.703 -0.0742  0.5241 -0.5855
   54MOL   C13717203  -2.124   5.325   7.611 -0.4256  0.1547  0.9729
   54MOL   H13817204  -2.032   5.148   7.355  0.3608  1.1260 -0.4183
   54MOL   H13917205  -1.944   5.279   7.437 -1.7493  0.4437 -1.9396
   54MOL   H14017206  -2.159   4.995   7.534 -1.0987  0.6830 -2.1275
   54MOL   H14117207  -2.354   5.026   7.701 -0.4506  1.7018  2.3128
   54MOL   H14217208  -2.369   5.147   7.905 -2.7597 -0.6031 -0.3919
   54MOL   H14317209  -2.376   5.326   7.919 -1.6888 -0.5848  0.9778
   54MOL   H14417210  -2.235   5.431   7.761 -0.3599 -0.0070  0.2040
   54MOL   H14517211  -2.064   5.415   7.601 -2.9992  1.7053 -1.1638
   54MOL   C14617212  -2.546   5.248   7.821  0.4361 -0.1842 -0.3963
   54MOL   C14717213  -2.632   5.187   7.928 -0.1244  0.2388  0.1515
   54MOL   C14817214  -2.659   5.050   7.920  0.3027  0.4862 -0.3045
   54MOL   C14917215  -2.737   4.987   8.022  0.0728 -0.6145 -0.0305
   54MOL   C15017216  -2.767   5.058   8.135  0.2806 -0.1575 -0.2664
   54MOL   C15117217  -2.825   4.977   8.246 -0.4506 -0.2411 -0.5799
   54MOL   C15217218  -2.731   5.191   8.145 -0.3043 -0.1581  0.4656
   54MOL   C15317219  -2.667   5.263   8.043 -0.4313  0.1184  0.5274
   54MOL   H15417220  -2.557   5.195   7.727 -2.3632  0.6964 -0.6262
   54MOL   H15517221  -2.585   5.349   7.805  0.7704  0.1621  0.8869
   54MOL   H15617222  -2.627   4.985   7.840 -1.8467  0.3514 -1.0843
   54MOL   H15717223  -2.752   4.880   8.023 -0.1974 -0.5789  2.2495
   54MOL   H15817224  -2.906   5.035   8.291  1.2056  1.4527  0.3207
   54MOL   H15917225  -2.888   4.900   8.202  2.1045 -0.2673 -4.3919
   54MOL   H16017226  -2.755   5.253   8.230 -1.8795 -2.2952  1.6360
   54MOL   H16117227  -2.631   5.364   8.051 -0.0646 -0.0760  1.4624
   54MOL   C16217228  -2.724   4.925   8.357 -0.8104 -0.2189  0.0289
   54MOL   C16317229  -2.789   4.834   8.459 -0.4575  0.2032  0.4991
   54MOL   C16417230  -2.882   4.879   8.557  0.4743 -0.3121  0.1969
   54MOL   C16517231  -2.949   4.777   8.635  0.4416  0.1877 -0.1686
   54MOL   C16617232  -2.925   4.643   8.616 -0.5480 -0.4501 -0.7578
   54MOL   C16717233  -3.000   4.547   8.711 -0.4370  0.1942 -0.0001
   54MOL   C16817234  -2.834   4.600   8.523 -0.3078 -0.5305  0.2047
   54MOL   C16917235  -2.777   4.697   8.443  0.4455  0.8242 -0.1464
   54MOL   H17017236  -2.669   5.010   8.398  1.6510 -1.5743 -0.3568
   54MOL   H17117237  -2.638   4.874   8.312 -1.6479 -0.3858 -1.4115
   54MOL   H17217238  -2.906   4.982   8.578  1.5036  0.2464 -1.3625
   54MOL   H17317239  -3.020   4.809   8.710 -0.6464  0.1133 -1.1414
   54MOL   H17417240  -3.105   4.576   8.701  0.0957  1.4196 -2.3763
   54MOL   H17517241  -2.989   4.448   8.667  0.9647  1.0304 -1.5747
   54MOL   H17617242  -2.814   4.494   8.514 -1.9227 -0.6626 -2.8350
   54MOL   H17717243  -2.720   4.661   8.359 -0.2812 -0.8177  0.0512
   54MOL   C17817244  -2.954   4.555   8.857 -0.1352  0.0685  0.0975
   54MOL   C17917245  -2.818   4.501   8.883 -0.4925 -0.2095  0.4467
   54MOL   C18017246  -2.805   4.377   8.947  0.0380  0.4634  0.3759
   54MOL   C18117247  -2.673   4.312   8.958  1.1622 -0.3881  0.2309
   54MOL   C18217248  -2.566   4.383   8.913  0.4483 -0.0771 -0.3364
   54MOL   C18317249  -2.428   4.316   8.932  0.3085 -0.2790  1.1681
   54MOL   C18417250  -2.574   4.503   8.844  0.0508  0.1636 -0.7396
   54MOL   C18517251  -2.701   4.560   8.834  0.2005 -0.3490  0.8829
   54MOL   H18617252  -3.027   4.501   8.917  0.3602 -0.3717  0.3026
   54MOL   H18717253  -2.949   4.655   8.899  0.8195 -0.5190  1.3959
   54MOL   H18817254  -2.886   4.325   8.996 -0.0113  0.8459  0.6994
   54MOL   H18917255  -2.676   4.222   9.018  2.0439  0.9660  2.3643
   54MOL   H19017256  -2.356   4.389   8.970 -1.2573  1.9701  0.0005
   54MOL   H19117257  -2.422   4.234   9.003 -3.7890 -0.9516  0.8688
   54MOL   H19217258  -2.489   4.553   8.800  0.2999 -0.3294 -0.8166
   54MOL   H19317259  -2.722   4.650   8.779  1.4265 -0.3734  0.3644
   54MOL   C19417260  -2.375   4.272   8.794  0.2741 -0.4945  0.1382
   54MOL   C19517261  -2.237   4.215   8.815 -0.4731  0.3607  0.0269
   54MOL   C19617262  -2.203   4.082   8.784 -0.0646 -0.0529 -0.4296
   54MOL   C19717263  -2.073   4.042   8.804  0.0175  0.6859  0.3299
   54MOL   C19817264  -1.975   4.135   8.845  0.0574 -0.1110 -0.3155
   54MOL   C19917265  -1.826   4.091   8.854  0.1130 -0.2945 -0.0552
   54MOL   C20017266  -2.003   4.266   8.879  0.3086  0.6857  0.5053
   54MOL   C20117267  -2.136   4.304   8.861 -0.9868  0.2275 -0.4326
   54MOL   H20217268  -2.374   4.360   8.730 -0.1650  0.9475  2.0680
   54MOL   H20317269  -2.433   4.194   8.745  2.1409 -2.3700  0.8706
   54MOL   H20417270  -2.280   4.017   8.747 -2.0432  1.4007  0.9995
   54MOL   H20517271  -2.054   3.938   8.780 -0.5489  0.3792  1.2334
   54MOL   H20617272  -1.775   4.143   8.934  0.0636  0.3120 -0.4120
   54MOL   H20717273  -1.815   3.982   8.858  0.7480 -0.2054  0.5447
   54MOL   H20817274  -1.928   4.336   8.911  1.0852  1.9337 -3.6466
   54MOL   H20917275  -2.146   4.411   8.869  0.4992  0.4276 -1.1732
   54MOL   C21017276  -1.737   4.141   8.737 -0.2133 -0.1535 -0.4288
   54MOL   C21117277  -1.609   4.074   8.714 -0.3348 -0.0671  0.4614
   54MOL   C21217278  -1.501   4.117   8.788 -0.1559  0.1333 -0.4690
   54MOL   C21317279  -1.377   4.051   8.783  0.6515  0.3843  0.5801
   54MOL   C21417280  -1.356   3.944   8.699  0.3593 -0.4050  0.2221
   54MOL   C21517281  -1.218   3.878   8.691  0.9591  0.0799 -0.2454
   54MOL   C21617282  -1.461   3.895   8.621 -0.1521  0.3599  0.0337
   54MOL   C21717283  -1.592   3.951   8.636  0.6481 -0.4890 -0.2898
   54MOL   H21817284  -1.716   4.247   8.745  1.4199 -0.6008  1.5982
   54MOL   H21917285  -1.789   4.124   8.642 -0.7354 -2.0633  0.1791
   54MOL   H22017286  -1.504   4.200   8.857 -1.7735 -0.1617 -0.1696
   54MOL   H22117287  -1.299   4.082   8.851  0.5327 -0.4785  1.1102
   54MOL   H22217288  -1.156   3.921   8.770 -0.4757  1.5044  0.1580
   54MOL   H22317289  -1.224   3.771   8.706 -0.3880 -0.1510 -2.2103
   54MOL   H22417290  -1.437   3.807   8.563  0.7840  0.2012  0.6538
   54MOL   H22517291  -1.678   3.901   8.593 -1.0898 -0.0207  2.5177
   54MOL   C22617292  -1.148   3.919   8.558 -0.2159 -0.7163 -0.4536
   54MOL   C22717293  -1.009   3.860   8.546 -0.0761  0.0073 -0.1604
   54MOL   C22817294  -0.900   3.932   8.602 -1.2047 -0.4349  0.1821
   54MOL   C22917295  -0.761   3.898   8.583 -0.7047 -0.9451  0.5578
   54MOL   C23017296  -0.733   3.781   8.511  0.2180  0.7380  0.0959
   54MOL   C23117297  -0.591   3.740   8.486 -0.2853  0.8176 -0.7628
   54MOL   C23217298  -0.841   3.707   8.456 -0.7571 -0.0142 -0.9536
   54MOL   C23317299  -0.975   3.749   8.469 -0.2705  0.5266 -0.0041
   54MOL   H23417300  -1.136   4.028   8.555  3.0678 -1.0618 -2.8453
   54MOL   H23517301  -1.213   3.886   8.477  0.1790 -0.0872 -1.0351
   54MOL   H23617302  -0.920   4.021   8.660  0.4292 -1.3221  2.1600
   54MOL   H23717303  -0.689   3.970   8.616 -0.1045 -0.6161 -1.3833
   54MOL   H23817304  -0.523   3.819   8.517  1.7280 -1.2329  0.2336
   54MOL   H23917305  -0.566   3.658   8.553 -1.2100  0.8485 -0.3728
   54MOL   H24017306  -0.825   3.613   8.405 -1.6558 -0.1286 -1.0222
   54MOL   H24117307  -1.058   3.699   8.421 -0.5081  1.0013 -0.0914
   54MOL   C24217308  -0.560   3.724   8.337 -0.0226  0.2642  0.5880
   54MOL   C24317309  -0.418   3.677   8.315  0.9922 -0.2421  0.4504
   54MOL   C24417310  -0.401   3.550   8.264 -0.1004 -0.1426  0.1311
   54MOL   C24517311  -0.271   3.506   8.230 -0.4008  1.0595 -0.7210
   54MOL   C24617312  -0.157   3.592   8.246  0.0712 -0.7376 -0.5999
   54MOL   C24717313  -0.019   3.552   8.187 -0.1711  0.0198  0.4038
   54MOL   C24817314  -0.178   3.716   8.302 -0.5184 -0.2079  0.0425
   54MOL   C24917315  -0.303   3.757   8.343  0.3911 -0.0707  0.3155
   54MOL   H25017316  -0.627   3.651   8.291 -0.2941  0.4061  0.7553
   54MOL   H25117317  -0.582   3.820   8.289 -2.0390 -0.9800 -1.0664
   54MOL   H25217318  -0.488   3.492   8.240 -0.8383  1.5427 -1.4258
   54MOL   H25317319  -0.257   3.416   8.172 -0.4326  0.3839  0.3081
   54MOL   H25417320  -0.037   3.453   8.144  2.7386 -0.4757  0.2607
   54MOL   H25517321   0.003   3.619   8.104 -3.3976 -0.5863 -1.0284
   54MOL   H25617322  -0.101   3.788   8.327  0.0111 -0.7540  0.0019
   54MOL   H25717323  -0.320   3.854   8.386  1.6530 -1.6305  4.6098
   54MOL   C25817324   0.096   3.537   8.288  0.0283 -0.8001  0.9164
   54MOL   C25917325   0.217   3.489   8.220  0.3966  0.2792  0.9203
   54MOL   C26017326   0.217   3.371   8.145  0.6215  0.3112 -0.4010
   54MOL   C26117327   0.332   3.324   8.076 -1.1493  0.1377  0.1617
   54MOL   C26217328   0.455   3.401   8.087  0.6762  0.3290 -0.1500
   54MOL   C26317329   0.576   3.367   8.011 -0.2800  0.2735  0.2397
   54MOL   C26417330   0.453   3.516   8.167 -0.1014 -0.0983  0.1851
   54MOL   C26517331   0.340   3.556   8.235 -1.0212  0.8714  0.3943
   54MOL   H26617332   0.070   3.468   8.368 -2.2810 -0.9063  0.1332
   54MOL   H26717333   0.121   3.635   8.330 -1.0472  0.6789 -1.7647
   54MOL   H26817334   0.128   3.310   8.134 -0.4719  1.5449  1.2156
   54MOL   H26917335   0.322   3.234   8.018 -0.3984  1.9772 -2.9354
   54MOL   H27017336   0.550   3.308   7.923 -0.3947 -0.6906  0.9106
   54MOL   H27117337   0.618   3.459   7.970 -1.8960 -0.9087 -4.4163
   54MOL   H27217338   0.540   3.576   8.186 -0.8436  0.9986  0.1391
   54MOL   H27317339   0.356   3.645   8.294 -0.4895 -0.3130  2.0824
   54MOL   C27417340   0.671   3.304   8.109 -0.1384  0.4584  0.1603
   54MOL   C27517341   0.806   3.272   8.046 -0.3038  0.0936  0.4538
   54MOL   C27617342   0.822   3.170   7.957 -0.3284  0.0035 -0.0611
   54MOL   C27717343   0.950   3.148   7.899 -0.1141  0.8304  0.3014
   54MOL   C27817344   1.059   3.226   7.934  0.4055  0.4955  0.2665
   54MOL   C27917345   1.194   3.214   7.871  0.3086  0.0961  0.1461
   54MOL   C28017346   1.042   3.332   8.026 -0.1057 -0.5897 -0.3927
   54MOL   C28117347   0.915   3.353   8.075  0.2422  0.2106 -0.2464
   54MOL   H28217348   0.683   3.378   8.188  0.1584  0.9541 -0.3437
   54MOL   H28317349   0.627   3.214   8.151 -3.3813  2.9044  2.2057
   54MOL   H28417350   0.737   3.107   7.934 -1.8054  2.0172 -0.2581
   54MOL   H28517351   0.961   3.078   7.818 -2.7987  2.4552 -1.5459
   54MOL   H28617352   1.187   3.155   7.779  0.6151  1.3254 -0.6733
   54MOL   H28717353   1.222   3.315   7.841 -1.3607  0.6117  0.2659
   54MOL   H28817354   1.122   3.397   8.057  1.8952 -2.6452 -1.1013
   54MOL   H28917355   0.895   3.441   8.135  0.1932 -0.6359  1.0017
   54MOL   C29017356   1.301   3.154   7.969 -0.5368  0.6668  0.3878
   54MOL   C29117357   1.439   3.130   7.909 -0.7591 -0.0570 -0.6477
   54MOL   C29217358   1.548   3.219   7.917  0.2572 -0.3831  0.0853
   54MOL   C29317359   1.676   3.185   7.862 -0.4783  0.3150 -0.0992
   54MOL   C29417360   1.695   3.068   7.792  0.4529 -1.4818 -0.1168
   54MOL   C29517361   1.829   3.040   7.722  0.3362 -0.6416  0.0964
   54MOL   C29617362   1.586   2.981   7.769  0.0939 -0.5910  0.2312
   54MOL   C29717363   1.461   3.011   7.836 -0.7793 -0.2385  0.7252
   54MOL   H29817364   1.258   3.064   8.012 -0.8218  1.0835  0.9839
   54MOL   H29917365   1.303   3.219   8.057 -2.4923  2.7512 -1.0543
   54MOL   H30017366   1.540   3.318   7.959  1.2857 -0.2010 -0.1361
   54MOL   H30117367   1.750   3.263   7.865 -1.3290  1.1981 -1.4084
   54MOL   H30217368   1.810   2.981   7.633  0.2712  0.7414 -0.8386
   54MOL   H30317369   1.877   3.130   7.682  0.3226 -0.8917 -0.4827
   54MOL   H30417370   1.588   2.893   7.707  0.6199  0.5367 -1.3980
   54MOL   H30517371   1.377   2.949   7.809 -1.6546  1.2971 -0.0908
   54MOL   C30617372   1.927   2.970   7.816 -0.5664  0.5095 -0.0484
   54MOL   C30717373   2.062   2.922   7.755 -0.2171  0.0919 -0.2290
   54MOL   C30817374   2.174   3.006   7.763  1.0098 -0.1682  0.0795
   54MOL   C30917375   2.296   2.960   7.716 -0.0095  0.4717  0.3093
   54MOL   C31017376   2.309   2.836   7.651 -0.4411 -0.1764  0.1118
   54MOL   C31117377   2.452   2.782   7.625 -0.0447 -0.0031  0.2053
   54MOL   C31217378   2.195   2.754   7.638  0.7055  0.0057  0.4454
   54MOL   C31317379   2.072   2.798   7.694  0.6313  0.2231 -0.2567
   54MOL   H31417380   1.875   2.884   7.857 -0.0683  0.5164  0.5977
   54MOL   H31517381   1.954   3.038   7.896  0.8391  0.2816 -0.3063
   54MOL   H31617382   2.170   3.097   7.821  2.8755  0.6051 -0.9677
   54MOL   H31717383   2.387   3.017   7.723 -1.0482  2.0260  1.7879
   54MOL   H31817384   2.450   2.719   7.536  0.3717  0.6743 -0.2893
   54MOL   H31917385   2.523   2.861   7.598  0.9247 -0.7853  0.4513
   54MOL   H32017386   2.212   2.658   7.591  2.1862 -0.2988  1.5790
   54MOL   H32117387   1.985   2.734   7.684  0.2491  0.7764 -0.4529
   54MOL   H32217388   2.486   2.717   7.705 -1.4121 -0.8440  0.1152
   55MOL     C117389   2.441   6.584   6.021 -0.0460 -0.4431 -0.3621
   55MOL     C217390   2.296   6.615   6.005  0.8154 -0.5883  0.4510
   55MOL     C317391   2.229   6.679   6.102  0.4782 -0.0854 -0.1283
   55MOL     C417392   2.100   6.725   6.069 -0.1114  0.2367 -0.1783
   55MOL     C517393   2.041   6.697   5.946  0.3091 -0.7355  1.0096
   55MOL     C617394   1.913   6.766   5.920 -0.2750  0.0428  0.0375
   55MOL     C717395   2.109   6.623   5.851 -0.4529  0.3738 -0.3012
   55MOL     C817396   2.237   6.577   5.881 -0.5233 -0.1542  0.5609
   55MOL     H917397   2.508   6.664   6.051  1.1212 -1.2275 -0.8221
   55MOL    H1017398   2.447   6.502   6.092 -1.7806 -1.4524 -1.3521
   55MOL    H1117399   2.266   6.686   6.203 -0.2867  1.4313  0.0625
   55MOL    H1217400   2.059   6.779   6.153  2.1806  1.6042  0.1320
   55MOL    H1317401   1.924   6.874   5.932 -2.3561  0.6740 -3.3383
   55MOL    H1417402   1.889   6.749   5.815 -0.1862  3.1939 -0.5532
   55MOL    H1517403   2.064   6.601   5.755  0.8169  0.7018 -0.9915
   55MOL    H1617404   2.291   6.524   5.804 -0.4557  2.1153 -1.0151
   55MOL    H1717405   2.491   6.559   5.927 -0.9797 -1.6015 -0.5595
   55MOL    C1817406   1.793   6.720   6.002  0.7451 -0.0322  0.4380
   55MOL    C1917407   1.662   6.758   5.928 -0.8244  0.4273  0.2970
   55MOL    C2017408   1.592   6.670   5.840 -0.8025 -0.4105 -0.5176
   55MOL    C2117409   1.476   6.720   5.785  0.6439  0.9219  0.0967
   55MOL    C2217410   1.416   6.842   5.825 -0.3633  0.7462  0.1637
   55MOL    C2317411   1.282   6.883   5.767  0.3967  0.1946 -0.0766
   55MOL    C2417412   1.480   6.924   5.919 -0.0804 -0.0591  0.2710
   55MOL    C2517413   1.612   6.887   5.959 -0.0784  0.2307  0.1059
   55MOL    H2617414   1.792   6.611   5.999 -1.3762 -0.0711  1.7527
   55MOL    H2717415   1.801   6.759   6.104  2.0256 -0.5806  0.5633
   55MOL    H2817416   1.637   6.576   5.810  0.2277  0.6706 -2.5326
   55MOL    H2917417   1.431   6.653   5.712 -1.4492  0.2748  1.9327
   55MOL    H3017418   1.248   6.815   5.689 -0.8844  0.0255  0.6095
   55MOL    H3117419   1.293   6.980   5.718 -2.1749  0.4487 -0.2437
   55MOL    H3217420   1.435   7.018   5.947  3.1101  1.8315 -0.6720
   55MOL    H3317421   1.666   6.955   6.024  1.0347  0.6164 -1.2062
   55MOL    C3417422   1.172   6.879   5.873  0.4221  0.6333 -0.0287
   55MOL    C3517423   1.029   6.940   5.832 -0.7646 -0.2480 -0.3515
   55MOL    C3617424   1.003   7.081   5.833 -0.0928  0.6109 -0.0975
   55MOL    C3717425   0.876   7.131   5.799  0.0653 -0.1009  0.5480
   55MOL    C3817426   0.769   7.046   5.765 -0.1167  0.0752  0.3981
   55MOL    C3917427   0.634   7.101   5.716 -0.2488 -0.5673  0.0365
   55MOL    C4017428   0.801   6.910   5.753 -0.4414 -0.6526  0.1558
   55MOL    C4117429   0.920   6.857   5.793  0.3868 -0.5884 -0.7028
   55MOL    H4217430   1.196   6.936   5.962  0.2060 -1.5942  1.4769
   55MOL    H4317431   1.154   6.774   5.896 -1.6012  1.0123  0.2251
   55MOL    H4417432   1.078   7.151   5.868 -2.3950  2.1523  1.9997
   55MOL    H4517433   0.864   7.237   5.785  0.5685 -0.2672 -1.2990
   55MOL    H4617434   0.661   7.185   5.652  1.5880 -0.4423  0.9486
   55MOL    H4717435   0.574   7.032   5.657 -0.1631 -1.5596  1.0895
   55MOL    H4817436   0.729   6.839   5.713  0.9982 -1.3374 -1.3122
   55MOL    H4917437   0.938   6.751   5.787 -1.4189 -0.9283 -0.1882
   55MOL    C5017438   0.551   7.155   5.835 -0.2219  0.4545 -0.2501
   55MOL    C5117439   0.423   7.218   5.786 -0.1395  0.5326 -0.0032
   55MOL    C5217440   0.306   7.173   5.839  0.2751 -0.3310 -0.1403
   55MOL    C5317441   0.186   7.245   5.811  0.1956 -0.0339  0.3955
   55MOL    C5417442   0.190   7.350   5.719  0.1239  0.5002  0.4712
   55MOL    C5517443   0.058   7.408   5.674  0.4419 -0.2093 -0.0573
   55MOL    C5617444   0.307   7.383   5.651  0.0459  0.2169 -0.8578
   55MOL    C5717445   0.424   7.322   5.693 -0.1091  0.2161 -0.4568
   55MOL    H5817446   0.615   7.225   5.889  2.1920 -1.2731 -0.7989
   55MOL    H5917447   0.530   7.071   5.901  3.0794 -0.3650 -0.1707
   55MOL    H6017448   0.324   7.091   5.907  3.1204  0.5394  0.2005
   55MOL    H6117449   0.094   7.213   5.859  0.9683  0.0846  1.9835
   55MOL    H6217450   0.069   7.488   5.600 -0.1834  0.0139  0.0831
   55MOL    H6317451   0.007   7.328   5.620  0.3330 -1.1009  1.3274
   55MOL    H6417452   0.324   7.450   5.568  1.4894  1.2573  0.2455
   55MOL    H6517453   0.512   7.353   5.638 -1.0682  0.2352 -2.0293
   55MOL    C6617454  -0.023   7.466   5.798  0.1173  0.0708 -0.7233
   55MOL    C6717455  -0.158   7.532   5.763 -0.4236 -0.0109 -0.1981
   55MOL    C6817456  -0.154   7.660   5.710 -0.6599 -0.1506  0.2785
   55MOL    C6917457  -0.273   7.735   5.691 -0.3364  0.4543  0.1817
   55MOL    C7017458  -0.396   7.682   5.735  0.3241 -0.5834 -0.5287
   55MOL    C7117459  -0.521   7.769   5.724  0.1959 -0.2551  0.3278
   55MOL    C7217460  -0.407   7.549   5.780 -0.4862  0.7139  0.6175
   55MOL    C7317461  -0.287   7.472   5.785 -0.5399  1.1213  0.4640
   55MOL    H7417462   0.033   7.526   5.869 -0.9866  1.2188 -0.8129
   55MOL    H7517463  -0.052   7.380   5.860  2.1287 -0.2796 -0.2322
   55MOL    H7617464  -0.062   7.707   5.680 -0.8518 -0.3372 -0.6257
   55MOL    H7717465  -0.270   7.836   5.652 -1.6304  0.6241  0.4762
   55MOL    H7817466  -0.611   7.707   5.727  0.4546 -0.7395 -1.3092
   55MOL    H7917467  -0.501   7.823   5.632 -0.2209  1.5955  1.3038
   55MOL    H8017468  -0.505   7.505   5.791  0.9727 -2.2316  2.4991
   55MOL    H8117469  -0.289   7.369   5.815  0.2022  1.4234  1.6094
   55MOL    C8217470  -0.537   7.864   5.837 -0.4362 -0.5633  0.1697
   55MOL    C8317471  -0.673   7.935   5.843 -1.0539 -0.2883 -0.7760
   55MOL    C8417472  -0.796   7.877   5.811 -0.0230  0.3426  0.0973
   55MOL    C8517473  -0.911   7.951   5.828 -0.0905 -0.0146 -0.9668
   55MOL    C8617474  -0.906   8.081   5.882 -0.2233 -0.3934 -0.1625
   55MOL    C8717475  -1.027   8.162   5.927 -1.0467  0.2788  1.1717
   55MOL    C8817476  -0.779   8.139   5.904 -0.3016 -0.1252 -0.1819
   55MOL    C8917477  -0.666   8.062   5.891  0.0973 -0.4731 -0.0194
   55MOL    H9017478  -0.452   7.931   5.853 -2.1457  1.9747 -1.0522
   55MOL    H9117479  -0.541   7.808   5.931 -2.8327 -0.2643  0.2737
   55MOL    H9217480  -0.800   7.775   5.777 -1.0017  0.7549 -1.0595
   55MOL    H9317481  -1.008   7.906   5.815  0.2803 -1.2788  0.4400
   55MOL    H9417482  -0.996   8.250   5.984  0.7404  0.3481  0.1490
   55MOL    H9517483  -1.079   8.094   5.994 -0.5868 -0.5218  0.7298
   55MOL    H9617484  -0.757   8.239   5.941  1.1166 -0.3771 -0.3578
   55MOL    H9717485  -0.573   8.113   5.912  0.3824 -1.0650  0.1544
   55MOL    C9817486  -1.106   8.216   5.812 -0.7527  0.0609 -0.4821
   55MOL    C9917487  -1.239   8.254   5.866  0.9326 -0.2676 -0.0788
   55MOL   C10017488  -1.274   8.387   5.906 -0.8306 -0.3849 -0.4693
   55MOL   C10117489  -1.402   8.424   5.949  0.6054 -0.0518 -0.2381
   55MOL   C10217490  -1.506   8.329   5.942 -0.3472 -0.5436  0.5903
   55MOL   C10317491  -1.646   8.361   5.973  0.1655 -0.5782  0.0391
   55MOL   C10417492  -1.470   8.198   5.895  0.5363  0.5478 -0.1800
   55MOL   C10517493  -1.343   8.163   5.849 -0.3065 -0.0215 -0.8192
   55MOL   H10617494  -1.104   8.145   5.729 -0.3682 -1.4105  0.7810
   55MOL   H10717495  -1.061   8.307   5.772  1.6194 -0.6180  0.5855
   55MOL   H10817496  -1.188   8.452   5.909 -1.8185  1.0463 -1.8631
   55MOL   H10917497  -1.420   8.526   5.977  0.2273 -0.7028  1.9637
   55MOL   H11017498  -1.648   8.432   6.056 -2.4734 -0.0098 -0.4680
   55MOL   H11117499  -1.681   8.406   5.880 -0.3376  0.0323  0.5223
   55MOL   H11217500  -1.535   8.112   5.897 -0.6990  1.3355 -3.1692
   55MOL   H11317501  -1.320   8.063   5.814  0.1720 -0.4669  0.7057
   55MOL   C11417502  -1.738   8.237   6.011 -0.0211 -1.2133  0.1912
   55MOL   C11517503  -1.873   8.274   6.061  0.1239 -0.2963 -0.1173
   55MOL   C11617504  -1.986   8.245   5.982  0.0308  0.4917 -0.4582
   55MOL   C11717505  -2.112   8.274   6.026 -0.0813  0.5324  0.1616
   55MOL   C11817506  -2.127   8.339   6.156 -0.5177 -0.1484 -0.0625
   55MOL   C11917507  -2.262   8.357   6.222  0.2037  0.9952 -0.8261
   55MOL   C12017508  -2.016   8.376   6.233  0.2402  0.3277  0.0359
   55MOL   C12117509  -1.889   8.342   6.181 -0.6452  0.1894 -0.0540
   55MOL   H12217510  -1.680   8.189   6.089 -0.1654 -2.6418 -0.5626
   55MOL   H12317511  -1.752   8.163   5.932  0.7106 -0.6153 -0.5004
   55MOL   H12417512  -1.972   8.202   5.884 -0.4518 -1.7200  0.3956
   55MOL   H12517513  -2.196   8.242   5.966 -0.4863 -1.2853  1.6407
   55MOL   H12617514  -2.329   8.289   6.168 -1.7488  1.8722  0.4525
   55MOL   H12717515  -2.251   8.316   6.322  0.7756 -3.5183 -2.6062
   55MOL   H12817516  -2.035   8.413   6.333 -1.6587  1.2605 -0.6325
   55MOL   H12917517  -1.796   8.364   6.232 -0.0825  2.0609 -1.8187
   55MOL   C13017518  -2.308   8.507   6.230 -0.0320 -0.6534 -0.1769
   55MOL   C13117519  -2.451   8.525   6.285 -0.8248 -0.6739 -0.4857
   55MOL   C13217520  -2.554   8.441   6.252  0.1784 -0.4522  0.8866
   55MOL   C13317521  -2.682   8.454   6.307 -0.1388 -0.1208 -0.1751
   55MOL   C13417522  -2.712   8.570   6.374 -0.3069  0.4178  0.2786
   55MOL   C13517523  -2.849   8.599   6.419  0.3692 -0.8032  0.2335
   55MOL   C13617524  -2.607   8.654   6.417  0.1638  0.2968 -0.4807
   55MOL   C13717525  -2.479   8.630   6.371 -0.2483 -0.3277 -0.7074
   55MOL   H13817526  -2.288   8.553   6.133 -0.3529  2.6812  1.2907
   55MOL   H13917527  -2.239   8.557   6.298 -0.6902 -0.4117  0.3206
   55MOL   H14017528  -2.537   8.356   6.188  1.5378  0.1147  0.4708
   55MOL   H14117529  -2.752   8.376   6.283 -2.3969  0.7705  3.1910
   55MOL   H14217530  -2.896   8.504   6.444  0.7577 -0.4874  2.2209
   55MOL   H14317531  -2.847   8.651   6.514 -1.2836  1.1283 -0.7525
   55MOL   H14417532  -2.615   8.739   6.483 -0.8696  1.7537 -2.4425
   55MOL   H14517533  -2.403   8.700   6.402 -1.7846  0.6157  1.0159
   55MOL   C14617534  -2.930   8.686   6.326  0.5709 -0.6301 -0.3653
   55MOL   C14717535  -3.056   8.725   6.402  0.0129 -0.8461 -0.4403
   55MOL   C14817536  -3.161   8.631   6.402 -0.5942  0.3620  0.1642
   55MOL   C14917537  -3.284   8.656   6.474 -0.6237 -0.1523 -0.1150
   55MOL   C15017538  -3.302   8.786   6.541 -1.5090 -0.6683  0.0524
   55MOL   C15117539  -3.434   8.822   6.615  0.3542  0.3052  0.4569
   55MOL   C15217540  -3.196   8.878   6.536  0.6223  0.4516  0.3291
   55MOL   C15317541  -3.071   8.843   6.483  0.0831 -0.6348  1.0395
   55MOL   H15417542  -2.949   8.645   6.226 -0.7606  0.8821 -0.7476
   55MOL   H15517543  -2.878   8.781   6.310 -0.7996  0.0999 -0.6260
   55MOL   H15617544  -3.142   8.538   6.351 -0.6978  0.5077 -0.1392
   55MOL   H15717545  -3.362   8.581   6.483 -1.9035  1.3660  1.8854
   55MOL   H15817546  -3.492   8.733   6.639  0.6598  0.2947  1.1462
   55MOL   H15917547  -3.411   8.873   6.709 -0.1289 -0.5050  1.0170
   55MOL   H16017548  -3.208   8.976   6.578 -0.2239  0.7988 -0.7141
   55MOL   H16117549  -2.993   8.918   6.481  3.3926 -3.9655  0.7402
   55MOL   C16217550  -3.514   8.913   6.531 -0.0540  0.8004  0.5789
   55MOL   C16317551  -3.635   8.973   6.593 -0.9263 -0.0285  0.1949
   55MOL   C16417552  -3.634   9.060   6.704 -1.0078 -0.1715  0.8228
   55MOL   C16517553  -3.750   9.119   6.748  0.2907  0.2476 -0.4741
   55MOL   C16617554  -3.878   9.089   6.690  0.6945  0.1599  0.2422
   55MOL   C16717555  -4.010   9.135   6.751  0.2133 -0.3985  0.2927
   55MOL   C16817556  -3.881   9.003   6.583  0.1247  0.7441 -0.5072
   55MOL   C16917557  -3.760   8.943   6.534 -0.0733 -0.2322 -0.3823
   55MOL   H17017558  -3.541   8.870   6.434 -0.6105  1.1661  0.5651
   55MOL   H17117559  -3.454   9.002   6.511  1.2596 -0.3208 -0.5755
   55MOL   H17217560  -3.540   9.081   6.753 -0.7782  0.1059  0.2670
   55MOL   H17317561  -3.743   9.180   6.837  0.5862  2.0252 -1.6811
   55MOL   H17417562  -4.093   9.071   6.717  0.9093 -0.3313 -1.6247
   55MOL   H17517563  -4.000   9.126   6.859  0.2841  0.7651  0.3873
   55MOL   H17617564  -3.976   8.965   6.548  0.9476 -0.1721 -1.8014
   55MOL   H17717565  -3.767   8.868   6.456 -0.4865  0.9459 -1.4997
   55MOL   C17817566  -4.050   9.280   6.727 -0.2450  0.3137 -1.2203
   55MOL   C17917567  -4.172   9.326   6.799  0.5041 -0.8620  0.5334
   55MOL   C18017568  -4.291   9.262   6.761 -0.0677 -1.2974 -0.1286
   55MOL   C18117569  -4.414   9.311   6.821  0.1551  0.7453 -0.2227
   55MOL   C18217570  -4.419   9.414   6.911 -0.4846 -0.1257  0.5380
   55MOL   C18317571  -4.556   9.459   6.960 -1.1722 -0.3147  0.1308
   55MOL   C18417572  -4.298   9.470   6.950 -0.3260 -0.4659  0.1744
   55MOL   C18517573  -4.176   9.430   6.896  0.6884 -0.0743  0.0516
   55MOL   H18617574  -4.056   9.289   6.619 -0.7497  1.1774 -1.1248
   55MOL   H18717575  -3.974   9.355   6.750 -0.0658  0.3944 -2.0645
   55MOL   H18817576  -4.301   9.181   6.690 -0.0642  0.2821 -1.9811
   55MOL   H18917577  -4.515   9.275   6.810  0.5512 -1.1433  1.8918
   55MOL   H19017578  -4.620   9.371   6.969  1.6414 -2.2634  1.9544
   55MOL   H19117579  -4.554   9.485   7.066  0.8055  0.4555 -0.0808
   55MOL   H19217580  -4.312   9.554   7.017 -1.0025  2.7349 -3.7324
   55MOL   H19317581  -4.088   9.473   6.941  1.1505 -0.9736  0.0133
   55MOL   C19417582  -4.618   9.573   6.869 -0.0204  0.0004 -0.2516
   55MOL   C19517583  -4.768   9.587   6.907 -0.2532  0.0647 -0.1137
   55MOL   C19617584  -4.866   9.514   6.839 -0.1178  0.3925  0.1946
   55MOL   C19717585  -5.006   9.536   6.865 -0.3555 -0.4024  0.1687
   55MOL   C19817586  -5.040   9.626   6.971 -0.0997  0.5060 -0.0921
   55MOL   C19917587  -5.187   9.652   7.003  0.0113  0.2021 -0.2460
   55MOL   C20017588  -4.936   9.695   7.039 -0.7387 -0.3540 -0.1760
   55MOL   C20117589  -4.803   9.676   7.003 -0.0388 -0.0419  0.1898
   55MOL   H20217590  -4.602   9.549   6.763 -2.5069 -0.3384 -0.5933
   55MOL   H20317591  -4.568   9.665   6.898 -0.6286  0.7488 -1.5208
   55MOL   H20417592  -4.842   9.444   6.761 -1.4221  1.7351 -1.4586
   55MOL   H20517593  -5.082   9.481   6.811 -2.2316  0.9761  1.3211
   55MOL   H20617594  -5.249   9.564   6.983 -0.0562 -0.1531  1.4126
   55MOL   H20717595  -5.194   9.661   7.111 -1.2082 -1.1519 -0.1870
   55MOL   H20817596  -4.946   9.764   7.121  2.3908  1.6695 -1.4172
   55MOL   H20917597  -4.729   9.717   7.070 -1.1486  0.9024  0.8471
   55MOL   C21017598  -5.247   9.783   6.942 -0.2235 -0.6043  0.3716
   55MOL   C21117599  -5.392   9.816   6.988 -1.1279 -0.0035 -0.3846
   55MOL   C21217600  -5.419   9.950   7.022  0.3171  0.2283  0.3349
   55MOL   C21317601  -5.542   9.989   7.067  0.4830  0.5094  0.2103
   55MOL   C21417602  -5.645   9.901   7.066  0.2141 -0.0197  0.2095
   55MOL   C21517603  -5.781   9.949   7.113  0.3342 -0.1055  0.0878
   55MOL   C21617604  -5.622   9.763   7.038 -0.0359 -0.4016  0.0427
   55MOL   C21717605  -5.494   9.723   6.995  0.1625 -0.0356  0.9302
   55MOL   H21817606  -5.254   9.763   6.835 -2.4365  2.4525 -0.1080
   55MOL   H21917607  -5.183   9.870   6.952  1.9706 -2.3192  1.7499
   55MOL   H22017608  -5.336  10.019   7.017 -0.2212  0.9566  1.5410
   55MOL   H22117609  -5.571  10.089   7.096 -0.7777  0.8407 -2.1038
   55MOL   H22217610  -5.824   9.874   7.180 -0.6895  1.9239  1.7670
   55MOL   H22317611  -5.769  10.039   7.174  0.7488  1.2436 -1.9135
   55MOL   H22417612  -5.700   9.688   7.041 -0.5053  0.1122  0.8186
   55MOL   H22517613  -5.477   9.618   6.973 -5.0979 -0.4282 -1.8526
   55MOL   C22617614  -5.875   9.991   6.998 -0.1297 -0.0697  0.2030
   55MOL   C22717615  -6.008  10.022   7.058  0.4212 -0.3402  0.2904
   55MOL   C22817616  -6.109   9.925   7.076 -0.5975  0.1668  0.1263
   55MOL   C22917617  -6.233   9.962   7.137  0.9358  0.3809 -0.1926
   55MOL   C23017618  -6.242  10.097   7.181  0.2848  0.6059 -0.7874
   55MOL   C23117619  -6.361  10.136   7.259  0.0189  0.2803  0.2939
   55MOL   C23217620  -6.145  10.191   7.166 -0.6621 -0.1858  0.1421
   55MOL   C23317621  -6.032  10.156   7.099 -0.4699  1.1222  0.7735
   55MOL   H23417622  -5.891   9.909   6.927 -2.5281 -0.4880  1.1719
   55MOL   H23517623  -5.834  10.073   6.940 -1.6175 -0.0058 -0.8108
   55MOL   H23617624  -6.093   9.820   7.058  0.8510  0.5953 -1.2387
   55MOL   H23717625  -6.314   9.893   7.156  1.1923 -0.5750 -2.3915
   55MOL   H23817626  -6.404  10.049   7.310  1.5754 -1.1694 -0.7971
   55MOL   H23917627  -6.324  10.196   7.342 -0.5941  0.5363  0.3814
   55MOL   H24017628  -6.149  10.291   7.206  0.3958 -0.1083  0.0783
   55MOL   H24117629  -5.954  10.231   7.099 -1.1473  1.8443  1.9501
   55MOL   C24217630  -6.467  10.204   7.178 -0.1842  0.5256  0.4411
   55MOL   C24317631  -6.598  10.235   7.247  0.0277  0.1353  0.2785
   55MOL   C24417632  -6.633  10.368   7.284  0.4307  0.0034  0.0945
   55MOL   C24517633  -6.761  10.395   7.339  0.5314  0.0265  0.9832
   55MOL   C24617634  -6.855  10.293   7.354  0.1789  0.7185  0.0614
   55MOL   C24717635  -6.989  10.316   7.420  1.0536  0.4368  0.4075
   55MOL   C24817636  -6.829  10.159   7.303  0.3026 -0.1242  0.2198
   55MOL   C24917637  -6.699  10.130   7.253 -0.2756 -0.0232 -0.1219
   55MOL   H25017638  -6.431  10.292   7.124 -1.1522 -0.4700 -1.9097
   55MOL   H25117639  -6.498  10.139   7.096 -1.4707  1.5753  0.0732
   55MOL   H25217640  -6.560  10.447   7.294 -0.4926  0.6239  2.4062
   55MOL   H25317641  -6.795  10.488   7.381 -0.3299  0.6835 -1.0808
   55MOL   H25417642  -7.026  10.235   7.483  0.4988 -0.5203 -1.1021
   55MOL   H25517643  -6.981  10.408   7.477  2.1517  0.7174 -0.1729
   55MOL   H25617644  -6.908  10.087   7.312 -1.1079  1.2683 -0.6738
   55MOL   H25717645  -6.676  10.032   7.216 -0.3013 -0.1977  0.3220
   55MOL   C25817646  -7.097  10.340   7.311 -0.0283  0.0732 -0.1426
   55MOL   C25917647  -7.230  10.367   7.375  0.5275 -0.1162  0.0713
   55MOL   C26017648  -7.255  10.480   7.464  0.4966  0.3430 -0.1598
   55MOL   C26117649  -7.385  10.501   7.515 -0.0166  0.3742  0.2081
   55MOL   C26217650  -7.482  10.404   7.487  0.1272 -0.0803  0.3225
   55MOL   C26317651  -7.623  10.424   7.543 -0.0175  0.3940  0.3394
   55MOL   C26417652  -7.458  10.294   7.408 -0.2101  0.1046  0.5132
   55MOL   C26517653  -7.330  10.274   7.353 -0.4922 -0.2266  0.3587
   55MOL   H26617654  -7.106  10.252   7.248  2.0525 -2.0123  2.3462
   55MOL   H26717655  -7.068  10.428   7.254 -2.2741 -0.0308 -1.4864
   55MOL   H26817656  -7.178  10.555   7.476 -0.5519  1.4607 -0.2904
   55MOL   H26917657  -7.405  10.589   7.574  3.5061  0.9161  0.6959
   55MOL   H27017658  -7.685  10.335   7.530 -1.0073  0.9927  0.8342
   55MOL   H27117659  -7.632  10.437   7.651 -1.2361 -0.1856  0.3235
   55MOL   H27217660  -7.532  10.216   7.397  1.3571 -1.2801 -0.4025
   55MOL   H27317661  -7.301  10.192   7.288  1.4997 -0.2677  1.2798
   55MOL   C27417662  -7.695  10.540   7.468  0.9149 -0.8524  0.0605
   55MOL   C27517663  -7.839  10.567   7.514 -0.1246 -0.3074  0.4528
   55MOL   C27617664  -7.942  10.490   7.455 -1.0603 -0.2111  0.1076
   55MOL   C27717665  -8.072  10.497   7.497 -0.8608  0.0651  0.4170
   55MOL   C27817666  -8.097  10.582   7.601 -0.6172 -0.5285 -1.0906
   55MOL   C27917667  -8.239  10.598   7.645 -0.8652  0.0554  0.3408
   55MOL   C28017668  -7.997  10.659   7.668 -0.9646 -0.1365  0.2148
   55MOL   C28117669  -7.869  10.662   7.614  0.9402 -0.1417 -0.4872
   55MOL   H28217670  -7.645  10.635   7.488 -0.5278 -0.0846  0.0455
   55MOL   H28317671  -7.696  10.525   7.360  2.0030  0.8603 -0.2116
   55MOL   H28417672  -7.909  10.428   7.372 -0.6315 -0.0025  0.1251
   55MOL   H28517673  -8.155  10.447   7.449 -0.2563 -1.7397  1.2134
   55MOL   H28617674  -8.300  10.522   7.596  0.9371 -0.4632 -1.1241
   55MOL   H28717675  -8.244  10.577   7.751  0.4342 -0.1074  0.3727
   55MOL   H28817676  -8.006  10.725   7.753 -0.2750 -1.6728  1.5284
   55MOL   H28917677  -7.789  10.712   7.667 -0.1511  1.2311 -0.1024
   55MOL   C29017678  -8.302  10.743   7.619 -0.9724  0.0154  0.3872
   55MOL   C29117679  -8.448  10.760   7.653 -0.1230 -0.8044  0.6640
   55MOL   C29217680  -8.550  10.688   7.592  0.5605 -0.7505 -0.0022
   55MOL   C29317681  -8.676  10.699   7.651 -0.6058  0.2341 -0.9765
   55MOL   C29417682  -8.703  10.777   7.762 -0.4867  0.3463 -0.2170
   55MOL   C29517683  -8.851  10.777   7.806  0.3298  0.3330 -0.0876
   55MOL   C29617684  -8.606  10.861   7.815 -0.4351 -0.1560 -0.2966
   55MOL   C29717685  -8.474  10.843   7.767  0.0918 -0.7355  0.2074
   55MOL   H29817686  -8.298  10.769   7.513 -0.5237 -2.0126 -0.1161
   55MOL   H29917687  -8.249  10.822   7.673 -0.4716 -0.9365  1.3136
   55MOL   H30017688  -8.524  10.626   7.508  0.3263 -0.6621 -0.1414
   55MOL   H30117689  -8.752  10.646   7.596  1.7526 -0.7644 -3.3997
   55MOL   H30217690  -8.905  10.706   7.743 -0.4119  0.1471  0.7552
   55MOL   H30317691  -8.848  10.749   7.911 -0.2070  1.7952  0.3313
   55MOL   H30417692  -8.622  10.936   7.892 -0.8674 -1.6583  1.0869
   55MOL   H30517693  -8.393  10.890   7.822 -1.8819  3.6539 -0.4094
   55MOL   C30617694  -8.924  10.909   7.781 -0.4992  0.0586 -0.2142
   55MOL   C30717695  -9.070  10.932   7.805 -0.3848  0.0706 -0.0408
   55MOL   C30817696  -9.162  10.843   7.747  0.2596 -0.2919 -0.5564
   55MOL   C30917697  -9.299  10.855   7.769  0.0904 -0.1837  0.1150
   55MOL   C31017698  -9.345  10.964   7.849 -0.5393  0.5314 -0.1020
   55MOL   C31117699  -9.485  10.964   7.889 -0.7806 -0.4598  0.2336
   55MOL   C31217700  -9.252  11.066   7.890  0.6928 -0.3456 -0.5833
   55MOL   C31317701  -9.117  11.051   7.868  0.3810 -0.6468  0.1591
   55MOL   H31417702  -8.901  10.942   7.680  0.3115 -0.9702 -0.3800
   55MOL   H31517703  -8.879  10.979   7.852  2.0287 -2.9210  1.2393
   55MOL   H31617704  -9.127  10.762   7.684  0.6882  0.8007 -1.7435
   55MOL   H31717705  -9.372  10.780   7.740 -1.3085  0.9792  0.5387
   55MOL   H31817706  -9.523  11.055   7.935 -1.0148 -1.2070  1.5580
   55MOL   H31917707  -9.549  10.920   7.812 -1.4041 -0.3147  0.6710
   55MOL   H32017708  -9.298  11.150   7.941 -1.2286 -1.6515 -0.1141
   55MOL   H32117709  -9.055  11.134   7.899 -1.2920  1.4472 -1.8807
   55MOL   H32217710  -9.472  10.891   7.969  0.8648  0.2098  0.6070
   56MOL     C117711   5.843   0.900   0.265 -0.5371 -0.6422  0.2131
   56MOL     C217712   5.962   0.811   0.220 -0.1566  0.1485 -0.8435
   56MOL     C317713   6.006   0.712   0.313 -0.8785  0.3000 -0.4838
   56MOL     C417714   6.122   0.638   0.274  0.0947  0.4880  0.0470
   56MOL     C517715   6.177   0.655   0.147 -0.2027 -0.4163 -0.5885
   56MOL     C617716   6.307   0.575   0.112  0.3384 -0.6508  0.2513
   56MOL     C717717   6.133   0.761   0.063  0.4796  0.1396  0.6877
   56MOL     C817718   6.020   0.837   0.094  0.2813  0.0293 -0.3022
   56MOL     H917719   5.857   1.006   0.244 -0.7348 -0.1819  2.2684
   56MOL    H1017720   5.747   0.868   0.224  1.1560 -2.7722 -2.2790
   56MOL    H1117721   5.952   0.699   0.406 -2.8984 -0.2256 -1.7015
   56MOL    H1217722   6.153   0.565   0.347  0.4968  0.9810  0.3694
   56MOL    H1317723   6.396   0.638   0.110  0.5541 -0.9766 -1.1709
   56MOL    H1417724   6.332   0.512   0.198 -2.2776  1.2255  2.4759
   56MOL    H1517725   6.175   0.780  -0.035  2.1154  0.6299  1.4553
   56MOL    H1617726   5.980   0.917   0.033 -1.5081 -0.8294 -0.3068
   56MOL    H1717727   5.840   0.891   0.373 -0.6424 -1.5214  0.1415
   56MOL    C1817728   6.282   0.487  -0.013 -0.5040 -0.2023  0.8057
   56MOL    C1917729   6.405   0.403  -0.046  0.1031  0.4814  0.3800
   56MOL    C2017730   6.529   0.465  -0.054 -1.0921 -0.6029  0.1068
   56MOL    C2117731   6.644   0.385  -0.084 -0.4157  0.2002 -0.2808
   56MOL    C2217732   6.637   0.245  -0.093 -0.6049 -0.4311 -0.1921
   56MOL    C2317733   6.762   0.158  -0.098 -0.0502 -0.1607  0.0388
   56MOL    C2417734   6.510   0.187  -0.092  0.7012 -0.5474 -0.0237
   56MOL    C2517735   6.390   0.264  -0.070 -0.4507 -0.5653 -0.1646
   56MOL    H2617736   6.202   0.418   0.011 -1.0482  0.7206  1.6372
   56MOL    H2717737   6.249   0.548  -0.097  1.2646 -0.0602  0.1839
   56MOL    H2817738   6.537   0.573  -0.054  2.1263 -0.7543 -2.2058
   56MOL    H2917739   6.743   0.426  -0.096 -0.4855  0.4259 -0.0784
   56MOL    H3017740   6.733   0.059  -0.063 -0.4395  0.0190  0.2357
   56MOL    H3117741   6.828   0.197  -0.021 -2.1365  0.8773  1.3582
   56MOL    H3217742   6.508   0.080  -0.103 -0.4007 -0.4038 -1.2809
   56MOL    H3317743   6.295   0.213  -0.075 -0.2524 -1.0433  0.9281
   56MOL    C3417744   6.815   0.140  -0.242  0.6320 -0.0511 -0.2626
   56MOL    C3517745   6.946   0.061  -0.244 -0.0428 -0.1786 -0.1160
   56MOL    C3617746   6.949  -0.075  -0.284 -0.0804 -0.2412  0.1013
   56MOL    C3717747   7.074  -0.140  -0.272  0.4344  1.0405 -0.3704
   56MOL    C3817748   7.196  -0.076  -0.250 -0.0726 -0.3339 -0.7472
   56MOL    C3917749   7.326  -0.151  -0.273  0.9711  0.9878  0.7769
   56MOL    C4017750   7.191   0.060  -0.211 -0.2621 -0.2701  0.6481
   56MOL    C4117751   7.066   0.122  -0.209  0.3157 -0.3605 -0.5911
   56MOL    H4217752   6.841   0.238  -0.280  1.4307 -0.0430  0.2991
   56MOL    H4317753   6.743   0.102  -0.315  0.0389 -0.9468  0.7511
   56MOL    H4417754   6.860  -0.126  -0.319  0.2458  0.2226 -1.4443
   56MOL    H4517755   7.078  -0.242  -0.309 -0.0591  0.1581  1.8702
   56MOL    H4617756   7.411  -0.087  -0.247  3.0197 -1.4070  0.1136
   56MOL    H4717757   7.338  -0.246  -0.220  0.5522  0.2019 -0.5312
   56MOL    H4817758   7.280   0.120  -0.201 -0.4962  0.6872 -2.6909
   56MOL    H4917759   7.070   0.224  -0.174  0.4907 -0.8982  0.9922
   56MOL    C5017760   7.355  -0.179  -0.424 -0.2338  0.2231  0.5203
   56MOL    C5117761   7.490  -0.242  -0.440  0.0180  0.3681  0.0896
   56MOL    C5217762   7.610  -0.171  -0.425  0.2281  0.3179 -0.9020
   56MOL    C5317763   7.730  -0.248  -0.427  0.2736  0.4286  0.2064
   56MOL    C5417764   7.736  -0.386  -0.452 -0.1621  0.0610  0.0690
   56MOL    C5517765   7.865  -0.466  -0.424  0.2334 -0.0431  0.5557
   56MOL    C5617766   7.616  -0.453  -0.467 -0.0980  0.2970 -0.4558
   56MOL    C5717767   7.494  -0.386  -0.462  0.4287 -1.0030 -0.1024
   56MOL    H5817768   7.352  -0.088  -0.483  0.2173  0.1555  0.3880
   56MOL    H5917769   7.273  -0.241  -0.459  0.9954 -0.7679 -0.7108
   56MOL    H6017770   7.612  -0.063  -0.414 -2.9556  0.3706 -0.4007
   56MOL    H6117771   7.821  -0.190  -0.426  1.1607 -0.9388  1.5542
   56MOL    H6217772   7.934  -0.401  -0.369 -0.0014  0.9535 -0.3159
   56MOL    H6317773   7.858  -0.551  -0.357 -0.5622 -0.5717 -0.1943
   56MOL    H6417774   7.632  -0.560  -0.463  0.4221  0.3626 -0.7852
   56MOL    H6517775   7.408  -0.444  -0.491 -1.0004  0.6029  0.8540
   56MOL    C6617776   7.923  -0.506  -0.565  0.5775 -0.2518 -0.7168
   56MOL    C6717777   8.067  -0.566  -0.569  0.2733 -0.0889  0.3858
   56MOL    C6817778   8.076  -0.701  -0.542 -0.5722  0.0144 -0.1573
   56MOL    C6917779   8.201  -0.772  -0.551 -0.1868  0.3032  0.9693
   56MOL    C7017780   8.321  -0.698  -0.581  0.4231 -0.0579 -0.2312
   56MOL    C7117781   8.452  -0.767  -0.575  0.0465 -0.7379 -0.5432
   56MOL    C7217782   8.311  -0.556  -0.607  0.2100  0.1049  0.2324
   56MOL    C7317783   8.188  -0.492  -0.600  0.0883  0.3995  0.3413
   56MOL    H7417784   7.927  -0.416  -0.627  0.8974 -0.7676 -1.4442
   56MOL    H7517785   7.870  -0.580  -0.624  0.3024  0.2334 -1.0747
   56MOL    H7617786   7.987  -0.748  -0.502 -0.9587 -0.0589 -1.0960
   56MOL    H7717787   8.198  -0.878  -0.532  0.3645 -0.3881 -2.6298
   56MOL    H7817788   8.446  -0.840  -0.494  2.1249 -0.0778  0.2562
   56MOL    H7917789   8.526  -0.689  -0.559 -2.2789  1.0616  1.6781
   56MOL    H8017790   8.404  -0.506  -0.628 -0.9221  1.6874 -1.1606
   56MOL    H8117791   8.193  -0.388  -0.626  0.2254  0.5805  1.0882
   56MOL    C8217792   8.481  -0.833  -0.708 -0.5502 -0.7978 -0.0035
   56MOL    C8317793   8.624  -0.886  -0.713 -0.2134  0.2832  0.0418
   56MOL    C8417794   8.643  -1.024  -0.697 -0.3276  0.0110 -0.4581
   56MOL    C8517795   8.773  -1.076  -0.692 -0.2959  0.3573 -0.7657
   56MOL    C8617796   8.882  -0.990  -0.715  0.6016  0.6042  0.4599
   56MOL    C8717797   9.026  -1.041  -0.712 -0.0555  0.2427  0.7043
   56MOL    C8817798   8.868  -0.851  -0.742 -0.1862  0.2721 -0.0773
   56MOL    C8917799   8.733  -0.805  -0.742  0.5664 -0.0536  0.0855
   56MOL    H9017800   8.468  -0.772  -0.798 -0.1447 -1.9313 -0.8356
   56MOL    H9117801   8.415  -0.918  -0.724 -1.9780 -0.1092  2.0070
   56MOL    H9217802   8.556  -1.086  -0.681  0.9397 -2.0023 -1.1857
   56MOL    H9317803   8.785  -1.183  -0.684 -2.5883 -0.0627 -2.2013
   56MOL    H9417804   9.023  -1.123  -0.641  0.4151  1.1837  1.8287
   56MOL    H9517805   9.086  -0.964  -0.663 -0.7888  2.3657 -1.5612
   56MOL    H9617806   8.954  -0.790  -0.765  0.1703 -0.8652 -1.8669
   56MOL    H9717807   8.711  -0.710  -0.788  1.0958  1.2312  2.4203
   56MOL    C9817808   9.085  -1.073  -0.852  0.2309  0.3332  0.5039
   56MOL    C9917809   9.225  -1.119  -0.844  0.2791  0.4033 -0.0509
   56MOL   C10017810   9.323  -1.016  -0.866  0.2830  0.1480  0.7277
   56MOL   C10117811   9.459  -1.054  -0.855 -0.8091  0.6354  0.4110
   56MOL   C10217812   9.493  -1.189  -0.823 -1.2164 -0.0853 -0.9734
   56MOL   C10317813   9.640  -1.229  -0.805  0.0845  0.1528  0.3805
   56MOL   C10417814   9.396  -1.283  -0.799  0.1071  0.1939  0.2414
   56MOL   C10517815   9.262  -1.248  -0.807  0.4109  0.0254 -0.2164
   56MOL   H10617816   9.078  -0.978  -0.906 -2.4051 -0.6090 -0.8801
   56MOL   H10717817   9.020  -1.146  -0.900  0.6483  0.7503 -0.7113
   56MOL   H10817818   9.290  -0.918  -0.897  0.5964  0.6913  2.0820
   56MOL   H10917819   9.534  -0.981  -0.880 -1.8081  2.8283  3.6033
   56MOL   H11017820   9.684  -1.143  -0.755 -1.1335  0.9053  0.1827
   56MOL   H11117821   9.641  -1.320  -0.746 -1.1143 -1.6339 -2.2696
   56MOL   H11217822   9.419  -1.388  -0.782  0.1507  0.1327 -0.1878
   56MOL   H11317823   9.183  -1.319  -0.787 -0.3516  0.8179 -0.3409
   56MOL   C11417824   9.719  -1.239  -0.943  0.1193 -0.3520 -0.0005
   56MOL   C11517825   9.863  -1.293  -0.930  0.0370 -0.0980  0.4839
   56MOL   C11617826   9.890  -1.418  -0.870 -0.1651 -0.2505 -0.0108
   56MOL   C11717827  10.022  -1.463  -0.867 -0.4140  0.5049 -0.5869
   56MOL   C11817828  10.128  -1.385  -0.920  0.4593  0.0950 -0.9594
   56MOL   C11917829  10.273  -1.434  -0.927  0.3489  0.5510 -0.4511
   56MOL   C12017830  10.099  -1.264  -0.967 -0.3615  0.1298 -0.1034
   56MOL   C12117831   9.971  -1.216  -0.975  0.1784 -0.2006  0.0386
   56MOL   H12217832   9.718  -1.146  -0.999 -0.0548 -0.9150 -0.9575
   56MOL   H12317833   9.668  -1.312  -1.007 -0.8180  2.5633 -2.6992
   56MOL   H12417834   9.812  -1.475  -0.823 -0.7906  0.1319 -0.5904
   56MOL   H12517835  10.036  -1.553  -0.809 -1.3260  0.4710 -0.4236
   56MOL   H12617836  10.334  -1.354  -0.885 -0.3588  1.1525 -0.5386
   56MOL   H12717837  10.272  -1.523  -0.865 -4.5177  1.0309  0.3597
   56MOL   H12817838  10.172  -1.200  -1.014 -0.6286 -0.2485 -1.0418
   56MOL   H12917839   9.961  -1.121  -1.024  2.9872  1.1492  1.9195
   56MOL   C13017840  10.319  -1.470  -1.069 -0.5061 -0.4591 -0.2398
   56MOL   C13117841  10.470  -1.518  -1.076  0.0054  0.1435 -0.1662
   56MOL   C13217842  10.515  -1.636  -1.014 -0.1961  0.1148  0.0708
   56MOL   C13317843  10.647  -1.684  -1.042 -0.0590  0.5497 -0.5281
   56MOL   C13417844  10.720  -1.623  -1.145  0.3467  0.5511  0.0924
   56MOL   C13517845  10.848  -1.694  -1.190  0.0360  0.3925 -0.1255
   56MOL   C13617846  10.679  -1.505  -1.203 -0.0701  0.4394  0.0801
   56MOL   C13717847  10.557  -1.452  -1.164  0.3149  0.4274  0.4249
   56MOL   H13817848  10.313  -1.379  -1.128 -1.7936 -0.8431 -0.7286
   56MOL   H13917849  10.257  -1.539  -1.128 -1.1602 -1.5762  1.6980
   56MOL   H14017850  10.466  -1.689  -0.934 -0.0696 -1.2190 -0.7286
   56MOL   H14117851  10.672  -1.781  -1.001  0.2100  0.6300 -0.5041
   56MOL   H14217852  10.824  -1.800  -1.197 -1.0101  0.5309  1.1838
   56MOL   H14317853  10.861  -1.667  -1.295  2.4726 -1.9795 -0.5027
   56MOL   H14417854  10.742  -1.453  -1.274  0.3880 -0.2785 -0.0466
   56MOL   H14517855  10.522  -1.367  -1.221  0.8757  0.5258  0.2311
   56MOL   C14617856  10.969  -1.665  -1.104 -1.1032 -0.1035 -0.6873
   56MOL   C14717857  11.092  -1.737  -1.151 -0.1756  0.3129  0.2597
   56MOL   C14817858  11.172  -1.678  -1.255  0.5683 -0.4126 -0.1780
   56MOL   C14917859  11.287  -1.745  -1.295 -0.4585  0.8359  0.1146
   56MOL   C15017860  11.322  -1.865  -1.238  0.1509  0.4748  0.5829
   56MOL   C15117861  11.453  -1.926  -1.288  0.2496  0.0234 -0.1101
   56MOL   C15217862  11.242  -1.926  -1.141  0.8241  0.4398  0.3538
   56MOL   C15317863  11.126  -1.859  -1.090 -0.5132 -0.2448  0.5794
   56MOL   H15417864  10.934  -1.686  -1.003 -0.2798 -0.4658 -0.4783
   56MOL   H15517865  10.982  -1.558  -1.088  0.5886 -0.3138 -0.5351
   56MOL   H15617866  11.140  -1.582  -1.290  0.9436 -0.8302 -1.6826
   56MOL   H15717867  11.338  -1.698  -1.377 -0.5157  1.0977  0.2288
   56MOL   H15817868  11.445  -2.031  -1.259  1.7638  0.4843  2.1352
   56MOL   H15917869  11.464  -1.935  -1.396  2.8870  1.2781  0.0357
   56MOL   H16017870  11.276  -2.019  -1.097 -0.5468  0.1223  0.7531
   56MOL   H16117871  11.063  -1.904  -1.015 -1.2327 -3.2469 -1.7044
   56MOL   C16217872  11.578  -1.852  -1.242 -0.2868  0.5024 -0.0026
   56MOL   C16317873  11.707  -1.915  -1.283  0.2940  0.3134  0.0258
   56MOL   C16417874  11.735  -2.051  -1.250 -0.3714 -0.3213  0.9115
   56MOL   C16517875  11.851  -2.109  -1.297 -0.4104  0.5031  0.5059
   56MOL   C16617876  11.940  -2.039  -1.379  0.0325 -0.0225 -0.4406
   56MOL   C16717877  12.071  -2.107  -1.419 -0.4172  0.5516  0.0469
   56MOL   C16817878  11.910  -1.903  -1.406 -0.3716  0.6478  0.3400
   56MOL   C16917879  11.797  -1.839  -1.357  0.6073 -0.0006  0.0700
   56MOL   H17017880  11.574  -1.857  -1.133  1.5965  0.5618  0.0910
   56MOL   H17117881  11.570  -1.746  -1.267 -0.2929  0.4123 -0.3753
   56MOL   H17217882  11.659  -2.114  -1.206 -2.0075  2.2345  1.7906
   56MOL   H17317883  11.877  -2.213  -1.285 -1.5834 -0.0467 -1.5153
   56MOL   H17417884  12.075  -2.214  -1.397  1.4446  0.6377  0.1698
   56MOL   H17517885  12.062  -2.116  -1.527 -0.6418  1.7214 -0.0302
   56MOL   H17617886  11.978  -1.848  -1.470 -0.9295  2.2779  1.1432
   56MOL   H17717887  11.771  -1.742  -1.393 -0.3375 -0.1159  0.4366
   56MOL   C17817888  12.201  -2.041  -1.370  0.1138  0.3749 -0.2376
   56MOL   C17917889  12.331  -2.112  -1.416  0.3768 -0.5073 -0.5069
   56MOL   C18017890  12.449  -2.038  -1.447 -0.2785  0.4653  0.8422
   56MOL   C18117891  12.567  -2.094  -1.493  0.6696 -0.1887 -0.5039
   56MOL   C18217892  12.566  -2.235  -1.507  0.1884 -0.3056 -0.8236
   56MOL   C18317893  12.695  -2.304  -1.545 -0.1867 -0.0351 -0.7244
   56MOL   C18417894  12.453  -2.310  -1.479 -0.2474 -0.5209 -0.5437
   56MOL   C18517895  12.337  -2.252  -1.429  0.2905  0.0025 -0.0732
   56MOL   H18617896  12.197  -2.029  -1.262 -1.6484 -0.7840 -0.1510
   56MOL   H18717897  12.214  -1.939  -1.406  0.5882  0.7681  1.0205
   56MOL   H18817898  12.438  -1.933  -1.422 -0.3054  0.2829  1.5924
   56MOL   H18917899  12.649  -2.025  -1.507  1.2851  0.1539  4.0728
   56MOL   H19017900  12.775  -2.229  -1.545  1.7404 -2.0292 -0.3103
   56MOL   H19117901  12.708  -2.380  -1.468  1.0683  0.2382 -0.6472
   56MOL   H19217902  12.458  -2.418  -1.479 -1.4736 -0.6263 -3.2845
   56MOL   H19317903  12.253  -2.313  -1.398  1.9457 -2.5700 -0.4448
   56MOL   C19417904  12.694  -2.368  -1.679  0.5585  0.4924  0.7893
   56MOL   C19517905  12.818  -2.449  -1.717 -0.0502 -0.4751 -0.4524
   56MOL   C19617906  12.911  -2.394  -1.807 -0.1024 -0.4291  0.5925
   56MOL   C19717907  13.017  -2.475  -1.856 -0.3690 -0.7223 -0.3334
   56MOL   C19817908  13.040  -2.600  -1.809 -0.2332  0.4160  0.3791
   56MOL   C19917909  13.159  -2.683  -1.857 -0.2098 -0.2573  0.3631
   56MOL   C20017910  12.944  -2.654  -1.722  0.3261  0.0152 -0.3168
   56MOL   C20117911  12.833  -2.585  -1.675  0.1816 -0.6497  0.9902
   56MOL   H20217912  12.677  -2.301  -1.763  1.5577 -1.1085 -0.7150
   56MOL   H20317913  12.611  -2.438  -1.683 -0.8791  2.2358 -0.2976
   56MOL   H20417914  12.898  -2.292  -1.840  0.4036  0.0672  1.9143
   56MOL   H20517915  13.090  -2.436  -1.925 -0.4792  2.8414  1.4422
   56MOL   H20617916  13.150  -2.778  -1.804  0.1867 -0.4676  0.0542
   56MOL   H20717917  13.142  -2.699  -1.963 -0.0293  0.8050  0.1735
   56MOL   H20817918  12.969  -2.749  -1.676  2.2821  1.6795  2.2353
   56MOL   H20917919  12.760  -2.625  -1.606  1.1061  0.3251  2.5367
   56MOL   C21017920  13.295  -2.617  -1.833 -0.1711  1.1482  0.1593
   56MOL   C21117921  13.417  -2.707  -1.862  0.3087  0.9300 -1.3877
   56MOL   C21217922  13.530  -2.700  -1.773 -0.0583 -0.4668  0.1808
   56MOL   C21317923  13.638  -2.782  -1.800 -0.6536 -0.1398 -0.0860
   56MOL   C21417924  13.630  -2.875  -1.904  0.1901 -0.0782 -0.1022
   56MOL   C21517925  13.748  -2.965  -1.927  0.2695 -0.2395 -0.3354
   56MOL   C21617926  13.518  -2.886  -1.987  0.3374 -0.0269 -0.3108
   56MOL   C21717927  13.411  -2.801  -1.968 -0.3816  0.1311  0.5671
   56MOL   H21817928  13.310  -2.580  -1.731  1.4743 -0.5633  0.5742
   56MOL   H21917929  13.300  -2.527  -1.896 -1.2944  0.6000 -0.7183
   56MOL   H22017930  13.533  -2.637  -1.686 -0.4442  2.2652 -1.7388
   56MOL   H22117931  13.731  -2.761  -1.749  0.4378 -0.4413 -1.9065
   56MOL   H22217932  13.825  -2.965  -1.850 -0.5823  0.8126  0.5345
   56MOL   H22317933  13.711  -3.067  -1.936  2.7192 -1.0215 -2.2374
   56MOL   H22417934  13.528  -2.956  -2.068  1.9371  1.4135 -1.3908
   56MOL   H22517935  13.331  -2.800  -2.040  0.8244 -1.4392 -0.8438
   56MOL   C22617936  13.812  -2.935  -2.069  0.6290 -0.4402  0.2226
   56MOL   C22717937  13.858  -2.796  -2.088 -0.7471  0.1728  0.3940
   56MOL   C22817938  13.775  -2.693  -2.152  0.1585 -0.1782 -0.2156
   56MOL   C22917939  13.826  -2.565  -2.176 -0.7414  0.0055  0.2485
   56MOL   C23017940  13.955  -2.536  -2.139 -0.1806  0.4833  0.3459
   56MOL   C23117941  14.005  -2.394  -2.152 -0.1576  0.8443 -0.2691
   56MOL   C23217942  14.033  -2.631  -2.066 -0.3741 -0.1366  0.1054
   56MOL   C23317943  13.979  -2.755  -2.025  0.4814  0.6494 -0.4732
   56MOL   H23417944  13.751  -2.966  -2.154 -1.3285  0.8807  1.1044
   56MOL   H23517945  13.896  -3.004  -2.062  1.1199  0.2392  1.0772
   56MOL   H23617946  13.676  -2.718  -2.188 -0.7059  4.0277 -0.9726
   56MOL   H23717947  13.753  -2.493  -2.212 -0.9725  0.0369  0.7693
   56MOL   H23817948  14.114  -2.394  -2.155 -0.1224  3.9565 -0.1382
   56MOL   H23917949  13.983  -2.366  -2.255  2.6556  1.1211 -0.8434
   56MOL   H24017950  14.134  -2.612  -2.032  0.0938  0.5306 -1.6429
   56MOL   H24117951  14.028  -2.828  -1.964  0.3134 -0.0157 -1.1294
   56MOL   C24217952  13.955  -2.306  -2.034 -0.1561  0.1373  0.5204
   56MOL   C24317953  13.805  -2.282  -2.023 -0.0273  0.8711 -0.2410
   56MOL   C24417954  13.751  -2.164  -2.079  0.7666 -0.4700 -0.1434
   56MOL   C24517955  13.611  -2.143  -2.078 -0.3371  0.5561  0.0496
   56MOL   C24617956  13.526  -2.237  -2.023  0.3718 -0.1486 -0.5317
   56MOL   C24717957  13.385  -2.212  -2.003  0.6636 -0.2043 -0.0190
   56MOL   C24817958  13.577  -2.354  -1.961 -0.0869 -0.0749  0.3250
   56MOL   C24917959  13.718  -2.377  -1.964 -0.8256 -0.3945 -0.3562
   56MOL   H25017960  13.989  -2.341  -1.937  0.2965 -0.7226  0.0513
   56MOL   H25117961  14.001  -2.207  -2.033 -1.0704  0.5840 -0.2209
   56MOL   H25217962  13.821  -2.088  -2.111  0.8915 -0.4952  0.0744
   56MOL   H25317963  13.570  -2.052  -2.117  0.3015  1.7509  2.1083
   56MOL   H25417964  13.360  -2.150  -2.089  0.2967  0.7849  0.7884
   56MOL   H25517965  13.328  -2.304  -2.013  0.0949  0.1152  0.2473
   56MOL   H25617966  13.509  -2.428  -1.921 -2.6282  2.2342  0.4250
   56MOL   H25717967  13.765  -2.468  -1.929  0.5324  1.2220  2.1641
   56MOL   C25817968  13.360  -2.126  -1.870  0.3209  0.4360 -0.4078
   56MOL   C25917969  13.213  -2.087  -1.854  0.1806 -1.1424 -0.1850
   56MOL   C26017970  13.144  -2.140  -1.746  0.3277 -0.6270  0.6063
   56MOL   C26117971  13.011  -2.089  -1.724 -0.1223 -0.2543  0.4955
   56MOL   C26217972  12.948  -2.004  -1.818  0.5567 -0.1677 -0.5508
   56MOL   C26317973  12.800  -1.959  -1.812  0.6549  0.3701  0.7625
   56MOL   C26417974  13.021  -1.956  -1.926  0.6672 -0.5936 -0.2682
   56MOL   C26517975  13.158  -1.997  -1.944 -1.0381 -0.3507 -0.0386
   56MOL   H26617976  13.411  -2.030  -1.864 -3.6479  2.7439 -1.2163
   56MOL   H26717977  13.396  -2.185  -1.786 -0.9391  1.6706  1.0358
   56MOL   H26817978  13.178  -2.208  -1.669 -2.5782 -1.4142  1.2732
   56MOL   H26917979  12.959  -2.107  -1.631  0.3255  1.1589  1.0342
   56MOL   H27017980  12.758  -1.995  -1.718  1.7790  0.6416  1.3818
   56MOL   H27117981  12.787  -1.851  -1.803 -0.4070  0.2304  0.8673
   56MOL   H27217982  12.974  -1.905  -2.008  0.1512  0.4054  0.6394
   56MOL   H27317983  13.223  -1.963  -2.024 -0.8309  0.0930  0.3149
   56MOL   C27417984  12.704  -2.027  -1.916 -0.1391  0.4423 -0.0278
   56MOL   C27517985  12.562  -1.982  -1.915 -0.3086 -0.2783  0.2385
   56MOL   C27617986  12.521  -1.844  -1.908  0.1291  0.0560 -0.3850
   56MOL   C27717987  12.394  -1.811  -1.859 -0.5076  0.6290 -0.3027
   56MOL   C27817988  12.301  -1.912  -1.813  0.1767  0.3590  0.6078
   56MOL   C27917989  12.163  -1.875  -1.762  0.4849  0.0997  0.2178
   56MOL   C28017990  12.334  -2.046  -1.834  0.4458  0.9933 -0.2632
   56MOL   C28117991  12.466  -2.079  -1.885  0.5091  0.6262 -0.1920
   56MOL   H28217992  12.735  -2.009  -2.019  1.9196  0.7943  0.6226
   56MOL   H28317993  12.696  -2.135  -1.900 -1.1689  0.5265  0.0289
   56MOL   H28417994  12.598  -1.772  -1.928  0.5009  0.3750  1.9826
   56MOL   H28517995  12.365  -1.707  -1.850 -0.1681  0.8898 -2.2007
   56MOL   H28617996  12.122  -1.952  -1.697  2.0898  1.2276  2.6038
   56MOL   H28717997  12.163  -1.780  -1.710 -1.2369  0.0393  0.3510
   56MOL   H28817998  12.262  -2.124  -1.815  1.8155 -0.1308  0.3772
   56MOL   H28917999  12.505  -2.178  -1.907  0.0582  0.3260  0.3591
   56MOL   C29018000  12.061  -1.860  -1.881 -0.0819 -0.2158  0.7228
   56MOL   C29118001  11.930  -1.821  -1.825 -0.1905 -0.0844 -0.7925
   56MOL   C29218002  11.895  -1.686  -1.827 -0.3637 -0.6515  0.4764
   56MOL   C29318003  11.773  -1.639  -1.771 -1.2796 -0.5202 -0.0727
   56MOL   C29418004  11.688  -1.732  -1.708  0.0938  0.0821  0.2996
   56MOL   C29518005  11.558  -1.692  -1.641  0.1049 -0.2477 -0.8352
   56MOL   C29618006  11.737  -1.863  -1.689 -0.2540 -0.1654  0.0100
   56MOL   C29718007  11.855  -1.913  -1.749 -0.2241  0.1050  0.0268
   56MOL   H29818008  12.043  -1.957  -1.929 -2.2183  1.1446 -1.3276
   56MOL   H29918009  12.097  -1.785  -1.951 -1.4316  0.3834  0.6488
   56MOL   H30018010  11.962  -1.617  -1.878  0.6721 -0.6169  1.8676
   56MOL   H30118011  11.738  -1.537  -1.780  0.5666  0.2467  1.0641
   56MOL   H30218012  11.509  -1.769  -1.581  0.4714 -0.3096 -0.6106
   56MOL   H30318013  11.580  -1.611  -1.572 -1.4481  0.0277 -0.6475
   56MOL   H30418014  11.684  -1.937  -1.630 -1.1493 -0.9221 -1.6987
   56MOL   H30518015  11.883  -2.015  -1.725  3.3291  1.0099  0.0200
   56MOL   C30618016  11.459  -1.657  -1.753 -0.0949 -1.0295  0.1257
   56MOL   C30718017  11.328  -1.605  -1.698  0.0362  0.4927  0.4435
   56MOL   C30818018  11.312  -1.474  -1.662  0.7809 -0.2728 -0.0094
   56MOL   C30918019  11.193  -1.422  -1.614 -0.4441  0.4189  0.1779
   56MOL   C31018020  11.089  -1.508  -1.578  0.6067 -0.1376  0.2287
   56MOL   C31118021  10.960  -1.441  -1.524 -0.0221  1.0828  0.2589
   56MOL   C31218022  11.102  -1.647  -1.609 -0.4588  0.3313  0.5760
   56MOL   C31318023  11.222  -1.698  -1.672  0.1844 -0.2617  0.4800
   56MOL   H31418024  11.444  -1.728  -1.835  1.5035  0.2786 -1.3491
   56MOL   H31518025  11.503  -1.581  -1.818  0.9646 -3.1079 -1.6841
   56MOL   H31618026  11.384  -1.397  -1.685 -0.0861  0.2237 -1.1458
   56MOL   H31718027  11.171  -1.316  -1.609  0.5102  0.5991  0.6252
   56MOL   H31818028  10.924  -1.383  -1.609 -0.1352 -0.6749 -0.9211
   56MOL   H31918029  10.891  -1.522  -1.497 -1.6513  1.9787 -1.1033
   56MOL   H32018030  11.020  -1.712  -1.582 -0.0513 -0.4491 -0.0391
   56MOL   H32118031  11.228  -1.803  -1.695 -2.3679  0.0477 -1.9544
   56MOL   H32218032  10.979  -1.375  -1.439  1.5447 -1.6674  2.1374
   57MOL     C118033   2.267   0.622   6.583  0.1400  0.0804 -0.4315
   57MOL     C218034   2.128   0.668   6.587  0.2120 -0.4162  0.4625
   57MOL     C318035   2.102   0.807   6.576  0.0640 -0.0148  0.4244
   57MOL     C418036   1.974   0.864   6.575  0.2473 -0.3157 -0.0967
   57MOL     C518037   1.862   0.784   6.607  0.0687  0.7629 -0.0247
   57MOL     C618038   1.722   0.845   6.615  0.3667 -0.0685  0.1498
   57MOL     C718039   1.882   0.646   6.625  0.2165  0.2024  0.3937
   57MOL     C818040   2.011   0.590   6.613 -0.3026  0.2882 -0.2842
   57MOL     H918041   2.276   0.515   6.564  1.9794 -0.1611  1.6650
   57MOL    H1018042   2.324   0.668   6.502 -1.2393 -0.3554 -1.6748
   57MOL    H1118043   2.180   0.877   6.549 -1.2460  0.9828 -0.9298
   57MOL    H1218044   1.964   0.971   6.569 -0.5231 -0.4005 -0.3325
   57MOL    H1318045   1.734   0.952   6.596 -1.1791 -0.0667 -0.9214
   57MOL    H1418046   1.640   0.810   6.552  0.6068 -1.9093  0.8307
   57MOL    H1518047   1.798   0.579   6.640 -0.0960  0.9174  1.9138
   57MOL    H1618048   2.016   0.484   6.634  1.4711  0.7067  1.5434
   57MOL    H1718049   2.312   0.642   6.680 -2.2279  0.0018  0.7083
   57MOL    C1818050   1.664   0.826   6.760  0.9743  0.5889 -0.1382
   57MOL    C1918051   1.519   0.883   6.769 -0.5625 -0.1764  0.1085
   57MOL    C2018052   1.489   1.020   6.743  0.0622  0.2945  0.7672
   57MOL    C2118053   1.355   1.057   6.742 -0.5135 -0.8204  0.1394
   57MOL    C2218054   1.253   0.964   6.766 -0.1840  0.8133  0.0849
   57MOL    C2318055   1.112   1.011   6.781  0.3416 -0.5545 -0.2526
   57MOL    C2418056   1.285   0.830   6.784 -0.0569  1.1444 -0.6359
   57MOL    C2518057   1.420   0.789   6.796 -0.5759 -0.1627  0.2296
   57MOL    H2618058   1.675   0.730   6.810  1.0732 -0.6573 -2.4770
   57MOL    H2718059   1.718   0.899   6.821  0.7920  1.8645 -1.4761
   57MOL    H2818060   1.558   1.102   6.727  0.1846 -0.2779 -1.8861
   57MOL    H2918061   1.334   1.160   6.721  1.7595 -0.6317 -1.4019
   57MOL    H3018062   1.049   0.949   6.717 -0.1662 -0.8710  0.5414
   57MOL    H3118063   1.109   1.111   6.738 -0.1862  0.6616  2.4931
   57MOL    H3218064   1.216   0.751   6.807  0.6453  0.1094 -2.0222
   57MOL    H3318065   1.441   0.684   6.806  1.5388  0.1789 -0.2320
   57MOL    C3418066   1.054   0.998   6.919  0.6032 -0.0033  0.0814
   57MOL    C3518067   0.918   1.061   6.938 -0.9085  0.6903  0.0089
   57MOL    C3618068   0.812   0.979   6.976 -0.0763  0.1931 -0.2046
   57MOL    C3718069   0.685   1.028   6.984  0.4025  0.3380 -1.1641
   57MOL    C3818070   0.656   1.164   6.954  0.5655  0.7776  0.1390
   57MOL    C3918071   0.511   1.222   6.952  0.0371  0.4592 -0.1910
   57MOL    C4018072   0.770   1.245   6.922  0.3234  0.1486 -0.1328
   57MOL    C4118073   0.902   1.196   6.913 -0.1378  0.3802  1.1194
   57MOL    H4218074   1.112   1.064   6.984 -1.3514  1.7414  0.1012
   57MOL    H4318075   1.058   0.897   6.959  1.7303  0.5263  1.3974
   57MOL    H4418076   0.830   0.875   6.996 -1.0334 -0.0144 -0.4013
   57MOL    H4518077   0.607   0.961   7.018  0.7107  0.8897  0.7130
   57MOL    H4618078   0.520   1.328   6.926  0.5322  0.1656 -1.2786
   57MOL    H4718079   0.455   1.171   6.873 -0.5605  1.1401 -0.2185
   57MOL    H4818080   0.757   1.352   6.909 -1.9413 -0.1425 -0.3955
   57MOL    H4918081   0.994   1.247   6.887  0.1946 -0.3090  0.9428
   57MOL    C5018082   0.437   1.206   7.080  0.0330  0.1209 -0.3890
   57MOL    C5118083   0.288   1.256   7.089  0.5043  0.1255 -0.2795
   57MOL    C5218084   0.183   1.163   7.108 -0.1591  0.7619  0.0350
   57MOL    C5318085   0.052   1.204   7.112  0.2108  0.0929 -0.2532
   57MOL    C5418086   0.017   1.336   7.087 -0.5512  0.2940 -0.0439
   57MOL    C5518087  -0.132   1.372   7.092  1.4768 -0.0253  0.5198
   57MOL    C5618088   0.121   1.431   7.067  0.3031 -0.5873  0.6835
   57MOL    C5718089   0.256   1.390   7.077 -0.1501  0.1402  0.6067
   57MOL    H5818090   0.491   1.235   7.170  0.7641  1.6454 -1.2969
   57MOL    H5918091   0.428   1.099   7.096  1.7425 -0.0481 -0.4814
   57MOL    H6018092   0.208   1.061   7.134  1.6304  0.7468 -1.6288
   57MOL    H6118093  -0.030   1.142   7.143  1.3687 -1.4220 -0.1250
   57MOL    H6218094  -0.142   1.438   7.006 -0.9452  0.2788  0.9976
   57MOL    H6318095  -0.187   1.278   7.084 -3.1731  2.4092  1.9359
   57MOL    H6418096   0.106   1.536   7.051 -1.0847 -0.5842  1.9586
   57MOL    H6518097   0.341   1.456   7.066  1.3202 -1.9376 -0.8332
   57MOL    C6618098  -0.174   1.424   7.227  0.7545 -0.1574  0.1186
   57MOL    C6718099  -0.321   1.455   7.224  0.1190  0.5012 -0.4935
   57MOL    C6818100  -0.373   1.576   7.180  0.1175 -0.4302 -0.2717
   57MOL    C6918101  -0.517   1.592   7.170  0.4478  0.1028  0.2469
   57MOL    C7018102  -0.606   1.491   7.214 -1.2694  0.2389 -0.0307
   57MOL    C7118103  -0.753   1.523   7.222 -0.3545 -0.0074  1.0119
   57MOL    C7218104  -0.553   1.369   7.258 -0.7288  0.3161  0.4901
   57MOL    C7318105  -0.409   1.350   7.261 -1.1728 -0.2511  0.8575
   57MOL    H7418106  -0.122   1.517   7.251  2.2170 -1.0282  0.3544
   57MOL    H7518107  -0.152   1.350   7.304 -0.4206  0.5832  1.1948
   57MOL    H7618108  -0.302   1.655   7.162 -1.3015  0.6657 -1.1662
   57MOL    H7718109  -0.552   1.693   7.157 -2.8554 -1.1135 -0.8895
   57MOL    H7818110  -0.810   1.430   7.218 -1.1747  0.5278 -0.0971
   57MOL    H7918111  -0.781   1.566   7.126  1.7100 -2.9769 -0.9949
   57MOL    H8018112  -0.620   1.297   7.303 -2.2808  1.8802  0.7212
   57MOL    H8118113  -0.370   1.255   7.297 -0.0795 -0.3683 -0.5690
   57MOL    C8218114  -0.784   1.609   7.350 -0.4332 -0.5758 -0.1947
   57MOL    C8318115  -0.930   1.649   7.363 -0.4403  0.0687  0.3467
   57MOL    C8418116  -0.973   1.775   7.310 -0.2772  0.2742  0.4992
   57MOL    C8518117  -1.105   1.800   7.329  0.5420 -0.3172  1.0972
   57MOL    C8618118  -1.195   1.717   7.395  0.1396  0.0252 -0.5898
   57MOL    C8718119  -1.341   1.755   7.389  0.4195  0.0922  0.4978
   57MOL    C8818120  -1.152   1.596   7.451 -0.6491 -0.4749  0.2317
   57MOL    C8918121  -1.014   1.567   7.440  0.2304  0.6724 -0.2786
   57MOL    H9018122  -0.719   1.696   7.345  0.7108 -1.3972  0.0494
   57MOL    H9118123  -0.759   1.550   7.438 -1.1420 -1.0518 -0.3101
   57MOL    H9218124  -0.913   1.853   7.266 -1.2241  0.6975 -0.0460
   57MOL    H9318125  -1.138   1.890   7.278  0.5720 -1.5023 -1.0557
   57MOL    H9418126  -1.397   1.669   7.427  0.2280  0.6413  1.4707
   57MOL    H9518127  -1.381   1.760   7.288  1.0626 -1.1093  0.1675
   57MOL    H9618128  -1.223   1.532   7.502 -0.9736  0.0639  0.4683
   57MOL    H9718129  -0.991   1.470   7.482  0.3052  0.8130  0.0087
   57MOL    C9818130  -1.376   1.879   7.472  0.3253  0.1600 -0.1676
   57MOL    C9918131  -1.530   1.902   7.488  0.2398  0.0075  0.4515
   57MOL   C10018132  -1.586   2.024   7.441 -0.3715 -0.7020 -0.7761
   57MOL   C10118133  -1.723   2.057   7.465 -0.0450  0.6415  0.2111
   57MOL   C10218134  -1.804   1.960   7.529  0.0815  0.0872 -0.1155
   57MOL   C10318135  -1.953   1.984   7.557 -0.2233 -0.0867  0.5078
   57MOL   C10418136  -1.744   1.838   7.575 -0.4254  0.0242 -0.4388
   57MOL   C10518137  -1.612   1.810   7.550 -0.2527 -0.2915  0.2439
   57MOL   H10618138  -1.328   1.967   7.430 -1.3950  2.4120  2.3532
   57MOL   H10718139  -1.328   1.853   7.566  1.1880  0.1932 -0.5926
   57MOL   H10818140  -1.524   2.099   7.395  0.5361 -1.8186 -1.4106
   57MOL   H10918141  -1.766   2.149   7.428  0.8153  1.3332  0.9007
   57MOL   H11018142  -2.004   1.965   7.462  0.1603  0.5220  0.1772
   57MOL   H11118143  -1.986   1.909   7.629  0.4736 -2.0814 -1.2060
   57MOL   H11218144  -1.798   1.760   7.626  1.1371  0.3103  1.7396
   57MOL   H11318145  -1.579   1.712   7.580 -0.5383 -0.2789  0.6092
   57MOL   C11418146  -1.980   2.128   7.591  0.0691  0.0091 -0.3104
   57MOL   C11518147  -2.119   2.162   7.624  0.2102 -0.1791  0.4654
   57MOL   C11618148  -2.177   2.114   7.749  0.4750 -0.1949  0.4107
   57MOL   C11718149  -2.314   2.138   7.770 -0.6747  0.0856 -0.1345
   57MOL   C11818150  -2.388   2.217   7.677 -0.1197 -0.3047 -0.3171
   57MOL   C11918151  -2.528   2.267   7.722 -0.1026 -0.1956 -0.0242
   57MOL   C12018152  -2.326   2.270   7.563  0.4472  0.2477  1.4148
   57MOL   C12118153  -2.197   2.238   7.538 -0.7239  0.4053  0.1337
   57MOL   H12218154  -1.954   2.199   7.513 -0.2792 -0.4139 -0.8202
   57MOL   H12318155  -1.931   2.149   7.685 -0.2806 -1.2118  0.1509
   57MOL   H12418156  -2.109   2.067   7.818  2.3760 -2.4765 -2.8907
   57MOL   H12518157  -2.356   2.096   7.860 -0.2640  0.2368  0.1284
   57MOL   H12618158  -2.572   2.311   7.633 -0.4320  0.1828  0.3213
   57MOL   H12718159  -2.575   2.181   7.769 -1.5241  1.2658  1.2905
   57MOL   H12818160  -2.376   2.338   7.497  0.4981 -1.2057 -0.1651
   57MOL   H12918161  -2.161   2.281   7.446 -1.0798 -1.1961 -0.7770
   57MOL   C13018162  -2.506   2.376   7.827 -0.2665 -1.1449  0.1890
   57MOL   C13118163  -2.636   2.437   7.875  0.1048 -0.1150  0.5020
   57MOL   C13218164  -2.672   2.565   7.825  0.4293  0.3541 -0.2803
   57MOL   C13318165  -2.785   2.627   7.877 -0.4027  0.6458 -0.2521
   57MOL   C13418166  -2.855   2.569   7.986 -0.0076  0.0113  0.0557
   57MOL   C13518167  -2.992   2.626   8.027  0.0597  0.6306  1.0339
   57MOL   C13618168  -2.824   2.442   8.035 -0.1197  0.9729  0.1207
   57MOL   C13718169  -2.714   2.377   7.983 -0.2857 -0.9861 -0.0427
   57MOL   H13818170  -2.452   2.457   7.778 -2.6286  2.1612  2.8231
   57MOL   H13918171  -2.446   2.349   7.913 -0.2543  0.3180  0.6437
   57MOL   H14018172  -2.634   2.600   7.730  0.9905 -1.4592 -0.7420
   57MOL   H14118173  -2.832   2.709   7.826  1.3661  1.4126 -0.6699
   57MOL   H14218174  -3.040   2.686   7.950  2.0158 -1.2292 -1.7103
   57MOL   H14318175  -3.054   2.538   8.046 -0.6508  1.0071  0.5015
   57MOL   H14418176  -2.887   2.407   8.116 -0.6168  0.4132 -0.5034
   57MOL   H14518177  -2.680   2.284   8.026  2.2711 -0.3538 -0.5944
   57MOL   C14618178  -2.985   2.714   8.153  0.9744  0.4030 -0.0863
   57MOL   C14718179  -3.122   2.748   8.214  0.3718  0.4310  0.2053
   57MOL   C14818180  -3.192   2.862   8.168 -0.0654 -0.8337  0.4666
   57MOL   C14918181  -3.313   2.906   8.230 -0.7026  0.1982  0.4646
   57MOL   C15018182  -3.356   2.840   8.347 -0.3124 -0.3824  0.1866
   57MOL   C15118183  -3.478   2.896   8.426 -0.4705  0.0971 -0.2241
   57MOL   C15218184  -3.291   2.721   8.396  0.6913 -0.1423  0.2106
   57MOL   C15318185  -3.172   2.681   8.325  0.3930  0.7669 -0.4446
   57MOL   H15418186  -2.933   2.810   8.144  0.6967  0.5567 -0.0520
   57MOL   H15518187  -2.927   2.663   8.229  1.3189  0.5797 -0.2277
   57MOL   H15618188  -3.145   2.923   8.093 -0.7371 -1.0750 -0.1625
   57MOL   H15718189  -3.360   2.998   8.199  2.8211  3.1001  3.2822
   57MOL   H15818190  -3.492   2.825   8.507 -1.6010 -1.9288 -2.1374
   57MOL   H15918191  -3.451   2.999   8.448 -0.3740  0.6069 -2.5619
   57MOL   H16018192  -3.333   2.677   8.485 -1.9398 -1.5225 -1.6444
   57MOL   H16118193  -3.110   2.600   8.361 -0.9704 -0.5022 -0.8997
   57MOL   C16218194  -3.611   2.899   8.349 -0.9069  0.4197 -0.0633
   57MOL   C16318195  -3.723   2.970   8.422 -0.1513 -0.3272 -0.3443
   57MOL   C16418196  -3.701   3.104   8.468  0.0396  0.8024 -0.7186
   57MOL   C16518197  -3.808   3.169   8.539  0.7043  0.4680  0.6308
   57MOL   C16618198  -3.930   3.103   8.568 -0.1466  0.1883  1.1644
   57MOL   C16718199  -4.040   3.174   8.644 -0.3320  0.1346 -0.4424
   57MOL   C16818200  -3.944   2.972   8.525  0.2628  0.3775  0.2052
   57MOL   C16918201  -3.844   2.903   8.453  0.0686 -0.3659 -0.2855
   57MOL   H17018202  -3.633   2.794   8.333  0.2878  0.0605  0.5680
   57MOL   H17118203  -3.600   2.958   8.258 -0.1103 -0.9822 -0.8899
   57MOL   H17218204  -3.609   3.153   8.440 -0.1444  1.0843 -0.8251
   57MOL   H17318205  -3.791   3.270   8.573  2.9206 -0.0391  1.1314
   57MOL   H17418206  -4.127   3.109   8.650  1.3513 -2.3171 -1.6603
   57MOL   H17518207  -3.996   3.204   8.739  0.0392  1.9752 -1.1584
   57MOL   H17618208  -4.030   2.915   8.557 -0.3078  1.4526  0.6255
   57MOL   H17718209  -3.846   2.798   8.427 -1.1028  0.0018 -1.7737
   57MOL   C17818210  -4.093   3.292   8.552 -0.0561 -0.0534 -0.2155
   57MOL   C17918211  -4.212   3.367   8.614  0.3720 -0.0886  0.4341
   57MOL   C18018212  -4.198   3.492   8.684 -0.8335 -0.1225 -0.0781
   57MOL   C18118213  -4.307   3.559   8.735  0.0508  0.3813  0.8261
   57MOL   C18218214  -4.433   3.490   8.730  0.6685 -0.6395 -0.2585
   57MOL   C18318215  -4.561   3.548   8.799 -0.0078 -0.2713  0.3168
   57MOL   C18418216  -4.451   3.369   8.660  0.4232 -0.1529 -0.2068
   57MOL   C18518217  -4.338   3.308   8.608  0.2176  0.2766 -0.9832
   57MOL   H18618218  -4.125   3.246   8.458  0.4708  0.6582 -0.7441
   57MOL   H18718219  -4.014   3.364   8.534 -1.2675  1.3378 -0.0900
   57MOL   H18818220  -4.106   3.547   8.687 -0.0282 -1.3802 -1.2332
   57MOL   H18918221  -4.290   3.649   8.791 -2.6997  1.5885 -0.2015
   57MOL   H19018222  -4.626   3.466   8.828 -0.3493  0.3625  1.3590
   57MOL   H19118223  -4.522   3.594   8.890  0.1012 -2.3114  1.3243
   57MOL   H19218224  -4.537   3.309   8.687  1.3022 -0.4623  1.9902
   57MOL   H19318225  -4.348   3.205   8.579 -0.0438  0.0106  0.0647
   57MOL   C19418226  -4.636   3.642   8.708 -0.0715  0.6383  0.2656
   57MOL   C19518227  -4.761   3.694   8.783  0.0863 -0.6672 -0.8807
   57MOL   C19618228  -4.745   3.817   8.842  0.1805 -0.6494 -0.2913
   57MOL   C19718229  -4.853   3.884   8.898 -0.6167  0.0196  0.5036
   57MOL   C19818230  -4.979   3.820   8.910 -0.4828 -0.1461  0.2552
   57MOL   C19918231  -5.102   3.895   8.954  0.6607  0.4945  0.4505
   57MOL   C20018232  -4.991   3.695   8.837 -0.3643  0.0554 -0.1407
   57MOL   C20118233  -4.883   3.626   8.781  0.3697  0.4437  0.0472
   57MOL   H20218234  -4.666   3.586   8.619  2.0153 -1.6835  0.9605
   57MOL   H20318235  -4.575   3.723   8.668 -0.2577  0.4476 -0.4035
   57MOL   H20418236  -4.650   3.866   8.828 -1.1820  1.0933 -4.1694
   57MOL   H20518237  -4.840   3.989   8.915  1.1002 -0.5688  3.2016
   57MOL   H20618238  -5.187   3.829   8.967  2.1493 -1.2630  1.5525
   57MOL   H20718239  -5.091   3.952   9.046 -1.3425 -0.4571  1.2981
   57MOL   H20818240  -5.087   3.648   8.822  0.0632 -0.6614 -0.6899
   57MOL   H20918241  -4.895   3.538   8.720 -1.0650  0.5861  0.0881
   57MOL   C21018242  -5.138   4.000   8.844  0.1610  0.2425  0.5749
   57MOL   C21118243  -5.270   4.066   8.866 -0.3121 -0.7944 -0.0891
   57MOL   C21218244  -5.275   4.203   8.880 -0.3655 -0.5063  0.7653
   57MOL   C21318245  -5.402   4.263   8.891 -0.4729 -0.1668 -0.4797
   57MOL   C21418246  -5.522   4.194   8.924 -0.1472  0.3324  0.1005
   57MOL   C21518247  -5.654   4.268   8.947 -0.5315  0.6765 -0.7793
   57MOL   C21618248  -5.514   4.053   8.915 -0.1347  0.5386  0.6776
   57MOL   C21718249  -5.386   3.993   8.897 -0.5501  0.2746 -0.4409
   57MOL   H21818250  -5.149   3.952   8.746 -1.1717  0.7085  0.4829
   57MOL   H21918251  -5.068   4.083   8.835 -0.1716  0.5776  1.0654
   57MOL   H22018252  -5.187   4.263   8.862 -1.8166  0.9337 -1.8472
   57MOL   H22118253  -5.400   4.369   8.869 -0.6714 -0.5300 -2.3520
   57MOL   H22218254  -5.716   4.223   9.024  1.8380 -0.9720  0.2046
   57MOL   H22318255  -5.615   4.361   8.990 -1.5909 -0.3671  2.5619
   57MOL   H22418256  -5.605   3.999   8.937  0.6984 -0.7104  1.1352
   57MOL   H22518257  -5.385   3.885   8.895  1.5480  0.2743 -4.0208
   57MOL   C22618258  -5.738   4.280   8.822 -0.2586  0.7646  0.0605
   57MOL   C22718259  -5.858   4.372   8.842  0.2548 -0.2644  0.0135
   57MOL   C22818260  -5.836   4.513   8.863 -0.0217 -0.2769  0.0817
   57MOL   C22918261  -5.939   4.601   8.891  0.0497  0.0251  0.2530
   57MOL   C23018262  -6.065   4.551   8.915 -0.1297  0.0128 -0.1156
   57MOL   C23118263  -6.178   4.641   8.960  0.2535  0.4769 -0.3974
   57MOL   C23218264  -6.092   4.416   8.887 -0.6569  0.1650  0.6297
   57MOL   C23318265  -5.993   4.325   8.849  0.5517  0.4420  0.0888
   57MOL   H23418266  -5.762   4.178   8.791 -2.6809  0.0286  4.0250
   57MOL   H23518267  -5.675   4.337   8.753 -0.2458  1.5547  0.7273
   57MOL   H23618268  -5.732   4.542   8.861  0.4691 -2.0460 -2.1718
   57MOL   H23718269  -5.923   4.708   8.901 -0.2830  0.4737 -3.3309
   57MOL   H23818270  -6.257   4.578   9.000 -0.6515  0.8377 -1.5496
   57MOL   H23918271  -6.145   4.702   9.044 -0.9382  1.0634 -0.3368
   57MOL   H24018272  -6.193   4.378   8.890  0.4007 -2.8781 -0.0317
   57MOL   H24118273  -6.032   4.224   8.839  0.1745  0.7744 -2.1552
   57MOL   C24218274  -6.215   4.730   8.849 -0.5532  0.1427 -0.0393
   57MOL   C24318275  -6.346   4.794   8.881 -0.0557 -0.2890  0.5625
   57MOL   C24418276  -6.355   4.935   8.911 -0.2146  1.0560 -0.5676
   57MOL   C24518277  -6.479   4.993   8.935  0.3437  0.1767  0.1158
   57MOL   C24618278  -6.599   4.919   8.924 -0.2977 -0.5345  0.6010
   57MOL   C24718279  -6.733   4.987   8.950 -0.1039  0.0927  0.5820
   57MOL   C24818280  -6.592   4.785   8.901 -0.8153  0.1152  0.0473
   57MOL   C24918281  -6.465   4.723   8.881 -0.1632  0.7870 -0.7596
   57MOL   H25018282  -6.139   4.807   8.836 -1.2372  0.7074 -0.8137
   57MOL   H25118283  -6.230   4.677   8.755  0.2919 -1.7974  0.8895
   57MOL   H25218284  -6.268   4.997   8.899  0.8979 -0.2079  0.9302
   57MOL   H25318285  -6.481   5.100   8.948  0.5542  0.1108  0.6847
   57MOL   H25418286  -6.785   4.951   9.039 -0.1714  0.4227  0.6777
   57MOL   H25518287  -6.709   5.085   8.992 -3.4146  1.7542 -1.2118
   57MOL   H25618288  -6.681   4.724   8.906  0.0355 -1.0692  0.8490
   57MOL   H25718289  -6.446   4.619   8.857  1.8939  1.1056 -0.6318
   57MOL   C25818290  -6.809   4.997   8.818 -0.2400 -0.0393  0.0748
   57MOL   C25918291  -6.941   5.076   8.842 -0.5008  0.7051  0.2012
   57MOL   C26018292  -7.063   5.003   8.849 -0.2122 -0.4185 -0.9046
   57MOL   C26118293  -7.182   5.060   8.900 -0.4496  0.4149  0.6144
   57MOL   C26218294  -7.188   5.200   8.932  0.2865  0.0941 -0.3673
   57MOL   C26318295  -7.320   5.257   8.983  1.0616 -0.0995 -0.1511
   57MOL   C26418296  -7.060   5.272   8.928  0.3822 -0.3580  0.1156
   57MOL   C26518297  -6.942   5.214   8.873  0.0151 -0.0785  0.0800
   57MOL   H26618298  -6.839   4.898   8.784 -0.7544  0.2707 -0.3892
   57MOL   H26718299  -6.751   5.034   8.733 -1.7952  1.5597 -0.3179
   57MOL   H26818300  -7.062   4.896   8.837 -5.4850 -0.7702  0.7038
   57MOL   H26918301  -7.260   4.987   8.913 -1.0674  1.3249  2.0358
   57MOL   H27018302  -7.377   5.181   9.037  0.4848 -1.1239 -2.1582
   57MOL   H27118303  -7.304   5.337   9.056  1.6287  0.8884 -1.3302
   57MOL   H27218304  -7.067   5.375   8.960 -0.4763 -0.4095  0.1068
   57MOL   H27318305  -6.851   5.269   8.856  0.0493 -0.4988 -1.1810
   57MOL   C27418306  -7.418   5.293   8.873  0.2827 -0.6023 -0.7000
   57MOL   C27518307  -7.544   5.363   8.908  0.0991 -0.8066 -0.0486
   57MOL   C27618308  -7.669   5.306   8.877 -0.0929  0.1874 -0.1301
   57MOL   C27718309  -7.788   5.379   8.909 -0.1921  0.3776  0.2394
   57MOL   C27818310  -7.786   5.504   8.972  0.0439 -0.1662  0.7994
   57MOL   C27918311  -7.912   5.570   8.999  0.2378 -0.4828 -0.3007
   57MOL   C28018312  -7.661   5.564   9.000  0.3256  0.2637 -0.4592
   57MOL   C28118313  -7.538   5.495   8.966 -0.2364  0.0974 -1.1532
   57MOL   H28218314  -7.362   5.368   8.816  2.4121  0.7486  2.9421
   57MOL   H28318315  -7.439   5.206   8.812 -2.3548  0.1228 -0.8992
   57MOL   H28418316  -7.696   5.209   8.837  3.1695 -1.2041  0.8548
   57MOL   H28518317  -7.879   5.321   8.900 -0.3070  0.2356  2.0983
   57MOL   H28618318  -7.977   5.510   9.063 -1.7012  2.8052  0.9414
   57MOL   H28718319  -7.889   5.662   9.054 -2.5432 -0.1370  0.3557
   57MOL   H28818320  -7.660   5.670   9.024 -0.7162 -0.1789  1.6600
   57MOL   H28918321  -7.448   5.551   8.983 -0.9286  0.8292  0.1586
   57MOL   C29018322  -7.989   5.601   8.868 -0.9802  0.3167 -0.0906
   57MOL   C29118323  -8.130   5.650   8.895 -0.1731  0.4340 -0.7177
   57MOL   C29218324  -8.162   5.780   8.941  0.1442  0.6578 -0.7086
   57MOL   C29318325  -8.300   5.825   8.952  0.0759 -0.1550 -0.4524
   57MOL   C29418326  -8.404   5.737   8.926 -0.0256  0.2400  0.1114
   57MOL   C29518327  -8.546   5.790   8.945  0.4135 -0.0039  0.3261
   57MOL   C29618328  -8.375   5.609   8.876  0.0983 -0.3997  0.3688
   57MOL   C29718329  -8.242   5.568   8.863 -0.2506 -0.5750  0.7829
   57MOL   H29818330  -7.994   5.511   8.806 -0.2879 -0.7582  1.3759
   57MOL   H29918331  -7.939   5.685   8.821  1.8269 -0.5025  1.2686
   57MOL   H30018332  -8.085   5.855   8.954 -0.3696  1.2691 -1.1237
   57MOL   H30118333  -8.325   5.927   8.979 -1.3920 -0.2712 -1.3459
   57MOL   H30218334  -8.599   5.713   9.000  0.9550 -1.9708 -1.8353
   57MOL   H30318335  -8.544   5.878   9.009 -0.7762 -1.6330  2.6788
   57MOL   H30418336  -8.461   5.551   8.847 -0.2058  0.2500 -0.0552
   57MOL   H30518337  -8.227   5.466   8.832 -0.8421 -0.1164 -1.1280
   57MOL   C30618338  -8.630   5.823   8.807 -0.4454 -0.1945  0.4024
   57MOL   C30718339  -8.776   5.860   8.825 -0.0018 -0.1529  0.2966
   57MOL   C30818340  -8.872   5.778   8.778  0.5573  0.0170  0.0850
   57MOL   C30918341  -9.015   5.805   8.799 -0.5040  0.2746 -0.0531
   57MOL   C31018342  -9.056   5.927   8.859 -0.2724  0.1700 -0.8659
   57MOL   C31118343  -9.201   5.960   8.874  0.6433 -0.4009 -0.2397
   57MOL   C31218344  -8.954   6.015   8.902  0.4650  0.1984 -0.6438
   57MOL   C31318345  -8.818   5.978   8.890  0.4998 -0.8477  0.9015
   57MOL   H31418346  -8.637   5.745   8.732  1.1713  1.2506 -1.3149
   57MOL   H31518347  -8.566   5.898   8.759  1.7591 -1.4355  1.3111
   57MOL   H31618348  -8.849   5.681   8.736  1.8383  0.5235 -0.4009
   57MOL   H31718349  -9.089   5.732   8.771 -0.2815 -1.3946  3.4917
   57MOL   H31818350  -9.239   5.935   8.973  3.1612 -0.6455  0.6819
   57MOL   H31918351  -9.218   6.067   8.858  0.9003  0.0332  2.2126
   57MOL   H32018352  -8.973   6.116   8.936 -0.6342  0.3945 -1.8107
   57MOL   H32118353  -8.748   6.054   8.920  0.3439 -1.1125  1.9460
   57MOL   H32218354  -9.249   5.912   8.789  1.0601  2.7132 -2.3216
   58MOL     C118355   2.233   3.507   6.039  1.0334 -0.1481  0.1542
   58MOL     C218356   2.105   3.570   6.085  0.1090  0.8423  0.4786
   58MOL     C318357   2.052   3.687   6.035 -0.0734  0.3235  0.4219
   58MOL     C418358   1.926   3.732   6.076  0.5512  0.1667 -0.3816
   58MOL     C518359   1.851   3.660   6.178  0.1952  0.3176  0.0723
   58MOL     C618360   1.724   3.724   6.238  0.0587  0.0773 -0.0335
   58MOL     C718361   1.909   3.548   6.226 -0.3729  0.3138 -0.0616
   58MOL     C818362   2.037   3.505   6.188 -0.7705 -0.2514 -0.3318
   58MOL     H918363   2.285   3.577   5.973  1.3238  0.0385  0.5763
   58MOL    H1018364   2.300   3.488   6.123  0.0233 -2.5111  0.4512
   58MOL    H1118365   2.101   3.751   5.963  0.2370  1.6981  1.8433
   58MOL    H1218366   1.886   3.822   6.031  0.5916 -0.2905 -1.3555
   58MOL    H1318367   1.705   3.661   6.326 -0.0828  2.1054  1.4229
   58MOL    H1418368   1.744   3.824   6.278 -0.1173  1.2226 -2.7389
   58MOL    H1518369   1.870   3.499   6.314  0.9837 -1.5450 -0.4639
   58MOL    H1618370   2.075   3.412   6.227 -1.0816 -0.4784 -0.5616
   58MOL    H1718371   2.202   3.417   5.986 -0.1174 -0.0528  0.6646
   58MOL    C1818372   1.607   3.754   6.146 -0.4867  0.4487  0.0137
   58MOL    C1918373   1.483   3.804   6.202  0.0386 -0.0482  0.1950
   58MOL    C2018374   1.441   3.937   6.188 -0.5919 -0.0457 -0.4733
   58MOL    C2118375   1.319   3.983   6.238  0.3855  0.4519  0.5766
   58MOL    C2218376   1.236   3.895   6.302 -0.0864  0.1836  0.0801
   58MOL    C2318377   1.100   3.945   6.361  0.7055 -0.2702  0.5129
   58MOL    C2418378   1.270   3.759   6.316  0.1812  0.1763  0.0283
   58MOL    C2518379   1.400   3.713   6.270  1.2785  0.2955 -0.1976
   58MOL    H2618380   1.644   3.822   6.069 -1.4982  2.2404  1.0805
   58MOL    H2718381   1.568   3.663   6.099  0.3972  0.2217 -0.2932
   58MOL    H2818382   1.489   4.010   6.124 -0.8795  0.0124 -0.6246
   58MOL    H2918383   1.281   4.082   6.220 -0.1584  0.1468  0.0210
   58MOL    H3018384   1.101   4.048   6.396 -0.2041  0.6429 -2.0629
   58MOL    H3118385   1.064   3.878   6.440 -1.7217  0.0035 -0.3148
   58MOL    H3218386   1.202   3.687   6.360 -0.8152 -0.1837 -2.0278
   58MOL    H3318387   1.420   3.608   6.284 -1.8272 -0.3015  0.0243
   58MOL    C3418388   0.979   3.955   6.258 -0.1862 -0.3820  0.0236
   58MOL    C3518389   0.839   3.992   6.318  0.0738 -0.2663 -0.2861
   58MOL    C3618390   0.745   3.895   6.351 -0.0918  0.1715  0.2046
   58MOL    C3718391   0.627   3.926   6.414  0.8925  0.3673 -0.2007
   58MOL    C3818392   0.591   4.052   6.449  0.2282  0.7241 -0.2230
   58MOL    C3918393   0.455   4.091   6.509  0.0750 -0.3100 -0.2602
   58MOL    C4018394   0.683   4.155   6.417 -0.1754 -0.1474  0.5961
   58MOL    C4118395   0.806   4.126   6.357  0.5453  0.4808  0.8269
   58MOL    H4218396   0.969   3.865   6.197 -0.1609 -1.0214  0.9403
   58MOL    H4318397   1.016   4.028   6.187  2.6777 -0.9403  0.8562
   58MOL    H4418398   0.760   3.792   6.322 -3.5996  0.0262 -1.1982
   58MOL    H4518399   0.557   3.848   6.439  1.0892  0.0855 -0.5433
   58MOL    H4618400   0.402   4.002   6.542 -0.6248  0.0290 -0.4482
   58MOL    H4718401   0.480   4.150   6.596 -0.1693  1.3306 -1.2777
   58MOL    H4818402   0.657   4.259   6.434 -0.0445 -0.4478  2.7514
   58MOL    H4918403   0.875   4.208   6.350  1.4249 -0.2646  0.6985
   58MOL    C5018404   0.373   4.172   6.414 -0.1376 -0.6132  0.0163
   58MOL    C5118405   0.231   4.205   6.467 -0.3439 -0.0461  0.0829
   58MOL    C5218406   0.154   4.093   6.511 -0.1804 -0.0125  0.3970
   58MOL    C5318407   0.031   4.125   6.570 -0.2414  0.0053 -0.5421
   58MOL    C5418408  -0.024   4.253   6.568 -0.9130  0.0323 -0.0112
   58MOL    C5518409  -0.166   4.265   6.624 -0.1132 -0.1726 -0.1594
   58MOL    C5618410   0.047   4.359   6.503  0.1224 -0.0592  0.3523
   58MOL    C5718411   0.180   4.339   6.461 -0.2732 -0.3281 -0.0974
   58MOL    H5818412   0.364   4.122   6.318  3.3850  2.0840 -1.8525
   58MOL    H5918413   0.429   4.260   6.381 -1.3596 -0.2267 -1.0368
   58MOL    H6018414   0.195   3.994   6.524  1.0438  0.3912 -0.2791
   58MOL    H6118415  -0.026   4.045   6.615 -1.0232  1.1936  0.6080
   58MOL    H6218416  -0.201   4.169   6.662 -1.3372  0.7620  1.1199
   58MOL    H6318417  -0.176   4.337   6.705  0.3215 -1.1817  0.8147
   58MOL    H6418418   0.006   4.459   6.500 -1.1003 -0.5668 -0.3499
   58MOL    H6518419   0.244   4.421   6.435  0.6183 -1.0476 -0.2159
   58MOL    C6618420  -0.270   4.313   6.510  0.6558  0.5287 -0.0971
   58MOL    C6718421  -0.406   4.335   6.564  0.5729  0.0921 -0.6655
   58MOL    C6818422  -0.466   4.460   6.559  0.1271  0.5996  0.6516
   58MOL    C6918423  -0.586   4.480   6.628  0.5867  0.0536 -0.3834
   58MOL    C7018424  -0.662   4.378   6.684  0.2340 -0.0942 -0.1506
   58MOL    C7118425  -0.785   4.415   6.767  0.3410  0.0650  0.5443
   58MOL    C7218426  -0.603   4.245   6.695 -0.2204 -0.2865 -0.3056
   58MOL    C7318427  -0.478   4.229   6.635 -0.4579 -0.0520  0.1615
   58MOL    H7418428  -0.274   4.242   6.427 -1.5313  2.4780 -1.7281
   58MOL    H7518429  -0.237   4.407   6.465 -0.6810  1.6845  1.2903
   58MOL    H7618430  -0.421   4.545   6.508  0.5197  0.1516  0.2407
   58MOL    H7718431  -0.627   4.580   6.628 -1.7161 -0.8769 -0.4247
   58MOL    H7818432  -0.761   4.502   6.828 -1.4560  0.2698  0.9891
   58MOL    H7918433  -0.803   4.330   6.832 -0.1036  0.6365  1.1752
   58MOL    H8018434  -0.641   4.157   6.746  0.7340  0.1374  1.1546
   58MOL    H8118435  -0.427   4.134   6.637 -2.6728 -1.2544  1.8586
   58MOL    C8218436  -0.896   4.449   6.670  0.1780  0.8150  0.6638
   58MOL    C8318437  -1.025   4.493   6.737  0.6333  0.3391  0.3685
   58MOL    C8418438  -1.079   4.420   6.844  0.4762 -0.1441  0.8756
   58MOL    C8518439  -1.196   4.474   6.907 -0.5605 -0.6097 -0.9121
   58MOL    C8618440  -1.262   4.589   6.862  0.6096 -0.3796 -0.7687
   58MOL    C8718441  -1.383   4.635   6.925 -0.9887  1.1661  0.5894
   58MOL    C8818442  -1.207   4.656   6.748  0.2943  0.2087 -0.0322
   58MOL    C8918443  -1.091   4.607   6.686  0.3733 -0.3381  0.4276
   58MOL    H9018444  -0.926   4.363   6.609 -0.9779  0.7139  1.3701
   58MOL    H9118445  -0.859   4.531   6.608  1.1827 -0.1509 -0.0410
   58MOL    H9218446  -1.037   4.325   6.873  0.7397 -0.5315 -0.7482
   58MOL    H9318447  -1.236   4.424   6.994 -3.4442  0.9841 -1.2594
   58MOL    H9418448  -1.403   4.739   6.897  0.2600  1.4723  0.8080
   58MOL    H9518449  -1.358   4.649   7.031  3.4403 -0.1191 -0.2032
   58MOL    H9618450  -1.252   4.744   6.704 -1.3343 -0.8212 -0.4596
   58MOL    H9718451  -1.059   4.661   6.598  1.0418  0.3231  1.0768
   58MOL    C9818452  -1.507   4.546   6.892  0.2498 -0.0846 -0.0613
   58MOL    C9918453  -1.639   4.603   6.939  0.7471 -0.3752 -0.0766
   58MOL   C10018454  -1.698   4.711   6.871  0.4688  0.1466  0.4095
   58MOL   C10118455  -1.817   4.758   6.914 -0.2308  0.0074 -0.3066
   58MOL   C10218456  -1.872   4.717   7.037  0.2456  0.0352  0.2572
   58MOL   C10318457  -1.992   4.791   7.093 -0.3464 -0.8812  0.3910
   58MOL   C10418458  -1.819   4.601   7.101 -0.5516 -0.2201 -0.1356
   58MOL   C10518459  -1.698   4.557   7.055  0.0620 -0.0150  0.5769
   58MOL   H10618460  -1.492   4.442   6.923 -0.4128 -0.3186 -0.5060
   58MOL   H10718461  -1.512   4.540   6.783  1.7547  0.5214 -0.1762
   58MOL   H10818462  -1.647   4.734   6.779  2.1029 -2.5277  0.5924
   58MOL   H10918463  -1.860   4.835   6.851 -2.5168 -1.0368 -0.0355
   58MOL   H11018464  -1.969   4.810   7.198 -1.1321  0.5796  0.3115
   58MOL   H11118465  -2.009   4.890   7.051 -0.4151 -0.2888  1.7764
   58MOL   H11218466  -1.859   4.552   7.189  1.9594 -0.5657  0.8383
   58MOL   H11318467  -1.654   4.475   7.111  1.8515 -0.0399 -0.8243
   58MOL   C11418468  -2.131   4.722   7.090 -0.8369  0.4410 -0.0146
   58MOL   C11518469  -2.245   4.802   7.155 -0.8963  0.0162 -0.2364
   58MOL   C11618470  -2.293   4.926   7.107  0.4316 -0.0614  0.1989
   58MOL   C11718471  -2.378   5.008   7.180  0.0180  0.0258  0.6710
   58MOL   C11818472  -2.436   4.956   7.301 -0.4327  0.6997  0.1203
   58MOL   C11918473  -2.532   5.043   7.378  0.5037  0.1657 -0.3649
   58MOL   C12018474  -2.398   4.827   7.338 -0.0912 -0.0621  0.4949
   58MOL   C12118475  -2.306   4.750   7.272 -0.2644 -0.3325  0.1582
   58MOL   H12218476  -2.132   4.619   7.126  2.0290 -0.0699 -1.2581
   58MOL   H12318477  -2.163   4.709   6.987 -1.6448 -1.1599  0.4242
   58MOL   H12418478  -2.255   4.968   7.016  0.8030  0.8591  0.7702
   58MOL   H12518479  -2.415   5.101   7.140 -0.3865  0.2850  1.6192
   58MOL   H12618480  -2.501   5.067   7.480 -1.2000 -0.5070  0.3487
   58MOL   H12718481  -2.546   5.145   7.344 -3.9050 -0.0202  0.5495
   58MOL   H12818482  -2.451   4.787   7.423 -1.8875  3.2511  1.0159
   58MOL   H12918483  -2.273   4.659   7.320  0.1238 -0.1506  0.2348
   58MOL   C13018484  -2.676   4.982   7.400 -0.3627 -0.0164  0.2624
   58MOL   C13118485  -2.763   5.071   7.490  0.1317 -0.2154 -0.3203
   58MOL   C13218486  -2.828   5.189   7.440 -0.3755  0.3010 -0.4126
   58MOL   C13318487  -2.919   5.261   7.515 -0.3831  0.6333 -0.0680
   58MOL   C13418488  -2.946   5.212   7.645  1.5429 -0.0052  0.4585
   58MOL   C13518489  -3.038   5.295   7.735 -0.1737 -0.4529 -0.6325
   58MOL   C13618490  -2.889   5.090   7.693  0.4787 -0.4250 -0.4096
   58MOL   C13718491  -2.801   5.020   7.613  0.7503 -0.4461 -0.5568
   58MOL   H13818492  -2.673   4.880   7.438 -0.5323 -0.6111 -1.2817
   58MOL   H13918493  -2.737   4.969   7.310 -0.4642 -0.6622  0.4212
   58MOL   H14018494  -2.807   5.219   7.338 -0.7447 -0.9577 -0.8713
   58MOL   H14118495  -2.957   5.360   7.494 -1.9898  0.0758  0.1278
   58MOL   H14218496  -3.088   5.368   7.673  0.2495 -1.7607 -2.5442
   58MOL   H14318497  -3.108   5.226   7.783  1.5369 -1.7504  0.0858
   58MOL   H14418498  -2.921   5.052   7.789  0.6748 -0.6638 -0.4357
   58MOL   H14518499  -2.769   4.922   7.645 -0.3810 -0.3571  0.9216
   58MOL   C14618500  -2.959   5.359   7.851 -0.0296  0.2134  0.1072
   58MOL   C14718501  -3.039   5.430   7.956 -0.1795  0.2658 -0.0797
   58MOL   C14818502  -3.063   5.375   8.084  0.0139  0.5032  0.0802
   58MOL   C14918503  -3.141   5.442   8.180 -0.0987  0.2023 -0.0441
   58MOL   C15018504  -3.176   5.576   8.165  0.5641 -0.0738  0.3339
   58MOL   C15118505  -3.240   5.655   8.276 -0.1497 -0.0694  0.0963
   58MOL   C15218506  -3.140   5.644   8.047 -0.3698 -0.4470  0.5876
   58MOL   C15318507  -3.076   5.567   7.944 -0.7632 -0.8337 -1.2054
   58MOL   H15418508  -2.880   5.422   7.811  1.9534 -1.4060  1.3657
   58MOL   H15518509  -2.904   5.283   7.906  0.0505  0.9554  1.0650
   58MOL   H15618510  -3.033   5.273   8.102  0.0724  0.4272 -0.4295
   58MOL   H15718511  -3.162   5.393   8.274 -1.2281  0.0139 -0.3906
   58MOL   H15818512  -3.240   5.600   8.371 -0.2613  0.8442  0.6357
   58MOL   H15918513  -3.203   5.756   8.289  0.0079  0.1151 -1.7811
   58MOL   H16018514  -3.158   5.750   8.032 -0.3380 -0.4128  0.7835
   58MOL   H16118515  -3.033   5.613   7.856  2.3245  0.0565  0.6984
   58MOL   C16218516  -3.386   5.673   8.249 -0.8116  0.1241 -0.2663
   58MOL   C16318517  -3.456   5.731   8.374 -0.2801 -0.1021  0.1642
   58MOL   C16418518  -3.505   5.647   8.469 -0.5277  0.3439  0.2451
   58MOL   C16518519  -3.573   5.692   8.589  0.5925  0.3196  0.7226
   58MOL   C16618520  -3.553   5.828   8.621 -0.3402 -0.6571 -0.1234
   58MOL   C16718521  -3.606   5.875   8.750  0.2218  0.2141  0.7006
   58MOL   C16818522  -3.490   5.915   8.531 -0.2831 -0.1228  0.3804
   58MOL   C16918523  -3.447   5.866   8.405  0.0115  0.0141  0.4780
   58MOL   H17018524  -3.437   5.581   8.222 -0.7134 -0.3392  1.0735
   58MOL   H17118525  -3.401   5.740   8.164  1.0669  0.5426 -0.2791
   58MOL   H17218526  -3.505   5.540   8.452  0.1810  0.2261  0.9802
   58MOL   H17318527  -3.623   5.614   8.644 -1.8834 -0.0907 -2.0050
   58MOL   H17418528  -3.670   5.964   8.749 -1.3269 -0.8919  0.3184
   58MOL   H17518529  -3.672   5.799   8.790  0.0173  0.3621  0.6456
   58MOL   H17618530  -3.500   6.021   8.545 -0.6019  0.0127 -0.8323
   58MOL   H17718531  -3.401   5.933   8.333  0.8336 -1.6530 -0.5680
   58MOL   C17818532  -3.507   5.888   8.867  0.6120 -0.7058  0.2767
   58MOL   C17918533  -3.413   5.765   8.888  0.2565  0.1020 -0.3322
   58MOL   C18018534  -3.275   5.774   8.897 -0.0086  0.3802  0.2165
   58MOL   C18118535  -3.196   5.667   8.938 -0.5879  0.9471  0.1533
   58MOL   C18218536  -3.260   5.544   8.963 -0.4712  0.2666 -1.2149
   58MOL   C18318537  -3.171   5.426   8.988 -0.1796  0.3060 -0.3248
   58MOL   C18418538  -3.397   5.529   8.953 -0.2663 -0.0312 -0.0137
   58MOL   C18518539  -3.476   5.639   8.914  0.2053 -0.2048 -0.8531
   58MOL   H18618540  -3.568   5.887   8.958 -0.9161 -1.0778 -0.7208
   58MOL   H18718541  -3.458   5.985   8.858 -1.4184  0.1951 -1.3289
   58MOL   H18818542  -3.231   5.872   8.891  4.8871 -1.5045  2.2477
   58MOL   H18918543  -3.091   5.684   8.957 -0.7793  1.1411  1.1003
   58MOL   H19018544  -3.123   5.420   8.891 -0.9346 -1.1106 -0.6255
   58MOL   H19118545  -3.107   5.462   9.069 -0.4811  0.1191 -0.0007
   58MOL   H19218546  -3.449   5.435   8.970 -1.6966  0.1318 -3.0081
   58MOL   H19318547  -3.580   5.618   8.896  0.3792 -0.1252 -2.0401
   58MOL   C19418548  -3.240   5.291   9.021 -0.7030  0.0636  0.2086
   58MOL   C19518549  -3.143   5.177   9.010 -0.3059  0.2749 -0.4890
   58MOL   C19618550  -3.115   5.110   9.127 -0.1191  0.2754 -1.0409
   58MOL   C19718551  -3.023   5.005   9.126  0.3839 -0.6622  0.1689
   58MOL   C19818552  -2.951   4.981   9.006 -0.2894 -0.1531 -0.3692
   58MOL   C19918553  -2.825   4.894   9.013  0.0268  0.2843  0.4683
   58MOL   C20018554  -2.984   5.050   8.884 -0.5888  0.3121 -0.8060
   58MOL   C20118555  -3.087   5.138   8.890  0.0622  0.0225 -0.0573
   58MOL   H20218556  -3.331   5.275   8.963 -1.0611 -1.0733  1.0607
   58MOL   H20318557  -3.280   5.301   9.122  0.5819  0.7941  0.6592
   58MOL   H20418558  -3.159   5.148   9.218 -0.3936 -3.4082  0.4818
   58MOL   H20518559  -2.986   4.958   9.215  0.8822 -2.3017 -0.8744
   58MOL   H20618560  -2.813   4.820   9.092  0.4822 -0.4357 -0.2760
   58MOL   H20718561  -2.822   4.849   8.914 -1.2678  0.1056  0.4966
   58MOL   H20818562  -2.926   5.036   8.794  0.3586 -0.9486 -0.0118
   58MOL   H20918563  -3.118   5.191   8.802  1.7483  1.0502 -0.0519
   58MOL   C21018564  -2.699   4.983   9.010 -0.9031 -0.0505  0.0818
   58MOL   C21118565  -2.564   4.911   8.997  0.1064 -0.3519 -0.1539
   58MOL   C21218566  -2.527   4.824   9.099 -0.0726 -0.0557 -0.0461
   58MOL   C21318567  -2.409   4.746   9.089  0.5954 -0.0564 -0.1004
   58MOL   C21418568  -2.330   4.753   8.979 -0.7463  0.5789  0.7487
   58MOL   C21518569  -2.201   4.672   8.965 -0.0370 -0.6130  0.0096
   58MOL   C21618570  -2.363   4.842   8.870  0.1813 -0.3606  0.2286
   58MOL   C21718571  -2.480   4.924   8.883 -0.8437 -0.5915  0.5466
   58MOL   H21818572  -2.681   5.035   9.103  2.0488 -0.8287  0.0033
   58MOL   H21918573  -2.706   5.056   8.930 -0.1818 -1.1321 -0.9930
   58MOL   H22018574  -2.584   4.809   9.189  0.8640  0.1965  0.5922
   58MOL   H22118575  -2.379   4.689   9.175  1.1949  1.7156  0.8860
   58MOL   H22218576  -2.216   4.585   9.029  0.2395 -0.4060  0.3624
   58MOL   H22318577  -2.193   4.644   8.860 -2.1810  1.5918 -0.7829
   58MOL   H22418578  -2.305   4.841   8.779  1.4073  1.2475  0.9621
   58MOL   H22518579  -2.507   4.990   8.802  1.7169  0.7835  0.7555
   58MOL   C22618580  -2.082   4.753   9.013  0.0487  0.2150  0.3327
   58MOL   C22718581  -1.949   4.679   8.996  0.2034 -0.1097 -0.1184
   58MOL   C22818582  -1.838   4.722   8.914 -0.2779  1.1302  0.1497
   58MOL   C22918583  -1.716   4.647   8.918  0.5887  0.6496 -0.9666
   58MOL   C23018584  -1.702   4.536   9.007 -0.1320  0.3956 -0.4837
   58MOL   C23118585  -1.580   4.453   8.999 -0.6571  0.3657 -0.4011
   58MOL   C23218586  -1.809   4.498   9.090 -0.4435 -0.1115 -0.3133
   58MOL   C23318587  -1.927   4.571   9.088 -0.0028 -0.4850  0.3300
   58MOL   H23418588  -2.087   4.790   9.115 -1.1377 -1.0674  0.7537
   58MOL   H23518589  -2.076   4.837   8.944 -1.9497 -1.2527 -1.6964
   58MOL   H23618590  -1.847   4.812   8.856 -0.4489 -0.5046 -2.4254
   58MOL   H23718591  -1.632   4.664   8.854  1.8464 -1.6490  0.0044
   58MOL   H23818592  -1.599   4.353   9.039 -0.2667  0.8788  1.0898
   58MOL   H23918593  -1.576   4.446   8.891  3.2747 -1.5063 -0.2324
   58MOL   H24018594  -1.796   4.417   9.160  2.7304  2.8476  2.7009
   58MOL   H24118595  -2.004   4.529   9.152  0.7825 -0.3391  1.3902
   58MOL   C24218596  -1.455   4.518   9.066 -0.3284  0.1365  0.7627
   58MOL   C24318597  -1.330   4.444   9.018 -0.6651 -0.1072  0.4158
   58MOL   C24418598  -1.279   4.476   8.887  0.4653  0.4790 -0.4484
   58MOL   C24518599  -1.156   4.426   8.848 -0.0034  0.5793 -0.3799
   58MOL   C24618600  -1.094   4.326   8.925 -1.1760  0.4050 -0.4897
   58MOL   C24718601  -0.973   4.259   8.869 -0.4523  0.0821 -0.1599
   58MOL   C24818602  -1.144   4.287   9.053  0.3607  0.0134  0.2369
   58MOL   C24918603  -1.268   4.345   9.095 -0.1390  0.2929 -0.0271
   58MOL   H25018604  -1.452   4.623   9.039  0.5455  0.1912  1.0542
   58MOL   H25118605  -1.469   4.505   9.173 -3.3660 -0.3610  0.3322
   58MOL   H25218606  -1.315   4.555   8.823 -0.7550 -0.5193 -1.0144
   58MOL   H25318607  -1.111   4.456   8.755  0.8461  1.7990  0.4132
   58MOL   H25418608  -0.952   4.167   8.924  0.5441  0.0335 -0.6026
   58MOL   H25518609  -0.986   4.211   8.773  0.6733 -0.3227 -0.1212
   58MOL   H25618610  -1.095   4.218   9.120  0.5545  0.6889  0.7960
   58MOL   H25718611  -1.307   4.326   9.194  2.7102  0.4492  1.1746
   58MOL   C25818612  -0.856   4.358   8.864 -0.7022  0.3901  0.0125
   58MOL   C25918613  -0.730   4.295   8.808  0.1198  0.5514 -0.4326
   58MOL   C26018614  -0.660   4.363   8.711  0.4985 -0.1550 -0.1851
   58MOL   C26118615  -0.547   4.308   8.654 -0.1565  0.1476  0.2855
   58MOL   C26218616  -0.501   4.180   8.692 -0.4393 -0.2085  0.0718
   58MOL   C26318617  -0.381   4.118   8.626  0.1620  0.8218  0.0865
   58MOL   C26418618  -0.567   4.110   8.787 -0.6956  0.1136 -0.2605
   58MOL   C26518619  -0.678   4.167   8.853 -0.6984  0.9230  0.3100
   58MOL   H26618620  -0.839   4.389   8.967 -1.9682 -0.8968  0.6273
   58MOL   H26718621  -0.870   4.443   8.797  0.5617  0.8725  0.3464
   58MOL   H26818622  -0.689   4.464   8.685 -1.8082 -0.6337  0.4139
   58MOL   H26918623  -0.500   4.359   8.571 -0.0709  1.1072  0.9171
   58MOL   H27018624  -0.405   4.013   8.607 -3.8085  1.8982 -1.4254
   58MOL   H27118625  -0.379   4.170   8.530 -0.6055  0.7932  0.0542
   58MOL   H27218626  -0.535   4.011   8.817  0.7469  0.3015 -1.1696
   58MOL   H27318627  -0.724   4.106   8.930 -0.9585 -0.0293 -0.5899
   58MOL   C27418628  -0.253   4.135   8.708 -0.4028  0.3912  0.7175
   58MOL   C27518629  -0.135   4.065   8.639 -0.5963 -0.2511 -0.4301
   58MOL   C27618630  -0.092   3.939   8.680 -1.2787 -0.2113  0.8967
   58MOL   C27718631   0.016   3.870   8.608  0.0177  0.2204 -0.4672
   58MOL   C27818632   0.092   3.939   8.514 -0.5400 -0.6488  0.6035
   58MOL   C27918633   0.227   3.893   8.459  1.2910 -0.7720  0.4965
   58MOL   C28018634   0.049   4.068   8.473  0.3667 -1.0295 -0.3922
   58MOL   C28118635  -0.063   4.129   8.533  0.1514  0.2028  0.5296
   58MOL   H28218636  -0.226   4.241   8.706  1.3736 -0.0594 -0.8068
   58MOL   H28318637  -0.259   4.092   8.808  0.1347 -0.0242  0.5709
   58MOL   H28418638  -0.146   3.898   8.764 -1.9893 -0.9375  0.1021
   58MOL   H28518639   0.043   3.772   8.646 -0.3100 -0.8636 -2.9702
   58MOL   H28618640   0.230   3.785   8.450  2.0265 -0.7011 -0.1662
   58MOL   H28718641   0.231   3.936   8.359  0.2235  0.8910  1.1434
   58MOL   H28818642   0.108   4.123   8.401 -0.9969  1.9399  0.6823
   58MOL   H28918643  -0.095   4.224   8.492  1.9220  0.3265 -0.6154
   58MOL   C29018644   0.346   3.943   8.545  0.2483  0.1801 -0.2845
   58MOL   C29118645   0.475   3.897   8.491  0.3378 -0.1109 -1.0331
   58MOL   C29218646   0.514   3.767   8.531  0.4229  0.5230  0.3642
   58MOL   C29318647   0.633   3.711   8.474  0.4399  0.0843  0.5555
   58MOL   C29418648   0.709   3.790   8.381  0.1000 -0.2207 -0.1349
   58MOL   C29518649   0.833   3.736   8.316 -0.0153 -0.0309  0.3897
   58MOL   C29618650   0.665   3.917   8.346  0.3463  0.2832 -0.0206
   58MOL   C29718651   0.557   3.975   8.409  0.7696  0.6700  0.3721
   58MOL   H29818652   0.331   3.922   8.651 -0.8267 -0.0638 -0.4760
   58MOL   H29918653   0.355   4.052   8.538  0.6697  0.2446  1.1908
   58MOL   H30018654   0.457   3.712   8.605  2.6677 -0.4886  1.4147
   58MOL   H30118655   0.672   3.613   8.494  0.5288  0.4940  2.5312
   58MOL   H30218656   0.818   3.634   8.279  2.2377  0.2137 -1.3497
   58MOL   H30318657   0.845   3.802   8.230  0.4649 -1.2649 -0.4948
   58MOL   H30418658   0.726   3.983   8.285 -2.3482  2.6947 -0.2081
   58MOL   H30518659   0.538   4.078   8.383 -0.6367  0.7920  1.8845
   58MOL   C30618660   0.950   3.745   8.417 -0.2743  0.0300 -0.1367
   58MOL   C30718661   1.077   3.715   8.341  0.7000  0.4059  0.5788
   58MOL   C30818662   1.119   3.582   8.343 -0.0818  0.2488  0.0504
   58MOL   C30918663   1.235   3.545   8.275 -0.8776  0.3451 -0.1194
   58MOL   C31018664   1.310   3.645   8.212 -0.2769  0.1958  0.2484
   58MOL   C31118665   1.442   3.603   8.144  0.3449 -0.4646  0.5075
   58MOL   C31218666   1.277   3.783   8.230 -0.1654 -0.0402  0.1874
   58MOL   C31318667   1.152   3.820   8.284  0.1550  0.0232 -0.1943
   58MOL   H31418668   0.941   3.682   8.505 -2.4938  0.2873 -0.1384
   58MOL   H31518669   0.947   3.846   8.457 -2.0040  0.3229 -0.9571
   58MOL   H31618670   1.045   3.515   8.383 -1.1737  0.4464 -1.5991
   58MOL   H31718671   1.265   3.442   8.265  1.4797  0.8575  1.0781
   58MOL   H31818672   1.484   3.679   8.078 -0.6341  0.0347  0.4496
   58MOL   H31918673   1.505   3.590   8.233  1.3678  1.9834  0.1852
   58MOL   H32018674   1.346   3.854   8.187 -0.7349  0.1890 -0.3522
   58MOL   H32118675   1.115   3.922   8.286 -1.1710 -0.4146 -1.7121
   58MOL   H32218676   1.438   3.508   8.091  0.7571  0.1548 -0.6445
   59MOL     C118677   2.781   0.213   4.223 -0.6345 -0.4692 -0.0850
   59MOL     C218678   2.633   0.257   4.212  0.2983  0.3152 -0.6761
   59MOL     C318679   2.600   0.343   4.106 -0.1751 -0.1925  0.2974
   59MOL     C418680   2.468   0.395   4.096 -0.1278 -0.3452 -0.1312
   59MOL     C518681   2.378   0.370   4.202 -0.0501 -0.0835 -0.3709
   59MOL     C618682   2.239   0.437   4.198 -0.5835 -0.4594  0.5136
   59MOL     C718683   2.409   0.278   4.302 -0.0945 -0.4181  0.6687
   59MOL     C818684   2.538   0.224   4.313 -0.1517 -0.1564  0.0130
   59MOL     H918685   2.794   0.117   4.174  2.5445 -0.7189  1.1263
   59MOL    H1018686   2.848   0.280   4.169 -1.7550  2.2668  1.7920
   59MOL    H1118687   2.676   0.372   4.035 -1.4098 -0.3932 -1.1452
   59MOL    H1218688   2.445   0.463   4.016  0.0457 -1.8562 -1.4890
   59MOL    H1318689   2.227   0.469   4.095  1.0433 -2.2827 -0.2580
   59MOL    H1418690   2.160   0.362   4.203 -0.1993 -0.8323  1.0654
   59MOL    H1518691   2.336   0.249   4.376 -0.0250 -0.5633  0.6797
   59MOL    H1618692   2.567   0.155   4.391 -0.7490 -0.2624  0.1438
   59MOL    H1718693   2.816   0.205   4.326  0.4116  0.5317 -0.3511
   59MOL    C1818694   2.221   0.539   4.310 -0.9654 -0.0446 -1.1089
   59MOL    C1918695   2.084   0.597   4.320  0.3172  0.1716 -0.0258
   59MOL    C2018696   2.057   0.737   4.310  0.1092 -0.1610 -0.0616
   59MOL    C2118697   1.924   0.781   4.320 -0.4083 -0.4748  0.4527
   59MOL    C2218698   1.812   0.690   4.333  0.0360 -0.4191 -0.2787
   59MOL    C2318699   1.667   0.739   4.322 -0.3165  0.6635 -0.4626
   59MOL    C2418700   1.841   0.549   4.343 -0.2247  0.5650  0.5738
   59MOL    C2518701   1.975   0.511   4.345 -0.0153  0.2538  0.0117
   59MOL    H2618702   2.262   0.498   4.402 -0.6429  0.2292 -1.1315
   59MOL    H2718703   2.278   0.628   4.285 -2.0078  0.0087 -3.4961
   59MOL    H2818704   2.135   0.809   4.293  0.3132 -0.8805 -2.3630
   59MOL    H2918705   1.904   0.887   4.318 -1.4957 -0.7038 -1.0835
   59MOL    H3018706   1.625   0.677   4.243 -0.9730 -0.5244  0.8048
   59MOL    H3118707   1.676   0.840   4.284  0.7307  0.0413 -1.9165
   59MOL    H3218708   1.762   0.477   4.353  2.1696 -2.3287 -0.4253
   59MOL    H3318709   2.001   0.409   4.367 -0.0279  0.5179  1.2881
   59MOL    C3418710   1.592   0.721   4.457 -0.2687 -0.2574  0.0626
   59MOL    C3518711   1.448   0.769   4.453  0.0116  0.3574  0.3788
   59MOL    C3618712   1.340   0.674   4.470  0.0725  0.1665  0.2411
   59MOL    C3718713   1.209   0.722   4.469  0.2721 -0.0067 -0.7511
   59MOL    C3818714   1.183   0.860   4.450  0.5790  0.1930  0.1629
   59MOL    C3918715   1.042   0.921   4.456  0.1096 -0.5531 -0.5854
   59MOL    C4018716   1.291   0.949   4.436  1.1817  0.1276 -0.5200
   59MOL    C4118717   1.420   0.907   4.433 -0.3542  0.2301  0.0056
   59MOL    H4218718   1.655   0.772   4.530 -2.1184  0.6514  1.0495
   59MOL    H4318719   1.604   0.619   4.492  1.6077  0.3673  1.3366
   59MOL    H4418720   1.360   0.570   4.491  0.8308  0.1513 -0.4820
   59MOL    H4518721   1.121   0.660   4.480  0.5054 -0.0718  0.8568
   59MOL    H4618722   1.033   0.973   4.361  0.7575 -2.9105 -1.9737
   59MOL    H4718723   0.968   0.841   4.454 -0.7343  0.2096 -0.3597
   59MOL    H4818724   1.280   1.055   4.424  0.2588  0.1709  0.5927
   59MOL    H4918725   1.500   0.979   4.429 -3.0791  3.3383 -0.2771
   59MOL    C5018726   1.018   1.021   4.569 -0.0250 -0.3656 -0.4249
   59MOL    C5118727   0.884   1.097   4.565 -0.2470  0.1514  0.4671
   59MOL    C5218728   0.765   1.030   4.597  0.5707 -0.5281 -0.0112
   59MOL    C5318729   0.648   1.108   4.587 -0.3869 -0.2615 -0.3223
   59MOL    C5418730   0.652   1.248   4.563 -0.3087  0.2331 -0.6694
   59MOL    C5518731   0.522   1.320   4.547  0.5659  0.4284  0.1469
   59MOL    C5618732   0.770   1.315   4.545  0.4958 -0.0976  0.7284
   59MOL    C5718733   0.887   1.237   4.543 -0.2408 -0.0491  0.3234
   59MOL    H5818734   1.100   1.092   4.573  0.9165 -1.4624 -0.1664
   59MOL    H5918735   1.030   0.961   4.659 -1.0590 -2.2909 -1.5447
   59MOL    H6018736   0.760   0.926   4.625 -0.9894 -0.4023  0.2659
   59MOL    H6118737   0.553   1.068   4.618  0.6041  0.4346  3.8929
   59MOL    H6218738   0.525   1.400   4.473 -2.1680  0.5862  0.1656
   59MOL    H6318739   0.450   1.250   4.507  0.7051 -0.6326  1.7083
   59MOL    H6418740   0.777   1.422   4.543  0.6984 -0.1219  0.0344
   59MOL    H6518741   0.981   1.288   4.524  0.6158 -1.5013  0.5979
   59MOL    C6618742   0.461   1.365   4.681  0.3033 -0.4418 -0.3278
   59MOL    C6718743   0.324   1.410   4.660 -0.2261  0.8040  0.0372
   59MOL    C6818744   0.298   1.546   4.622 -0.1328 -0.6553  0.1088
   59MOL    C6918745   0.170   1.590   4.598 -0.8164 -0.2439 -0.2959
   59MOL    C7018746   0.061   1.501   4.617 -0.1923 -0.1275 -0.3130
   59MOL    C7118747  -0.071   1.564   4.593 -0.9537  0.3032 -0.6233
   59MOL    C7218748   0.091   1.365   4.649 -0.0247  0.5789 -0.0644
   59MOL    C7318749   0.218   1.324   4.676 -0.2335 -0.1487 -0.0733
   59MOL    H7418750   0.521   1.448   4.720 -0.1672  0.2236 -0.9960
   59MOL    H7518751   0.465   1.284   4.753 -1.0957 -0.5360 -0.3351
   59MOL    H7618752   0.380   1.614   4.603 -0.3828 -0.2101  0.6392
   59MOL    H7718753   0.160   1.695   4.572  1.4720  0.2102  0.5006
   59MOL    H7818754  -0.105   1.523   4.498 -0.9618  0.2356 -0.5917
   59MOL    H7918755  -0.065   1.668   4.561 -2.0513  0.2134 -1.1547
   59MOL    H8018756   0.015   1.291   4.667  0.1390 -0.0021 -1.7141
   59MOL    H8118757   0.243   1.223   4.704  1.3185  0.0978 -0.5328
   59MOL    C8218758  -0.184   1.517   4.693 -0.0817 -0.5328 -0.1927
   59MOL    C8318759  -0.317   1.574   4.654  1.3209 -0.9463  1.2499
   59MOL    C8418760  -0.375   1.668   4.742 -0.6409 -0.1701  0.1252
   59MOL    C8518761  -0.495   1.725   4.708  0.7448  0.0239 -0.0432
   59MOL    C8618762  -0.557   1.695   4.586  0.0353  0.4957  0.4201
   59MOL    C8718763  -0.696   1.757   4.568 -1.0580  0.2170 -0.1876
   59MOL    C8818764  -0.506   1.601   4.495  0.0186 -0.5548 -0.2858
   59MOL    C8918765  -0.384   1.543   4.533 -0.9785 -0.0294  0.6542
   59MOL    H9018766  -0.162   1.541   4.796  0.7461 -0.3113 -0.4165
   59MOL    H9118767  -0.182   1.409   4.676  2.4012 -0.3078 -1.6503
   59MOL    H9218768  -0.325   1.691   4.835 -1.4786  1.2000  0.2490
   59MOL    H9318769  -0.552   1.790   4.772  1.6201  1.9674 -1.1915
   59MOL    H9418770  -0.727   1.756   4.463 -0.3345  3.5960 -0.5118
   59MOL    H9518771  -0.687   1.863   4.593  0.6907  0.5505 -2.0356
   59MOL    H9618772  -0.551   1.573   4.400 -0.0995  2.7355 -1.2528
   59MOL    H9718773  -0.337   1.478   4.460 -2.7586 -1.3664  0.6708
   59MOL    C9818774  -0.808   1.687   4.656 -0.4084 -0.3826 -0.1094
   59MOL    C9918775  -0.939   1.758   4.661  0.0541 -0.3144  0.3552
   59MOL   C10018776  -0.992   1.807   4.778  0.3137  0.5251 -0.0887
   59MOL   C10118777  -1.125   1.860   4.780 -1.7095 -0.2620 -0.1153
   59MOL   C10218778  -1.188   1.904   4.659  0.6858 -0.0147  0.5643
   59MOL   C10318779  -1.315   1.978   4.665  0.1864 -0.2332  0.6237
   59MOL   C10418780  -1.125   1.872   4.539  0.5424  0.6467 -0.3039
   59MOL   C10518781  -1.006   1.793   4.540  0.0883 -0.2214 -0.1259
   59MOL   H10618782  -0.772   1.661   4.755 -0.0175 -2.8399 -0.8566
   59MOL   H10718783  -0.837   1.591   4.613 -3.3788  0.1030  0.6872
   59MOL   H10818784  -0.935   1.787   4.867  2.1246 -1.0572 -1.5716
   59MOL   H10918785  -1.166   1.883   4.877 -0.7718 -0.7710  0.4133
   59MOL   H11018786  -1.316   2.043   4.753  0.4981 -0.0097  0.4644
   59MOL   H11118787  -1.321   2.049   4.582 -2.3007  2.0856  2.6848
   59MOL   H11218788  -1.179   1.899   4.449 -1.8590  1.9983  1.4977
   59MOL   H11318789  -0.954   1.754   4.453  0.1169 -1.4090  0.4210
   59MOL   C11418790  -1.436   1.880   4.662  0.4140 -0.0758 -0.1754
   59MOL   C11518791  -1.571   1.951   4.690  0.5003  0.3962  0.4890
   59MOL   C11618792  -1.604   1.997   4.812  0.0030 -0.6749  0.0561
   59MOL   C11718793  -1.718   2.081   4.832  0.7647 -0.5366  0.0819
   59MOL   C11818794  -1.808   2.088   4.716 -0.7650  0.2792  0.0420
   59MOL   C11918795  -1.932   2.173   4.721  0.3981  0.0528 -0.6668
   59MOL   C12018796  -1.777   2.037   4.589 -0.4006 -0.3083  0.2688
   59MOL   C12118797  -1.655   1.966   4.576  0.5295  0.8589  0.4152
   59MOL   H12218798  -1.433   1.801   4.736  1.5955  0.6581  0.5814
   59MOL   H12318799  -1.439   1.834   4.563 -0.7432  0.6506 -0.4878
   59MOL   H12418800  -1.538   1.975   4.894 -0.7564 -0.3713  0.7675
   59MOL   H12518801  -1.750   2.125   4.925  0.9637  0.0419 -0.1175
   59MOL   H12618802  -1.929   2.274   4.762 -2.7880 -0.2855  0.5293
   59MOL   H12718803  -1.972   2.190   4.621 -3.1968  1.3013  0.9020
   59MOL   H12818804  -1.832   2.048   4.497 -0.3011 -2.0278 -0.0212
   59MOL   H12918805  -1.631   1.940   4.474  0.5874 -0.5017  0.7711
   59MOL   C13018806  -2.050   2.095   4.786  0.2569 -0.3158  0.7926
   59MOL   C13118807  -2.181   2.170   4.793 -0.0264 -0.4277 -0.1176
   59MOL   C13218808  -2.232   2.224   4.916  0.2209 -0.2105  0.3015
   59MOL   C13318809  -2.356   2.291   4.928  0.1823 -0.5380  0.2455
   59MOL   C13418810  -2.431   2.303   4.813 -0.2857  0.1780 -0.3148
   59MOL   C13518811  -2.561   2.383   4.816  0.4921  0.4334  0.1454
   59MOL   C13618812  -2.385   2.247   4.691 -0.8246 -0.7905  0.2558
   59MOL   C13718813  -2.263   2.179   4.681  1.0031 -0.4814 -0.4985
   59MOL   H13818814  -2.021   2.058   4.885  0.2540 -0.1233  0.8645
   59MOL   H13918815  -2.061   2.002   4.729  0.5429 -0.4253  0.9137
   59MOL   H14018816  -2.171   2.210   5.003  1.0123 -0.1079 -0.2312
   59MOL   H14118817  -2.384   2.344   5.018  1.0245 -0.6320  0.5723
   59MOL   H14218818  -2.552   2.480   4.864  0.5739 -0.1698  1.3541
   59MOL   H14318819  -2.599   2.406   4.716  0.4791  0.0242  0.0554
   59MOL   H14418820  -2.453   2.240   4.607 -0.7652 -0.8639  0.2157
   59MOL   H14518821  -2.235   2.132   4.588 -0.3767 -0.5989 -0.8655
   59MOL   C14618822  -2.667   2.304   4.900 -0.0510 -0.2609 -0.2527
   59MOL   C14718823  -2.796   2.373   4.915  0.4631 -0.8335 -0.0096
   59MOL   C14818824  -2.839   2.434   5.039  0.9892  0.3188 -0.0345
   59MOL   C14918825  -2.962   2.498   5.045  0.3315 -0.0091 -0.4215
   59MOL   C15018826  -3.040   2.513   4.928 -0.2369  0.6626 -0.1718
   59MOL   C15118827  -3.168   2.586   4.932  0.2168 -0.0380  0.7882
   59MOL   C15218828  -2.994   2.460   4.801 -0.1902  0.2799 -0.0256
   59MOL   C15318829  -2.875   2.392   4.800  0.0357 -0.4527  0.3690
   59MOL   H15418830  -2.619   2.286   4.996  0.0057  1.5285  0.0750
   59MOL   H15518831  -2.693   2.210   4.851  1.6389 -0.7150 -0.3096
   59MOL   H15618832  -2.768   2.415   5.119 -1.2924  0.3331  2.0394
   59MOL   H15718833  -3.002   2.533   5.139 -0.3653 -0.5496 -0.5077
   59MOL   H15818834  -3.137   2.673   4.991 -2.2976  1.9900 -0.7804
   59MOL   H15918835  -3.206   2.611   4.833 -1.6062 -0.8163  1.2629
   59MOL   H16018836  -3.047   2.486   4.711  2.5981 -0.0155 -1.8065
   59MOL   H16118837  -2.841   2.356   4.704  0.4938 -0.6992  0.6272
   59MOL   C16218838  -3.273   2.505   5.012  0.6790 -0.6457  0.2625
   59MOL   C16318839  -3.375   2.596   5.057 -0.1144  0.6541 -0.5417
   59MOL   C16418840  -3.471   2.646   4.965 -0.4529 -0.8660 -0.3040
   59MOL   C16518841  -3.565   2.742   5.001  1.0104  0.3423 -0.0780
   59MOL   C16618842  -3.565   2.801   5.129 -0.3863  1.0202  0.2516
   59MOL   C16718843  -3.652   2.917   5.148 -0.2266 -0.0807 -0.5264
   59MOL   C16818844  -3.461   2.756   5.220 -0.0927 -0.7007 -0.1615
   59MOL   C16918845  -3.383   2.638   5.192 -0.1241  0.2465  1.4528
   59MOL   H17018846  -3.224   2.453   5.094  1.8948  1.7431  1.1044
   59MOL   H17118847  -3.316   2.441   4.935  1.8487  1.4787 -2.2543
   59MOL   H17218848  -3.477   2.604   4.865  1.4751 -1.2368 -0.2719
   59MOL   H17318849  -3.627   2.783   4.922  0.9451 -0.4025 -0.4113
   59MOL   H17418850  -3.748   2.905   5.099 -1.2882 -1.0993  1.7436
   59MOL   H17518851  -3.680   2.934   5.252 -0.0799  0.4760 -0.5779
   59MOL   H17618852  -3.453   2.796   5.320  2.6303 -1.7952  0.1208
   59MOL   H17718853  -3.313   2.607   5.268  1.7321 -1.0778 -0.7311
   59MOL   C17818854  -3.580   3.046   5.090 -0.3229  0.8010  0.4402
   59MOL   C17918855  -3.658   3.176   5.092 -0.2959  0.3779 -0.8030
   59MOL   C18018856  -3.719   3.223   5.212  0.2369  0.0132 -0.0713
   59MOL   C18118857  -3.789   3.345   5.207 -0.9360  0.7184  0.4871
   59MOL   C18218858  -3.798   3.418   5.088  1.0883  0.0179 -0.1016
   59MOL   C18318859  -3.892   3.543   5.077 -0.6664  0.4341  0.8150
   59MOL   C18418860  -3.730   3.372   4.973  0.3126  0.6295 -0.2068
   59MOL   C18518861  -3.672   3.245   4.968  0.5785  0.0057  0.0833
   59MOL   H18618862  -3.556   3.006   4.991  0.7593 -0.6045  1.2450
   59MOL   H18718863  -3.483   3.065   5.136  0.2457  0.4961 -0.6113
   59MOL   H18818864  -3.707   3.168   5.304  0.8679  0.3311  0.0446
   59MOL   H18918865  -3.833   3.384   5.298 -0.8643  2.6754 -0.2913
   59MOL   H19018866  -3.894   3.566   4.970  0.8195 -0.3649  0.5894
   59MOL   H19118867  -3.989   3.506   5.108 -0.1481 -1.6625 -0.0074
   59MOL   H19218868  -3.723   3.431   4.883  1.6452  1.7147  0.5863
   59MOL   H19318869  -3.632   3.212   4.874 -0.8188 -0.6303 -0.2978
   59MOL   C19418870  -3.846   3.655   5.169 -0.2891  0.5474 -0.2061
   59MOL   C19518871  -3.695   3.699   5.169 -0.0464 -0.2882  0.7221
   59MOL   C19618872  -3.638   3.800   5.088 -0.3764  0.0835 -0.4437
   59MOL   C19718873  -3.498   3.822   5.099  0.1611  0.2663  0.1150
   59MOL   C19818874  -3.416   3.749   5.188  0.2947  0.3856 -0.0796
   59MOL   C19918875  -3.270   3.786   5.195  0.3600 -0.4125 -0.2588
   59MOL   C20018876  -3.478   3.658   5.275  1.0452  0.2032 -0.3061
   59MOL   C20118877  -3.617   3.629   5.261 -0.8077  0.0433  0.6620
   59MOL   H20218878  -3.884   3.628   5.268  0.8261  1.0803  0.3813
   59MOL   H20318879  -3.902   3.745   5.145 -0.0686  0.8334  0.3288
   59MOL   H20418880  -3.702   3.851   5.018 -0.6157 -0.2477 -0.4665
   59MOL   H20518881  -3.455   3.903   5.042  0.1462 -1.6281 -2.6683
   59MOL   H20618882  -3.219   3.692   5.217  0.5419  0.1854  2.0211
   59MOL   H20718883  -3.236   3.819   5.097 -0.0217 -1.5897 -0.7978
   59MOL   H20818884  -3.427   3.606   5.354 -0.0880  0.0788  0.3542
   59MOL   H20918885  -3.664   3.551   5.319 -1.3657  0.7991  1.2374
   59MOL   C21018886  -3.254   3.890   5.306 -0.3254  0.2325  0.1730
   59MOL   C21118887  -3.106   3.924   5.325  0.4918  0.0574 -0.2726
   59MOL   C21218888  -3.027   3.962   5.218  0.3752  0.5960  0.3506
   59MOL   C21318889  -2.891   3.979   5.232 -0.5280  0.3618 -0.2882
   59MOL   C21418890  -2.825   3.956   5.357 -0.1666  0.6257  0.2059
   59MOL   C21518891  -2.675   3.974   5.372 -0.0825  0.1586  0.1410
   59MOL   C21618892  -2.905   3.933   5.469  0.0470 -0.4311  0.3164
   59MOL   C21718893  -3.042   3.914   5.453  0.0003  0.3321  1.2751
   59MOL   H21818894  -3.309   3.859   5.395 -1.0755  1.3794  0.1155
   59MOL   H21918895  -3.309   3.977   5.271  0.6394 -0.0788 -2.2279
   59MOL   H22018896  -3.065   3.970   5.117 -0.1892  1.7597  0.6485
   59MOL   H22118897  -2.838   3.997   5.139  0.0289 -1.6809 -0.4042
   59MOL   H22218898  -2.650   4.065   5.427 -0.6828 -0.1097  0.8759
   59MOL   H22318899  -2.633   3.892   5.429 -1.1803  0.0783  0.8523
   59MOL   H22418900  -2.867   3.927   5.570  0.1797 -1.3370  0.2121
   59MOL   H22518901  -3.107   3.896   5.537  0.5258 -1.0771  1.3910
   59MOL   C22618902  -2.602   3.979   5.241 -0.1737 -0.0268  0.0607
   59MOL   C22718903  -2.459   4.006   5.283  0.2422  0.2339 -0.0235
   59MOL   C22818904  -2.378   3.896   5.335  0.3777  0.1372 -1.0215
   59MOL   C22918905  -2.243   3.921   5.357 -0.4568 -0.3857  0.3487
   59MOL   C23018906  -2.187   4.046   5.325 -0.8546 -0.3210  0.3720
   59MOL   C23118907  -2.042   4.064   5.353 -0.1073 -0.6918 -0.9197
   59MOL   C23218908  -2.260   4.151   5.284 -0.0990  0.4944 -0.1348
   59MOL   C23318909  -2.397   4.131   5.260  0.9613  0.1368  0.5458
   59MOL   H23418910  -2.633   4.051   5.166  2.0420  0.2694 -0.6033
   59MOL   H23518911  -2.611   3.884   5.188  1.5851  0.6472 -1.4841
   59MOL   H23618912  -2.428   3.803   5.355 -2.4048  1.7432 -0.1861
   59MOL   H23718913  -2.189   3.832   5.388 -0.9612 -0.8469 -0.0873
   59MOL   H23818914  -2.003   3.977   5.406  2.4433  0.9431 -0.0195
   59MOL   H23918915  -2.003   4.051   5.252  0.0109  0.9449 -1.0877
   59MOL   H24018916  -2.217   4.250   5.274 -0.3199  0.5162 -0.9433
   59MOL   H24118917  -2.452   4.210   5.212 -1.7493 -1.2213  1.3419
   59MOL   C24218918  -1.993   4.196   5.419  0.4842  0.6513 -0.1587
   59MOL   C24318919  -1.846   4.204   5.441  0.3812 -0.2238  0.4333
   59MOL   C24418920  -1.748   4.133   5.363  0.5458 -0.4391 -0.1795
   59MOL   C24518921  -1.613   4.131   5.388  0.0113 -0.1529  0.3218
   59MOL   C24618922  -1.569   4.199   5.503  0.2150  0.0205 -1.0372
   59MOL   C24718923  -1.419   4.196   5.530 -0.2497  0.0451 -0.5335
   59MOL   C24818924  -1.662   4.260   5.593 -0.2007  0.2484  0.2260
   59MOL   C24918925  -1.797   4.266   5.560  0.5598 -0.3194  0.2609
   59MOL   H25018926  -2.022   4.285   5.363  1.7236  1.3480  0.2828
   59MOL   H25118927  -2.044   4.204   5.515 -0.8221  1.9794 -0.9494
   59MOL   H25218928  -1.785   4.088   5.272 -1.1028  1.1215 -0.3080
   59MOL   H25318929  -1.543   4.081   5.323 -1.0087 -0.6651 -0.3920
   59MOL   H25418930  -1.396   4.157   5.629  2.4167  0.8483 -0.7928
   59MOL   H25518931  -1.361   4.128   5.469  1.2058 -0.7599  1.6982
   59MOL   H25618932  -1.632   4.311   5.683 -0.2624  0.4379  0.1383
   59MOL   H25718933  -1.864   4.322   5.623  1.3381  1.6748 -0.6247
   59MOL   C25818934  -1.353   4.334   5.506  0.4273 -0.0647 -0.2466
   59MOL   C25918935  -1.202   4.360   5.533  0.1698 -0.0118 -0.0751
   59MOL   C26018936  -1.115   4.323   5.431 -0.4491 -0.3422  0.1154
   59MOL   C26118937  -0.973   4.331   5.443  0.9290  0.1278  0.6223
   59MOL   C26218938  -0.924   4.388   5.564 -0.2367  0.1604  0.0388
   59MOL   C26318939  -0.776   4.409   5.580  0.2205  0.1253  0.7991
   59MOL   C26418940  -1.010   4.433   5.661 -0.2561  0.3341  0.2404
   59MOL   C26518941  -1.149   4.413   5.651 -0.3600 -0.0366 -0.0286
   59MOL   H26618942  -1.407   4.408   5.566  2.6987  0.1486  1.6152
   59MOL   H26718943  -1.367   4.368   5.403 -1.8037 -1.4423 -0.4194
   59MOL   H26818944  -1.152   4.290   5.336  2.8721 -0.1277 -1.3375
   59MOL   H26918945  -0.914   4.295   5.360  1.5568 -0.5517  1.3561
   59MOL   H27018946  -0.742   4.475   5.500  0.5833  0.7323  1.4421
   59MOL   H27118947  -0.752   4.468   5.669  3.2184  0.5807 -0.2796
   59MOL   H27218948  -0.978   4.486   5.749  1.5575 -0.7119  0.2334
   59MOL   H27318949  -1.214   4.454   5.727 -0.9304  1.9413 -1.5322
   59MOL   C27418950  -0.700   4.278   5.590 -0.2091  0.9336  0.4650
   59MOL   C27518951  -0.558   4.303   5.554  0.0670  0.0420  0.1247
   59MOL   C27618952  -0.481   4.347   5.667 -0.1243 -0.2544  0.1777
   59MOL   C27718953  -0.342   4.363   5.646 -0.1641 -0.2430  0.2604
   59MOL   C27818954  -0.278   4.330   5.521 -0.6152  0.1079 -0.2485
   59MOL   C27918955  -0.125   4.347   5.498 -0.1060  0.0820  0.7764
   59MOL   C28018956  -0.362   4.284   5.416 -0.3332  0.2991 -0.0639
   59MOL   C28118957  -0.503   4.261   5.433  0.3667  0.1400  0.0014
   59MOL   H28218958  -0.705   4.237   5.691 -0.1154 -1.3492 -0.4278
   59MOL   H28318959  -0.743   4.202   5.524 -2.3483  1.4963  1.1482
   59MOL   H28418960  -0.532   4.361   5.761 -0.5201 -1.4349  0.1497
   59MOL   H28518961  -0.278   4.393   5.727 -0.4341  1.3336 -0.1074
   59MOL   H28618962  -0.101   4.407   5.410 -2.3301 -2.2270 -1.4825
   59MOL   H28718963  -0.092   4.407   5.583 -2.1123  3.3702 -0.6766
   59MOL   H28818964  -0.312   4.256   5.324  0.8312 -0.5275  0.8070
   59MOL   H28918965  -0.566   4.229   5.351  0.3112  0.7831 -0.2091
   59MOL   C29018966  -0.043   4.215   5.495  0.4848 -0.0820 -0.2021
   59MOL   C29118967   0.103   4.245   5.512 -0.2723 -0.0717  0.1817
   59MOL   C29218968   0.169   4.209   5.636 -0.9983  0.4615 -0.2261
   59MOL   C29318969   0.311   4.228   5.643  0.2070  0.6121  0.0010
   59MOL   C29418970   0.382   4.281   5.532  0.1791 -0.1265 -0.0301
   59MOL   C29518971   0.530   4.300   5.545 -0.2782 -0.5871  0.2640
   59MOL   C29618972   0.312   4.313   5.413  0.8642  0.4174  0.3483
   59MOL   C29718973   0.173   4.303   5.402  0.7805 -0.0809 -0.5105
   59MOL   H29818974  -0.064   4.149   5.410  0.4300  0.1895 -0.3995
   59MOL   H29918975  -0.074   4.148   5.575  0.6437  1.6243  1.3062
   59MOL   H30018976   0.119   4.144   5.706 -1.7403 -0.0667 -1.2294
   59MOL   H30118977   0.367   4.202   5.733  2.0055  0.6892 -1.0617
   59MOL   H30218978   0.565   4.199   5.568 -0.1335 -0.3294  1.2243
   59MOL   H30318979   0.563   4.338   5.449  0.4547 -1.2270  0.2542
   59MOL   H30418980   0.346   4.334   5.313  0.4840 -1.4335 -0.1907
   59MOL   H30518981   0.131   4.336   5.308  2.3895  0.9126 -0.9043
   59MOL   C30618982   0.583   4.403   5.657 -0.1030 -0.1292  0.3510
   59MOL   C30718983   0.733   4.428   5.662 -0.0072  0.5290  0.1740
   59MOL   C30818984   0.779   4.535   5.742  0.5432  0.5273 -0.2629
   59MOL   C30918985   0.915   4.562   5.752  0.0505 -0.0059  0.4598
   59MOL   C31018986   1.013   4.485   5.685  0.5802 -0.2835 -0.4367
   59MOL   C31118987   1.160   4.508   5.713  0.0962 -0.2266 -0.7259
   59MOL   C31218988   0.963   4.365   5.619 -0.1033 -0.2836 -0.1796
   59MOL   C31318989   0.824   4.340   5.603 -0.2346  0.9180 -0.3347
   59MOL   H31418990   0.551   4.354   5.749 -0.6000  0.2662  0.3866
   59MOL   H31518991   0.537   4.501   5.640 -0.2106 -0.6796 -2.9383
   59MOL   H31618992   0.720   4.607   5.796 -0.4990  0.6802 -1.5734
   59MOL   H31718993   0.942   4.642   5.819 -2.6577  0.7950  0.6876
   59MOL   H31818994   1.224   4.425   5.683 -0.8525 -0.3963 -2.4062
   59MOL   H31918995   1.204   4.595   5.666  1.4893 -0.0650  0.8472
   59MOL   H32018996   1.036   4.297   5.578 -0.2351 -0.1932 -0.5632
   59MOL   H32118997   0.797   4.255   5.543  0.5725  0.6561 -0.3388
   59MOL   H32218998   1.170   4.523   5.820 -1.3264 -0.7368 -0.5022
   60MOL     C118999   3.200   3.753   6.557  0.5495  0.1201  0.7399
   60MOL     C219000   3.321   3.696   6.492 -0.8323  0.2356 -0.8112
   60MOL     C319001   3.355   3.565   6.520  0.1158 -0.5064  0.0951
   60MOL     C419002   3.472   3.511   6.455 -0.1915 -0.4037  0.2132
   60MOL     C519003   3.550   3.589   6.371  0.2093  0.3138  0.0204
   60MOL     C619004   3.672   3.539   6.296  0.1800 -0.5413 -0.0215
   60MOL     C719005   3.507   3.720   6.346  0.2434 -0.7222 -0.0965
   60MOL     C819006   3.389   3.778   6.400 -0.7015  0.4015  0.0811
   60MOL     H919007   3.231   3.776   6.659  2.5816 -0.9435  0.3954
   60MOL    H1019008   3.175   3.845   6.504  3.2259 -0.0539 -0.9451
   60MOL    H1119009   3.290   3.516   6.590  0.3470  0.1820  0.7991
   60MOL    H1219010   3.506   3.409   6.467 -1.2062 -0.7495  0.1773
   60MOL    H1319011   3.763   3.571   6.348  0.8555  0.1406 -1.5812
   60MOL    H1419012   3.664   3.434   6.320  1.3385 -0.6734 -0.2039
   60MOL    H1519013   3.575   3.781   6.288  0.1048 -1.2369 -0.8129
   60MOL    H1619014   3.364   3.883   6.391 -0.9806  0.6186  2.7963
   60MOL    H1719015   3.118   3.682   6.565  0.5237  0.0216 -0.3326
   60MOL    C1819016   3.674   3.560   6.148  0.3506 -0.1174  0.3536
   60MOL    C1919017   3.788   3.502   6.071  0.7506  0.3738  0.6098
   60MOL    C2019018   3.868   3.397   6.123 -0.3245 -0.8928 -0.0713
   60MOL    C2119019   3.965   3.334   6.039 -0.7817 -0.5689  0.5002
   60MOL    C2219020   3.972   3.370   5.903  0.2230 -0.3592  0.1215
   60MOL    C2319021   4.073   3.293   5.810  0.3023 -0.8923 -0.1407
   60MOL    C2419022   3.882   3.466   5.850 -0.0111  0.5045 -0.4784
   60MOL    C2519023   3.792   3.533   5.932 -0.2556 -0.7174 -0.6383
   60MOL    H2619024   3.586   3.521   6.096 -0.2156  3.3471 -1.4717
   60MOL    H2719025   3.686   3.668   6.147 -0.4028 -0.0251 -0.6997
   60MOL    H2819026   3.871   3.386   6.230  1.8887 -0.4473 -0.0723
   60MOL    H2919027   4.022   3.252   6.082 -1.0489 -0.1702  1.6406
   60MOL    H3019028   4.046   3.188   5.827 -0.0891 -0.3751  2.8322
   60MOL    H3119029   4.164   3.317   5.865 -1.1768  1.6570  1.2934
   60MOL    H3219030   3.872   3.475   5.743  1.5488  0.0883 -0.6703
   60MOL    H3319031   3.724   3.601   5.882  0.3870 -0.6377 -1.3966
   60MOL    C3419032   4.085   3.343   5.660 -0.4967  0.1240  0.0863
   60MOL    C3519033   4.208   3.280   5.595 -0.2745 -0.5533  0.4378
   60MOL    C3619034   4.315   3.365   5.560 -0.2921 -0.1594  0.0831
   60MOL    C3719035   4.436   3.306   5.508 -0.1035  0.1679 -0.1904
   60MOL    C3819036   4.444   3.163   5.488 -0.0307  0.6030  0.1413
   60MOL    C3919037   4.573   3.100   5.440  0.6376  0.3449  0.3856
   60MOL    C4019038   4.330   3.086   5.520  0.4407 -0.8143  0.0005
   60MOL    C4119039   4.214   3.142   5.572  0.7095 -0.3785 -0.2997
   60MOL    H4219040   4.101   3.451   5.652  1.3284 -0.2148 -1.1788
   60MOL    H4319041   3.992   3.321   5.607 -0.1085 -1.6246  0.1143
   60MOL    H4419042   4.311   3.472   5.572  1.2937  0.0299 -0.9403
   60MOL    H4519043   4.522   3.363   5.476  0.2051  2.2454  3.9593
   60MOL    H4619044   4.555   3.013   5.375  0.3236  1.2395 -0.7419
   60MOL    H4719045   4.642   3.174   5.399 -0.2136  0.8695 -0.1119
   60MOL    H4819046   4.342   2.982   5.491  1.8754 -0.6207 -0.1514
   60MOL    H4919047   4.125   3.081   5.583 -0.0600  0.4050 -2.0112
   60MOL    C5019048   4.650   3.045   5.554 -0.5326  0.3144 -0.5532
   60MOL    C5119049   4.772   2.969   5.523  0.4074 -0.0620  0.4597
   60MOL    C5219050   4.903   3.018   5.541 -0.1552 -0.1471  0.3435
   60MOL    C5319051   5.016   2.950   5.497 -0.0409 -0.0038 -0.7893
   60MOL    C5419052   5.006   2.820   5.438  0.8393  0.4967  0.2205
   60MOL    C5519053   5.125   2.757   5.378  0.0944  0.4640 -0.1996
   60MOL    C5619054   4.877   2.767   5.424 -0.4639  0.2015 -0.2386
   60MOL    C5719055   4.765   2.837   5.472 -0.0058 -0.5857  0.7357
   60MOL    H5819056   4.585   2.972   5.603  0.1594  1.7261  2.6329
   60MOL    H5919057   4.666   3.129   5.622  2.9267 -1.7157  1.2742
   60MOL    H6019058   4.905   3.122   5.568 -1.7410  0.1019 -0.4763
   60MOL    H6119059   5.115   2.994   5.489 -0.0902  0.4795  0.9863
   60MOL    H6219060   5.090   2.685   5.303 -0.9995  0.7383  0.0446
   60MOL    H6319061   5.189   2.824   5.321  1.2581 -1.0053 -0.6646
   60MOL    H6419062   4.850   2.671   5.382 -0.2109 -0.2569  0.6177
   60MOL    H6519063   4.671   2.786   5.461 -0.8335  0.6547  1.8655
   60MOL    C6619064   5.211   2.689   5.485  0.1864 -0.2199  0.4184
   60MOL    C6719065   5.343   2.653   5.422  0.5874 -0.2695  0.0630
   60MOL    C6819066   5.360   2.535   5.345 -0.0270  0.2932 -0.3009
   60MOL    C6919067   5.479   2.516   5.277  1.2110 -0.2003  0.5137
   60MOL    C7019068   5.588   2.607   5.301 -0.7683 -0.1230 -0.1996
   60MOL    C7119069   5.721   2.568   5.245  0.0996  0.6781 -1.1249
   60MOL    C7219070   5.570   2.729   5.378  0.2411  0.3244  0.0995
   60MOL    C7319071   5.441   2.756   5.432  0.3716 -0.3624 -0.6811
   60MOL    H7419072   5.168   2.596   5.522  0.9584  0.3574  2.8401
   60MOL    H7519073   5.227   2.760   5.566  0.7474  1.1402 -0.8690
   60MOL    H7619074   5.275   2.474   5.318  0.2332  0.9561 -2.6588
   60MOL    H7719075   5.485   2.427   5.216 -0.4330 -0.5642  0.8696
   60MOL    H7819076   5.792   2.650   5.256  1.0861 -0.2738 -0.2428
   60MOL    H7919077   5.700   2.542   5.141  1.6201  1.0022 -1.5246
   60MOL    H8019078   5.651   2.798   5.394  0.6376 -0.5281  1.8196
   60MOL    H8119079   5.435   2.841   5.498 -0.1577  1.0938 -2.5698
   60MOL    C8219080   5.791   2.452   5.318  0.5276  0.5810 -0.5313
   60MOL    C8319081   5.929   2.431   5.275  0.4277  0.2668 -0.1259
   60MOL    C8419082   6.031   2.527   5.326  0.4375 -0.6184  0.3320
   60MOL    C8519083   6.163   2.522   5.278 -0.4023  0.7245  0.0192
   60MOL    C8619084   6.205   2.415   5.194  0.2570  0.5650 -0.6508
   60MOL    C8719085   6.347   2.394   5.145  0.0547  0.1116  0.6387
   60MOL    C8819086   6.107   2.315   5.163 -0.1406  0.8746  0.4258
   60MOL    C8919087   5.967   2.325   5.194 -0.9214  0.0323  0.1934
   60MOL    H9019088   5.729   2.366   5.298  0.9792  0.6806 -2.4525
   60MOL    H9119089   5.787   2.466   5.426 -0.5610 -0.7236 -0.3928
   60MOL    H9219090   5.989   2.596   5.398  1.5461 -0.3413  0.7111
   60MOL    H9319091   6.245   2.583   5.312  0.5477 -2.4432  3.6701
   60MOL    H9419092   6.387   2.487   5.103 -1.8085  1.0354  0.8263
   60MOL    H9519093   6.343   2.318   5.068  0.5530 -0.5902  1.3051
   60MOL    H9619094   6.139   2.234   5.100  0.6509  0.9326  0.7441
   60MOL    H9719095   5.899   2.252   5.153  0.1270  0.2400 -2.0092
   60MOL    C9819096   6.438   2.340   5.259 -0.1863 -0.2088  0.5377
   60MOL    C9919097   6.579   2.300   5.219  0.8076  0.2554 -0.9284
   60MOL   C10019098   6.688   2.369   5.280  0.0127  0.4220  0.1006
   60MOL   C10119099   6.820   2.325   5.242  0.5714  0.7742  0.0665
   60MOL   C10219100   6.838   2.224   5.145 -0.2946  0.6340  0.5151
   60MOL   C10319101   6.976   2.184   5.101  0.1290 -0.1361 -0.4254
   60MOL   C10419102   6.732   2.160   5.085 -0.5623  0.0408  0.4245
   60MOL   C10519103   6.604   2.202   5.118  0.0208  0.6046 -0.7265
   60MOL   H10619104   6.406   2.250   5.312 -0.0975  0.3223  1.5158
   60MOL   H10719105   6.444   2.417   5.336 -1.3082 -0.5673  0.9971
   60MOL   H10819106   6.678   2.434   5.366  1.7404 -0.9419  1.3654
   60MOL   H10919107   6.903   2.370   5.293 -0.2912  1.3405  1.0057
   60MOL   H11019108   6.974   2.094   5.039  1.0558  0.1982 -0.9519
   60MOL   H11119109   7.013   2.268   5.042  1.9017 -1.0366 -0.6571
   60MOL   H11219110   6.752   2.097   5.000  0.6921  0.0095  0.7416
   60MOL   H11319111   6.525   2.161   5.057 -0.6390  0.4617  0.2158
   60MOL   C11419112   7.078   2.152   5.215 -0.3887 -0.1774  0.5429
   60MOL   C11519113   7.216   2.117   5.170 -0.5078 -0.0112 -0.2978
   60MOL   C11619114   7.327   2.210   5.170  0.4513 -0.1043  0.5773
   60MOL   C11719115   7.452   2.169   5.117  0.3310  0.1719 -0.1889
   60MOL   C11819116   7.479   2.036   5.075  0.0555  0.0812 -0.6458
   60MOL   C11919117   7.620   1.986   5.036 -0.1791  0.0484  0.3413
   60MOL   C12019118   7.368   1.949   5.071 -0.2022 -0.3195  0.9048
   60MOL   C12119119   7.241   1.987   5.118 -0.1681  0.1621  0.3367
   60MOL   H12219120   7.048   2.073   5.285  0.0678  1.8682  3.1087
   60MOL   H12319121   7.085   2.247   5.268  2.7792 -1.1905  2.0602
   60MOL   H12419122   7.317   2.309   5.214  1.7032 -0.3255  1.3601
   60MOL   H12519123   7.538   2.233   5.126  0.0531  0.1948  2.6833
   60MOL   H12619124   7.603   1.905   4.965  2.2820  0.7340 -1.1045
   60MOL   H12719125   7.674   2.061   4.978  3.3605 -1.0372  2.1362
   60MOL   H12819126   7.382   1.853   5.023 -2.3211 -0.2008 -0.0237
   60MOL   H12919127   7.160   1.916   5.127 -0.1859  0.2216  0.6508
   60MOL   C13019128   7.711   1.933   5.151  0.3457  0.4656  0.0175
   60MOL   C13119129   7.838   1.872   5.099 -0.0826 -0.1124  0.4969
   60MOL   C13219130   7.849   1.740   5.052  0.3020 -0.0719 -0.5746
   60MOL   C13319131   7.971   1.686   5.018 -0.8502  0.0532  0.1073
   60MOL   C13419132   8.091   1.761   5.036  0.1570 -0.0834  0.1684
   60MOL   C13519133   8.237   1.702   5.004 -0.5134 -0.9126 -0.2482
   60MOL   C13619134   8.081   1.895   5.074 -0.0185  0.2131  0.2906
   60MOL   C13719135   7.957   1.949   5.106 -0.2109 -0.2375 -0.1040
   60MOL   H13819136   7.652   1.852   5.193 -0.7558  1.2034 -0.0955
   60MOL   H13919137   7.722   1.998   5.238  0.0032  1.0352 -0.3628
   60MOL   H14019138   7.763   1.677   5.037  1.5110 -2.3748  1.6428
   60MOL   H14119139   7.973   1.587   4.975  0.7789  0.1460 -0.0607
   60MOL   H14219140   8.236   1.657   4.905  2.1529  0.1373 -0.7740
   60MOL   H14319141   8.314   1.779   5.005 -0.3660 -1.0068 -2.6255
   60MOL   H14419142   8.172   1.954   5.079 -0.6157  1.3367 -1.5213
   60MOL   H14519143   7.948   2.052   5.136  1.4041  0.3160 -1.4208
   60MOL   C14619144   8.271   1.591   5.103  0.6718 -0.6697  0.0413
   60MOL   C14719145   8.402   1.522   5.083  0.1925 -0.0804  0.1343
   60MOL   C14819146   8.522   1.595   5.100  0.1207 -0.3701 -0.2243
   60MOL   C14919147   8.648   1.540   5.081 -0.4320 -0.0923  1.1904
   60MOL   C15019148   8.660   1.408   5.029  0.1197  0.1938  0.2759
   60MOL   C15119149   8.800   1.352   5.015 -0.2546  0.0892  0.3897
   60MOL   C15219150   8.540   1.335   4.998  0.3765 -0.0864  0.1497
   60MOL   C15319151   8.409   1.389   5.025 -0.2574 -0.4211 -0.0896
   60MOL   H15419152   8.195   1.514   5.112  0.1112 -0.0977  0.2302
   60MOL   H15519153   8.267   1.637   5.202  0.8477 -0.6691  0.0502
   60MOL   H15619154   8.505   1.696   5.135  1.8008 -0.3724  0.6916
   60MOL   H15719155   8.736   1.597   5.106 -0.6087  1.5879 -1.7634
   60MOL   H15819156   8.874   1.431   5.028 -0.9632  1.0954 -1.5250
   60MOL   H15919157   8.818   1.271   5.086  0.0862  0.9992  1.3562
   60MOL   H16019158   8.554   1.237   4.956 -0.1524  0.3806 -1.1433
   60MOL   H16119159   8.319   1.338   4.991  0.0330  0.1835 -1.8298
   60MOL   C16219160   8.822   1.301   4.879 -0.2223 -0.0259 -0.9019
   60MOL   C16319161   8.968   1.263   4.855  0.8384 -0.1707 -0.0534
   60MOL   C16419162   9.051   1.336   4.766  0.4100  0.1765 -0.3444
   60MOL   C16519163   9.168   1.277   4.719 -0.5977  0.3760 -0.0451
   60MOL   C16619164   9.219   1.161   4.784 -0.3362 -0.0201 -0.0789
   60MOL   C16719165   9.349   1.099   4.741 -0.0660 -0.3054 -0.1192
   60MOL   C16819166   9.146   1.089   4.883 -0.5571 -0.9118  0.3909
   60MOL   C16919167   9.019   1.142   4.910 -0.1609  0.0686  0.4433
   60MOL   H17019168   8.798   1.371   4.799  0.2372  1.4593  0.2594
   60MOL   H17119169   8.761   1.216   4.847 -2.1393  1.5066 -1.3808
   60MOL   H17219170   9.016   1.429   4.723  1.7138  0.9280  0.2131
   60MOL   H17319171   9.230   1.326   4.645  1.6476 -1.0323  0.8548
   60MOL   H17419172   9.336   0.992   4.731 -2.3646 -0.5913  4.4946
   60MOL   H17519173   9.375   1.134   4.641  2.1509 -0.3181  0.4096
   60MOL   H17619174   9.178   1.009   4.948  0.8253  0.4654  1.4392
   60MOL   H17719175   8.956   1.095   4.984 -0.0224  0.0811  0.5689
   60MOL   C17819176   9.472   1.116   4.835  0.5293 -0.0167 -0.0188
   60MOL   C17919177   9.598   1.047   4.794  0.7135 -0.5447 -0.7558
   60MOL   C18019178   9.639   0.932   4.858  0.9692 -0.1651  0.3453
   60MOL   C18119179   9.758   0.863   4.828  0.8857  0.0261 -0.3020
   60MOL   C18219180   9.841   0.909   4.727  0.2307 -0.3699 -0.3603
   60MOL   C18319181   9.962   0.831   4.685  0.4210 -0.1957  0.1786
   60MOL   C18419182   9.803   1.035   4.663  0.7572  0.0755 -0.4726
   60MOL   C18519183   9.688   1.103   4.698 -0.7523 -0.3595 -0.2711
   60MOL   H18619184   9.458   1.085   4.938  2.1927  0.2597  0.2997
   60MOL   H18719185   9.508   1.219   4.843 -1.5189  0.7488 -0.2650
   60MOL   H18819186   9.580   0.889   4.938 -0.3535  0.8844 -0.0544
   60MOL   H18919187   9.778   0.768   4.876 -0.3789  0.0221  0.2212
   60MOL   H19019188   9.980   0.750   4.755  1.9572 -0.1129 -0.0928
   60MOL   H19119189   9.944   0.766   4.599 -1.4378 -0.3400  0.6536
   60MOL   H19219190   9.849   1.078   4.575 -1.4350  0.1693 -1.6213
   60MOL   H19319191   9.667   1.185   4.631 -0.5812 -1.1690 -1.3284
   60MOL   C19419192  10.099   0.908   4.684 -0.4069 -0.0877  0.5725
   60MOL   C19519193  10.212   0.813   4.639 -0.0330 -0.1027  0.7120
   60MOL   C19619194  10.294   0.845   4.529 -0.2929  0.9718 -0.4002
   60MOL   C19719195  10.407   0.768   4.492 -0.0018  0.5224  0.1360
   60MOL   C19819196  10.439   0.647   4.560  0.4380 -0.1840 -0.1299
   60MOL   C19919197  10.567   0.578   4.514  0.7573  0.2312  0.1382
   60MOL   C20019198  10.347   0.606   4.664 -0.4416  0.5780 -0.0763
   60MOL   C20119199  10.245   0.693   4.707 -0.8904 -0.0338  0.4822
   60MOL   H20219200  10.131   0.946   4.781  3.0129  1.2059 -0.9988
   60MOL   H20319201  10.083   0.983   4.607 -0.7880 -1.1660 -0.4088
   60MOL   H20419202  10.285   0.934   4.468  0.8092 -0.8324 -3.3016
   60MOL   H20519203  10.469   0.797   4.409 -0.2325  1.0569  0.1467
   60MOL   H20619204  10.557   0.541   4.412  3.2576  0.6239 -0.2865
   60MOL   H20719205  10.640   0.659   4.513  0.2802  0.6921  1.9661
   60MOL   H20819206  10.344   0.512   4.716 -1.1962  0.2300 -0.7437
   60MOL   H20919207  10.174   0.662   4.782 -1.7629 -4.2489 -1.9086
   60MOL   C21019208  10.608   0.465   4.616 -0.8493  0.0947 -0.4861
   60MOL   C21119209  10.738   0.390   4.577 -1.7331 -0.0492 -0.5736
   60MOL   C21219210  10.763   0.258   4.615 -0.1300 -0.0985 -0.4288
   60MOL   C21319211  10.880   0.183   4.588 -0.1720  0.0318  0.1245
   60MOL   C21419212  10.993   0.248   4.535 -0.6851  0.2681  0.1136
   60MOL   C21519213  11.130   0.181   4.526 -0.6897 -0.7153 -0.2989
   60MOL   C21619214  10.973   0.383   4.497 -0.1399  0.0148 -0.7567
   60MOL   C21719215  10.847   0.454   4.513 -0.1967  0.1097  0.0863
   60MOL   H21819216  10.530   0.391   4.632  0.4634 -0.9603  1.2860
   60MOL   H21919217  10.625   0.501   4.718 -0.1960  1.3615 -1.0274
   60MOL   H22019218  10.694   0.206   4.680  1.8326 -0.4592  1.3997
   60MOL   H22119219  10.890   0.084   4.629 -0.5198 -1.0383 -2.2889
   60MOL   H22219220  11.211   0.236   4.574  0.7527 -1.5919 -1.6791
   60MOL   H22319221  11.125   0.083   4.574 -0.9897 -0.5293  0.0578
   60MOL   H22419222  11.063   0.427   4.456 -0.5585 -0.5239 -2.2945
   60MOL   H22519223  10.842   0.557   4.484  0.7830 -0.2585 -1.4090
   60MOL   C22619224  11.175   0.151   4.381  0.1172  0.1670  0.6725
   60MOL   C22719225  11.314   0.083   4.390 -1.0992  0.1041  0.0923
   60MOL   C22819226  11.325  -0.055   4.431  0.2338 -0.1390 -0.5018
   60MOL   C22919227  11.451  -0.114   4.422  0.7966  0.0580 -0.2449
   60MOL   C23019228  11.562  -0.047   4.365 -0.2361  0.7480 -0.3509
   60MOL   C23119229  11.690  -0.126   4.336 -0.4694 -0.0962  0.3686
   60MOL   C23219230  11.555   0.087   4.332  0.3378  0.1900 -0.7283
   60MOL   C23319231  11.432   0.149   4.338 -0.2255 -0.5490 -0.7265
   60MOL   H23419232  11.175   0.243   4.322 -0.5652 -0.4679 -0.3388
   60MOL   H23519233  11.118   0.077   4.325  1.5118 -0.3429 -0.0846
   60MOL   H23619234  11.244  -0.119   4.463  0.7885 -0.7852 -0.3584
   60MOL   H23719235  11.467  -0.219   4.442 -0.0228 -0.5015 -2.4101
   60MOL   H23819236  11.773  -0.061   4.364  0.9904 -2.3015  1.2977
   60MOL   H23919237  11.698  -0.214   4.399  2.5753 -1.4765 -1.8220
   60MOL   H24019238  11.644   0.137   4.297  0.9376  0.6721  1.4452
   60MOL   H24119239  11.432   0.249   4.297 -0.9224  0.4058  1.5118
   60MOL   C24219240  11.704  -0.178   4.193  0.0759  0.3562 -0.1447
   60MOL   C24319241  11.835  -0.243   4.177 -0.6553  0.4365 -0.0079
   60MOL   C24419242  11.948  -0.159   4.168 -0.1693 -0.4449 -0.4149
   60MOL   C24519243  12.077  -0.218   4.159  0.2177  0.1721  0.2629
   60MOL   C24619244  12.087  -0.355   4.148 -0.1716  0.4955  0.2491
   60MOL   C24719245  12.228  -0.416   4.149 -0.6196  0.0744 -0.3900
   60MOL   C24819246  11.978  -0.446   4.147  0.7239  0.1235 -0.5259
   60MOL   C24919247  11.848  -0.387   4.162  1.2012 -0.4681 -0.6620
   60MOL   H25019248  11.624  -0.245   4.162  0.9734 -1.6606  1.7363
   60MOL   H25119249  11.710  -0.093   4.125  0.3761 -0.2904 -0.9373
   60MOL   H25219250  11.938  -0.051   4.169  1.3026 -0.3034  0.9920
   60MOL   H25319251  12.165  -0.156   4.168  0.0153  0.4428  0.4135
   60MOL   H25419252  12.297  -0.332   4.153 -3.9945  2.9724 -0.2004
   60MOL   H25519253  12.236  -0.472   4.242  0.0264  1.5229  0.4283
   60MOL   H25619254  11.991  -0.552   4.140  2.6539  0.3023 -0.0019
   60MOL   H25719255  11.760  -0.449   4.171  0.8627 -0.1143 -1.4977
   60MOL   C25819256  12.261  -0.490   4.024  0.1712 -0.5673 -0.2591
   60MOL   C25919257  12.396  -0.556   4.028 -0.3711 -0.4354 -0.0683
   60MOL   C26019258  12.511  -0.494   3.981 -0.4691  0.1553 -0.0948
   60MOL   C26119259  12.637  -0.550   3.994 -0.3812 -0.2676  0.5337
   60MOL   C26219260  12.652  -0.680   4.047 -0.1566 -0.2272 -0.0220
   60MOL   C26319261  12.785  -0.747   4.083  0.7378 -0.5671 -0.1730
   60MOL   C26419262  12.538  -0.754   4.081  0.5578 -0.1845 -0.5149
   60MOL   C26519263  12.412  -0.689   4.075 -0.0395 -0.8896 -0.3452
   60MOL   H26619264  12.263  -0.419   3.941 -0.1683  0.7173  0.8039
   60MOL   H26719265  12.183  -0.563   4.001  1.4257 -2.2387  0.7110
   60MOL   H26819266  12.502  -0.392   3.946 -1.5616 -0.3597 -1.3490
   60MOL   H26919267  12.723  -0.490   3.966 -0.2524 -0.6824  0.0242
   60MOL   H27019268  12.806  -0.743   4.190  1.0687 -1.1617 -0.2126
   60MOL   H27119269  12.785  -0.855   4.068  0.1811 -0.8597  1.8678
   60MOL   H27219270  12.548  -0.856   4.115  0.5115  0.1697  0.5867
   60MOL   H27319271  12.326  -0.749   4.098  0.8376 -1.3448  1.8223
   60MOL   C27419272  12.900  -0.687   4.001  0.9312  0.2320  0.0735
   60MOL   C27519273  13.034  -0.748   4.026  0.2078  0.8125 -0.7452
   60MOL   C27619274  13.135  -0.672   4.081  0.5351  0.0576  0.8169
   60MOL   C27719275  13.265  -0.727   4.085 -0.5418  0.1949 -0.5685
   60MOL   C27819276  13.290  -0.860   4.048  0.6578  0.0962 -0.6287
   60MOL   C27919277  13.429  -0.926   4.078 -0.3772  0.5051 -0.5714
   60MOL   C28019278  13.184  -0.937   4.003  0.0599  0.3424 -0.2335
   60MOL   C28119279  13.057  -0.882   3.994 -0.5179  0.1558  1.1714
   60MOL   H28219280  12.882  -0.690   3.894  1.2766  0.7319 -0.0029
   60MOL   H28319281  12.904  -0.582   4.031 -0.9130 -0.5847  3.5101
   60MOL   H28419282  13.127  -0.566   4.101 -2.3506  0.9285 -4.0104
   60MOL   H28519283  13.353  -0.671   4.113 -0.8581  0.2417  0.3491
   60MOL   H28619284  13.488  -0.854   4.135 -1.2978  0.2171  0.7560
   60MOL   H28719285  13.427  -1.016   4.138 -1.2540  0.2121 -1.0275
   60MOL   H28819286  13.199  -1.042   3.981  0.4458  0.1587  0.8746
   60MOL   H28919287  12.970  -0.934   3.958  0.1024  0.4102 -0.7699
   60MOL   C29019288  13.506  -0.945   3.948 -0.5725  0.0124  0.1490
   60MOL   C29119289  13.644  -0.975   3.978 -0.7159  0.7170 -0.1100
   60MOL   C29219290  13.750  -0.886   3.962  0.0681  0.7343  0.1236
   60MOL   C29319291  13.878  -0.917   4.016  0.5326 -0.0643 -0.0161
   60MOL   C29419292  13.901  -1.030   4.100 -0.0558 -0.1277 -0.2849
   60MOL   C29519293  14.028  -1.059   4.178  0.3029 -0.0545 -0.6014
   60MOL   C29619294  13.799  -1.129   4.105  0.5880  0.6207  0.2484
   60MOL   C29719295  13.666  -1.094   4.052 -0.6695  1.3656 -0.4656
   60MOL   H29819296  13.503  -0.859   3.880  0.5931  0.5171  0.7336
   60MOL   H29919297  13.461  -1.028   3.893  0.9159 -1.0363  0.4928
   60MOL   H30019298  13.738  -0.789   3.915  1.2428  0.8131 -0.0331
   60MOL   H30119299  13.962  -0.852   3.995 -0.1546  1.1719  0.9785
   60MOL   H30219300  14.017  -1.022   4.280 -0.7570 -2.5477  0.2416
   60MOL   H30319301  14.060  -1.164   4.177  0.3031 -0.0710 -4.5650
   60MOL   H30419302  13.807  -1.219   4.164 -4.4695 -0.3782 -0.3739
   60MOL   H30519303  13.589  -1.169   4.054  0.4780  0.1813  0.6713
   60MOL   C30619304  14.156  -0.990   4.129  0.2567  0.3152  0.4542
   60MOL   C30719305  14.272  -0.975   4.223 -0.6072  0.1248  0.4237
   60MOL   C30819306  14.394  -1.045   4.206 -0.8568  0.4115 -0.1732
   60MOL   C30919307  14.503  -1.028   4.293  0.1585 -0.1276  0.5836
   60MOL   C31019308  14.486  -0.947   4.406 -0.0661 -0.0252  0.2247
   60MOL   C31119309  14.598  -0.932   4.510  0.5866 -1.0189 -0.5145
   60MOL   C31219310  14.362  -0.885   4.433  1.3515 -0.1170 -0.3796
   60MOL   C31319311  14.257  -0.899   4.341 -0.3387  0.7261 -0.5569
   60MOL   H31419312  14.147  -0.885   4.103 -3.5543 -0.3825 -1.3885
   60MOL   H31519313  14.191  -1.044   4.040  1.3829  1.8340 -0.0611
   60MOL   H31619314  14.403  -1.103   4.115 -0.1295 -1.7463  1.2401
   60MOL   H31719315  14.600  -1.069   4.271  0.6499  1.1667  0.2919
   60MOL   H31819316  14.653  -0.840   4.488 -0.7863 -0.1633 -0.4301
   60MOL   H31919317  14.562  -0.919   4.612 -0.3596  0.0746 -0.9842
   60MOL   H32019318  14.346  -0.806   4.505  0.6381 -0.4912 -0.1143
   60MOL   H32119319  14.165  -0.844   4.356 -2.1933 -2.1398 -0.8508
   60MOL   H32219320  14.657  -1.023   4.520  2.4722  0.1979 -0.1645
   61MOL     C119321   7.450   7.759   0.754 -0.1124 -0.2477  0.1587
   61MOL     C219322   7.574   7.684   0.705  0.4432 -0.4253  0.0577
   61MOL     C319323   7.578   7.631   0.574 -0.4573  0.8808  0.1281
   61MOL     C419324   7.680   7.555   0.526  0.0713 -0.0833  0.0401
   61MOL     C519325   7.787   7.532   0.617 -0.7112 -1.4475  0.2832
   61MOL     C619326   7.911   7.459   0.576  1.0879  0.5772 -0.0224
   61MOL     C719327   7.782   7.574   0.753  0.1349  0.0566 -0.3571
   61MOL     C819328   7.671   7.644   0.793  0.0170 -0.1346 -0.2060
   61MOL     H919329   7.392   7.698   0.823 -0.7399  0.0550 -0.0904
   61MOL    H1019330   7.486   7.853   0.796 -0.0006 -1.0186  1.7943
   61MOL    H1119331   7.493   7.651   0.511  0.7263  1.5292 -1.2862
   61MOL    H1219332   7.692   7.517   0.426  2.4435 -0.0179  0.2706
   61MOL    H1319333   7.924   7.364   0.629  0.5005 -0.0488 -0.9799
   61MOL    H1419334   7.903   7.424   0.474 -1.7436  3.7654 -1.0000
   61MOL    H1519335   7.865   7.571   0.823  1.2714  2.0891 -1.5735
   61MOL    H1619336   7.663   7.677   0.895 -2.1886 -0.0244 -0.4027
   61MOL    H1719337   7.374   7.792   0.683 -0.5576  2.3671  1.7827
   61MOL    C1819338   8.032   7.550   0.574  0.6312 -0.0237 -0.1929
   61MOL    C1919339   8.155   7.470   0.572 -0.3588  0.8175  0.8203
   61MOL    C2019340   8.251   7.467   0.469 -0.1854 -0.5718  0.1915
   61MOL    C2119341   8.367   7.396   0.483 -0.5345  1.7875 -0.4634
   61MOL    C2219342   8.408   7.329   0.607  0.3966  0.6477  0.3621
   61MOL    C2319343   8.543   7.254   0.612  0.1086 -0.3149  0.1677
   61MOL    C2419344   8.309   7.332   0.711 -0.7495  0.0168  0.0779
   61MOL    C2519345   8.183   7.392   0.690  0.1100  0.2915  0.2557
   61MOL    H2619346   8.032   7.609   0.483 -1.5715  0.5698  0.1702
   61MOL    H2719347   8.042   7.627   0.650  0.4121  0.8045 -0.9990
   61MOL    H2819348   8.227   7.524   0.381  0.3429 -0.5389  0.0665
   61MOL    H2919349   8.439   7.391   0.402  0.9802 -1.8239  1.0220
   61MOL    H3019350   8.612   7.327   0.654  0.1033 -0.8455  1.0993
   61MOL    H3119351   8.555   7.232   0.506  0.2177 -1.9191  0.5017
   61MOL    H3219352   8.327   7.292   0.810 -1.4708  1.9441  1.0176
   61MOL    H3319353   8.109   7.387   0.769  0.8748 -2.2178  0.8511
   61MOL    C3419354   8.557   7.135   0.704 -0.6273  1.0312 -0.4614
   61MOL    C3519355   8.692   7.076   0.707 -0.1673 -0.4974 -0.6867
   61MOL    C3619356   8.788   7.149   0.780 -0.5610  0.4475  0.3330
   61MOL    C3719357   8.922   7.114   0.785 -0.1077  0.1294  0.4447
   61MOL    C3819358   8.961   6.997   0.718  0.0067  0.8140  0.8623
   61MOL    C3919359   9.100   6.944   0.736 -0.1977  0.3246  0.8846
   61MOL    C4019360   8.868   6.924   0.646  0.1517 -0.1045 -0.3091
   61MOL    C4119361   8.731   6.960   0.636 -0.6966  1.2324 -0.0261
   61MOL    H4219362   8.490   7.051   0.682 -1.4655  2.1035 -2.1931
   61MOL    H4319363   8.533   7.170   0.804  1.0975  0.8367  0.0280
   61MOL    H4419364   8.763   7.246   0.822 -0.3779  0.3393  0.6934
   61MOL    H4519365   8.993   7.172   0.842  0.3818 -1.3796  1.3983
   61MOL    H4619366   9.122   6.965   0.841 -1.2309 -0.5985  1.2969
   61MOL    H4719367   9.087   6.837   0.725 -1.9771  0.6751 -0.5992
   61MOL    H4819368   8.914   6.840   0.594  0.2793 -0.2314  0.0088
   61MOL    H4919369   8.658   6.899   0.585  0.1902 -0.4109  0.6181
   61MOL    C5019370   9.198   7.024   0.646 -0.3874  0.1638 -0.0728
   61MOL    C5119371   9.338   6.972   0.669 -0.1052 -0.1515 -0.2126
   61MOL    C5219372   9.433   7.048   0.732  0.2935 -0.3355  0.0807
   61MOL    C5319373   9.568   7.013   0.736 -0.0269 -0.8416  0.7429
   61MOL    C5419374   9.605   6.890   0.689  0.3647  0.3745  0.4276
   61MOL    C5519375   9.751   6.852   0.684  0.3613 -0.0992 -0.2354
   61MOL    C5619376   9.511   6.802   0.631 -0.2306 -0.0138  0.4169
   61MOL    C5719377   9.380   6.843   0.620  0.2402  0.0100  0.1817
   61MOL    H5819378   9.192   7.127   0.680  0.2871 -0.1537  1.0588
   61MOL    H5919379   9.170   7.012   0.542 -0.0680  0.2676 -0.1718
   61MOL    H6019380   9.403   7.147   0.764  3.6829  1.1068 -1.0376
   61MOL    H6119381   9.642   7.082   0.774  0.8580 -1.7815  0.7498
   61MOL    H6219382   9.802   6.924   0.747  0.8078  0.9033 -1.7151
   61MOL    H6319383   9.758   6.746   0.710 -0.3443  0.0600  0.6054
   61MOL    H6419384   9.551   6.707   0.599 -0.2139  0.1989 -0.1859
   61MOL    H6519385   9.314   6.776   0.567 -0.7026 -0.8273  2.3282
   61MOL    C6619386   9.803   6.871   0.546 -0.5439  0.1821  0.1317
   61MOL    C6719387   9.941   6.800   0.525  0.2078  0.4199  0.5632
   61MOL    C6819388   9.979   6.758   0.393  0.5773 -0.2629 -0.3299
   61MOL    C6919389  10.107   6.709   0.376  0.0731 -0.1401  0.2497
   61MOL    C7019390  10.205   6.694   0.474 -0.4492 -0.3308  0.3481
   61MOL    C7119391  10.347   6.640   0.459 -0.5192 -0.4942 -0.2296
   61MOL    C7219392  10.164   6.726   0.608  0.8629 -0.0486  0.6292
   61MOL    C7319393  10.033   6.783   0.630 -0.2443  0.0662 -0.2741
   61MOL    H7419394   9.808   6.978   0.523  1.8001 -0.1184 -0.8759
   61MOL    H7519395   9.737   6.830   0.470 -1.4002  0.0062  0.9475
   61MOL    H7619396   9.912   6.775   0.309  1.6366 -1.8157 -1.5258
   61MOL    H7719397  10.137   6.685   0.275  1.3959  1.2186  0.3115
   61MOL    H7819398  10.371   6.621   0.354  1.2527 -1.6451  0.3481
   61MOL    H7919399  10.354   6.557   0.529  0.0103 -0.5558 -0.3498
   61MOL    H8019400  10.223   6.700   0.694  0.6197 -0.9084  0.5429
   61MOL    H8119401  10.011   6.818   0.729  0.3829  1.6059 -0.6634
   61MOL    C8219402  10.447   6.741   0.496  0.2065 -0.3410 -0.4287
   61MOL    C8319403  10.587   6.695   0.508 -0.4016  0.6719 -0.7341
   61MOL    C8419404  10.632   6.640   0.631 -0.3651  0.6907 -0.4334
   61MOL    C8519405  10.762   6.603   0.651  0.4016 -0.6256 -0.5011
   61MOL    C8619406  10.857   6.619   0.552 -0.8627 -0.1880 -0.3274
   61MOL    C8719407  11.002   6.566   0.571  0.2198 -0.1258  0.4263
   61MOL    C8819408  10.816   6.674   0.427  0.0447 -0.6200  0.0002
   61MOL    C8919409  10.679   6.712   0.405 -0.7759 -0.1129 -0.1142
   61MOL    H9019410  10.414   6.789   0.589  0.5411 -0.1601 -0.4030
   61MOL    H9119411  10.455   6.823   0.425 -0.1657 -1.2756 -1.5654
   61MOL    H9219412  10.550   6.610   0.695 -0.7257  1.0362 -0.7348
   61MOL    H9319413  10.790   6.557   0.745 -2.0551 -0.8968  0.1190
   61MOL    H9419414  11.032   6.547   0.468 -0.6400  0.7176  0.0129
   61MOL    H9519415  10.993   6.471   0.625  0.3707  0.3414  1.2831
   61MOL    H9619416  10.889   6.699   0.351 -0.6969 -0.7169 -0.7540
   61MOL    H9719417  10.645   6.761   0.315  2.6830  0.7766 -1.0191
   61MOL    C9819418  11.099   6.667   0.635  0.3536 -0.2515  0.0172
   61MOL    C9919419  11.236   6.620   0.676 -0.3095 -0.5504 -0.0642
   61MOL   C10019420  11.253   6.534   0.787 -0.5446 -0.3109  0.2207
   61MOL   C10119421  11.376   6.482   0.821 -0.3339  0.6117 -0.2837
   61MOL   C10219422  11.490   6.508   0.748 -0.4352 -0.4225  0.4040
   61MOL   C10319423  11.624   6.469   0.800 -0.0947 -0.0619 -0.2223
   61MOL   C10419424  11.478   6.590   0.632  0.0109  0.1784  0.4384
   61MOL   C10519425  11.349   6.649   0.596 -0.3698 -0.5991 -0.0906
   61MOL   H10619426  11.051   6.714   0.721  0.7052  0.2393 -0.0535
   61MOL   H10719427  11.122   6.749   0.567  3.1210 -0.3252  0.8101
   61MOL   H10819428  11.167   6.520   0.852 -0.3710 -0.5160  0.4038
   61MOL   H10919429  11.376   6.429   0.915  0.9512  1.2611  0.0935
   61MOL   H11019430  11.692   6.445   0.718  1.7144  2.0294  0.6233
   61MOL   H11119431  11.671   6.551   0.855 -0.1282  0.2576 -0.6733
   61MOL   H11219432  11.565   6.610   0.572 -0.1967  2.1775  0.7874
   61MOL   H11319433  11.342   6.703   0.503  1.1191  1.0166  0.7226
   61MOL   C11419434  11.626   6.343   0.888  0.5392 -0.8247  0.3337
   61MOL   C11519435  11.767   6.298   0.921 -0.0964 -0.1436 -0.1309
   61MOL   C11619436  11.839   6.211   0.837  0.5397 -0.2667 -0.5581
   61MOL   C11719437  11.978   6.187   0.865 -0.0750 -0.1996  0.2822
   61MOL   C11819438  12.039   6.233   0.986  0.1768  0.0807  0.6886
   61MOL   C11919439  12.185   6.196   1.011  0.1418 -0.3148  0.2124
   61MOL   C12019440  11.964   6.316   1.070  0.0188  0.1166  0.1184
   61MOL   C12119441  11.833   6.355   1.036 -0.4400 -0.4101  0.1747
   61MOL   H12219442  11.571   6.268   0.831  0.9308 -0.7896 -0.0931
   61MOL   H12319443  11.573   6.353   0.983 -0.4862  2.2329 -0.4944
   61MOL   H12419444  11.793   6.164   0.751  0.6833  0.2086 -0.8986
   61MOL   H12519445  12.028   6.122   0.794 -1.5017 -1.2944  0.2496
   61MOL   H12619446  12.184   6.090   1.035 -0.2342 -0.2764  0.3577
   61MOL   H12719447  12.245   6.209   0.921 -0.8381  2.2607 -0.1185
   61MOL   H12819448  12.011   6.359   1.158  1.4758 -1.3394  0.0578
   61MOL   H12919449  11.791   6.423   1.108  1.1351  0.0229  0.6923
   61MOL   C13019450  12.256   6.272   1.130  0.7904  0.0081  0.1641
   61MOL   C13119451  12.399   6.234   1.145 -0.8171  0.1751 -0.1876
   61MOL   C13219452  12.502   6.310   1.082 -0.3760 -0.4953 -0.3412
   61MOL   C13319453  12.636   6.266   1.090  0.0440 -0.1977  0.5503
   61MOL   C13419454  12.670   6.141   1.145 -0.1150  0.3305  0.2776
   61MOL   C13519455  12.813   6.088   1.140  0.0662 -0.4669 -0.3156
   61MOL   C13619456  12.567   6.068   1.208  0.2703 -0.8927  0.3075
   61MOL   C13719457  12.435   6.112   1.209 -0.1693  0.1334  0.4404
   61MOL   H13819458  12.194   6.254   1.218  0.7529  0.1660  0.1705
   61MOL   H13919459  12.242   6.377   1.105  1.3865 -0.5540 -2.7241
   61MOL   H14019460  12.489   6.411   1.046  0.7574 -0.1430  0.2087
   61MOL   H14119461  12.720   6.318   1.047 -1.2260 -0.6569 -2.6049
   61MOL   H14219462  12.802   5.988   1.100  2.5346 -0.9529  0.1490
   61MOL   H14319463  12.864   6.155   1.070 -0.7200  0.7656  0.2639
   61MOL   H14419464  12.596   5.976   1.257 -0.6794 -2.0968 -1.3544
   61MOL   H14519465  12.359   6.051   1.256  0.3671 -0.8794  0.0047
   61MOL   C14619466  12.883   6.075   1.271  0.0043  0.5634 -0.4656
   61MOL   C14719467  13.002   5.993   1.242  0.1570  0.3039 -0.5840
   61MOL   C14819468  12.985   5.854   1.251 -0.4070  0.1131 -0.1916
   61MOL   C14919469  13.093   5.771   1.224  0.4597  0.1680 -0.2393
   61MOL   C15019470  13.222   5.828   1.197  0.3447  0.3349  0.5850
   61MOL   C15119471  13.337   5.737   1.160 -0.4350 -0.0238 -0.3666
   61MOL   C15219472  13.240   5.967   1.209 -0.0529 -0.6011 -0.2783
   61MOL   C15319473  13.126   6.046   1.220 -0.7696 -0.5026 -0.6762
   61MOL   H15419474  12.812   6.040   1.345  0.2174  0.2894 -0.3911
   61MOL   H15519475  12.898   6.178   1.305 -1.9970  0.9175 -0.6071
   61MOL   H15619476  12.887   5.813   1.272 -0.2368  0.6322  1.7190
   61MOL   H15719477  13.087   5.664   1.234  1.7799  0.0528 -0.5483
   61MOL   H15819478  13.294   5.644   1.123 -4.7958  1.0496  1.6681
   61MOL   H15919479  13.395   5.780   1.079 -0.7576  0.7092 -0.2099
   61MOL   H16019480  13.332   6.020   1.195  0.5607 -0.7538  2.7831
   61MOL   H16119481  13.125   6.154   1.219 -0.7598 -0.4541  1.7661
   61MOL   C16219482  13.421   5.710   1.288  0.3031  1.1266 -0.5386
   61MOL   C16319483  13.546   5.625   1.274 -0.1067  0.3097 -0.1449
   61MOL   C16419484  13.658   5.682   1.203  0.0457  0.7435 -0.1480
   61MOL   C16519485  13.768   5.603   1.173 -0.1398 -0.3392  0.0153
   61MOL   C16619486  13.761   5.466   1.203 -0.4566  0.2680  0.6001
   61MOL   C16719487  13.872   5.379   1.143 -0.1396  0.3150 -0.0293
   61MOL   C16819488  13.651   5.407   1.267 -0.2971 -0.1813 -1.5497
   61MOL   C16919489  13.540   5.483   1.298 -0.0347  0.1683 -0.3114
   61MOL   H17019490  13.359   5.680   1.373  0.8172  1.4667 -0.0369
   61MOL   H17119491  13.469   5.799   1.327  0.1968  0.0099  2.3370
   61MOL   H17219492  13.661   5.787   1.178  1.4156  1.4392  2.6643
   61MOL   H17319493  13.862   5.628   1.127  0.0334  0.2987  0.7121
   61MOL   H17419494  13.828   5.305   1.075  0.8953  0.1756 -0.5675
   61MOL   H17519495  13.947   5.435   1.087 -0.3047 -0.3393 -0.9171
   61MOL   H17619496  13.632   5.301   1.261 -0.5925 -0.3368  1.2567
   61MOL   H17719497  13.448   5.436   1.329  1.4033 -1.4594  1.6008
   61MOL   C17819498  13.947   5.308   1.259  0.0536  0.6540 -0.9234
   61MOL   C17919499  14.060   5.218   1.213  0.0840  0.1426 -0.5974
   61MOL   C18019500  14.175   5.275   1.154  0.6887 -0.1154  0.5378
   61MOL   C18119501  14.285   5.201   1.112  1.0311  0.8880  0.1595
   61MOL   C18219502  14.287   5.062   1.130  0.1795 -0.1785  0.2021
   61MOL   C18319503  14.413   4.979   1.097 -0.0517  0.3327  0.1232
   61MOL   C18419504  14.172   5.003   1.184  0.1311 -0.7136  0.0505
   61MOL   C18519505  14.062   5.083   1.222  0.0899  0.0238  0.1807
   61MOL   H18619506  13.866   5.254   1.306 -1.2527  2.6700 -0.7902
   61MOL   H18719507  13.987   5.378   1.332  0.2278 -0.5272  0.1088
   61MOL   H18819508  14.180   5.382   1.139  1.2250 -0.1646  0.3262
   61MOL   H18919509  14.372   5.244   1.066  0.3958  0.1972 -1.7144
   61MOL   H19019510  14.491   5.047   1.130  1.8649 -0.5169 -2.4717
   61MOL   H19119511  14.403   4.890   1.159  0.3054  0.0686 -0.1918
   61MOL   H19219512  14.157   4.897   1.195 -1.2377 -0.5816 -0.4575
   61MOL   H19319513  13.986   5.021   1.269  1.6547 -0.8087  1.6666
   61MOL   C19419514  14.428   4.948   0.953  0.6250  0.3262  0.9092
   61MOL   C19519515  14.561   4.887   0.911 -0.9453 -0.3801  0.1568
   61MOL   C19619516  14.590   4.889   0.772  0.1280 -0.3010  0.5799
   61MOL   C19719517  14.714   4.850   0.722 -0.8722  0.2584 -0.6351
   61MOL   C19819518  14.806   4.786   0.805 -0.3677 -0.3006 -0.0905
   61MOL   C19919519  14.943   4.739   0.754  1.1442 -0.0369  0.0021
   61MOL   C20019520  14.774   4.775   0.944 -0.0242 -0.0011 -0.3935
   61MOL   C20119521  14.656   4.825   0.995 -0.9391 -0.1048  0.5313
   61MOL   H20219522  14.425   5.049   0.911  0.9533  0.3134  0.8532
   61MOL   H20319523  14.345   4.893   0.909  1.1897 -0.7435  1.1792
   61MOL   H20419524  14.526   4.940   0.702 -1.7281 -0.6009  2.0315
   61MOL   H20519525  14.747   4.873   0.621 -1.0238  0.1869 -0.7015
   61MOL   H20619526  14.986   4.683   0.837  0.8120  2.3451  1.8167
   61MOL   H20719527  14.915   4.671   0.674 -0.2875 -0.5669  0.9363
   61MOL   H20819528  14.843   4.734   1.016  1.7497  1.2574 -1.3136
   61MOL   H20919529  14.634   4.816   1.101  1.5201 -1.9064  0.9162
   61MOL   C21019530  15.049   4.840   0.708  0.6526 -0.3743 -0.1961
   61MOL   C21119531  15.180   4.767   0.684  0.1129  0.2659 -0.1337
   61MOL   C21219532  15.222   4.733   0.553 -0.2855  0.0161 -0.0922
   61MOL   C21319533  15.350   4.677   0.537 -0.7608  0.2275  0.6230
   61MOL   C21419534  15.429   4.657   0.652  0.5191 -0.4201  0.1944
   61MOL   C21519535  15.563   4.594   0.638 -0.6889 -0.3632 -0.9881
   61MOL   C21619536  15.385   4.694   0.779 -0.3053 -0.5558 -0.1705
   61MOL   C21719537  15.258   4.747   0.799 -0.0008 -0.1055 -0.3636
   61MOL   H21819538  15.055   4.925   0.776  1.8175  1.6328 -2.6853
   61MOL   H21919539  15.015   4.888   0.616  1.3903  0.8485  0.1542
   61MOL   H22019540  15.166   4.751   0.462 -0.2690 -1.4649 -0.4113
   61MOL   H22119541  15.381   4.656   0.436  0.9974  2.5825  0.6259
   61MOL   H22219542  15.615   4.584   0.733 -0.9112 -1.0519 -0.9358
   61MOL   H22319543  15.553   4.496   0.592  0.8329 -0.0281 -2.0845
   61MOL   H22419544  15.439   4.669   0.869  1.7429 -1.3578 -1.5800
   61MOL   H22519545  15.242   4.771   0.903 -0.0450  0.1425 -0.4274
   61MOL   C22619546  15.662   4.683   0.562  0.0837  0.8511 -0.2305
   61MOL   C22719547  15.790   4.611   0.525  0.0440  0.3422  0.1077
   61MOL   C22819548  15.816   4.580   0.394  0.0758  0.3846 -0.6771
   61MOL   C22919549  15.934   4.502   0.362 -0.5373  0.7248  0.1559
   61MOL   C23019550  16.027   4.469   0.462 -0.2933  0.8764  0.2184
   61MOL   C23119551  16.155   4.390   0.423  0.3998 -0.0256  0.3262
   61MOL   C23219552  16.005   4.507   0.598  0.2779  1.0848  0.7381
   61MOL   C23319553  15.882   4.568   0.620  0.5629  0.4671  0.6187
   61MOL   H23419554  15.692   4.766   0.627 -1.2666  0.5394  0.8087
   61MOL   H23519555  15.627   4.738   0.475 -0.2856  2.3344  0.8284
   61MOL   H23619556  15.748   4.620   0.320 -1.0662 -1.0546 -0.4267
   61MOL   H23719557  15.955   4.474   0.260  1.4408 -0.5283  0.8845
   61MOL   H23819558  16.176   4.303   0.485  0.4848 -0.2709 -0.0423
   61MOL   H23919559  16.138   4.349   0.323 -1.5465 -0.6754  0.8849
   61MOL   H24019560  16.069   4.482   0.681  0.5022  2.2802  0.9322
   61MOL   H24119561  15.861   4.598   0.722  2.0251  2.5226  0.3570
   61MOL   C24219562  16.269   4.489   0.430 -0.6121 -0.0030  0.4989
   61MOL   C24319563  16.402   4.427   0.389 -0.1284 -0.2892 -0.2214
   61MOL   C24419564  16.435   4.379   0.261 -0.7068 -0.3189  0.2109
   61MOL   C24519565  16.565   4.328   0.235  0.4146  0.0784  0.2145
   61MOL   C24619566  16.656   4.307   0.342 -0.6548 -0.4496  0.4087
   61MOL   C24719567  16.787   4.231   0.315  0.0901 -0.8176 -0.3128
   61MOL   C24819568  16.623   4.342   0.474  1.0041 -1.2876 -1.0364
   61MOL   C24919569  16.497   4.403   0.498 -0.2413  0.0813 -0.2668
   61MOL   H25019570  16.254   4.571   0.360  0.0167 -0.6801 -0.4466
   61MOL   H25119571  16.264   4.536   0.528 -0.7225  1.8084 -0.3619
   61MOL   H25219572  16.367   4.391   0.178 -2.5948  2.7303  2.0926
   61MOL   H25319573  16.591   4.305   0.133  1.3219  0.2776  0.3931
   61MOL   H25419574  16.805   4.149   0.384  1.3111  1.9175  2.7629
   61MOL   H25519575  16.763   4.199   0.214 -2.4137 -0.9704  0.2833
   61MOL   H25619576  16.692   4.321   0.555  1.3014  1.3110 -0.5912
   61MOL   H25719577  16.467   4.432   0.597 -2.8083  1.5333 -1.4190
   61MOL   C25819578  16.912   4.319   0.316 -0.2769 -0.4255 -0.1792
   61MOL   C25919579  17.046   4.249   0.276 -0.0457 -0.2245 -0.1686
   61MOL   C26019580  17.077   4.234   0.134  0.1193  0.7622  0.3797
   61MOL   C26119581  17.201   4.176   0.101 -0.3486  0.1145  0.3509
   61MOL   C26219582  17.296   4.141   0.200 -1.0163 -0.7484  0.5313
   61MOL   C26319583  17.446   4.111   0.165  0.1792 -0.0877  0.2450
   61MOL   C26419584  17.266   4.158   0.335  0.4260 -0.0287 -0.1573
   61MOL   C26519585  17.136   4.210   0.371  0.0165 -0.2158 -0.7774
   61MOL   H26619586  16.921   4.369   0.413  1.2546 -3.9858  1.5804
   61MOL   H26719587  16.893   4.399   0.244 -1.0041  0.0021  0.4719
   61MOL   H26819588  17.012   4.270   0.055 -1.5832 -1.6282  0.6433
   61MOL   H26919589  17.230   4.179  -0.003 -0.2632 -0.2419  0.3644
   61MOL   H27019590  17.463   4.156   0.067  2.2418 -0.3804  0.4374
   61MOL   H27119591  17.507   4.155   0.244 -0.8871 -0.1245  1.0961
   61MOL   H27219592  17.337   4.131   0.411  2.8869  1.0249 -2.0132
   61MOL   H27319593  17.117   4.221   0.477  0.3393  0.1627 -0.7612
   61MOL   C27419594  17.468   3.956   0.147 -0.0327 -0.2861  0.0049
   61MOL   C27519595  17.615   3.906   0.128  0.3628  0.4673  0.4306
   61MOL   C27619596  17.658   3.781   0.183  0.6630  0.2244  0.0051
   61MOL   C27719597  17.793   3.731   0.171 -0.3126 -0.2719  0.5460
   61MOL   C27819598  17.888   3.808   0.100 -0.1488  0.0313  0.6114
   61MOL   C27919599  18.031   3.755   0.092  0.1258  0.1963  0.1026
   61MOL   C28019600  17.845   3.928   0.039 -0.8663  0.4195  0.6016
   61MOL   C28119601  17.714   3.977   0.054  0.3213  0.1218  1.0582
   61MOL   H28219602  17.444   3.926   0.249  2.2555  1.5102  1.1327
   61MOL   H28319603  17.410   3.908   0.069  0.5623  0.3541 -0.8337
   61MOL   H28419604  17.582   3.734   0.243  0.7574 -0.6206 -0.5215
   61MOL   H28519605  17.838   3.643   0.215  3.5092  0.4193 -1.7151
   61MOL   H28619606  18.058   3.713   0.189  0.4891  0.7870  0.2625
   61MOL   H28719607  18.028   3.679   0.014 -1.1588 -1.9333  2.1360
   61MOL   H28819608  17.916   3.989  -0.016 -0.9230  0.3013  0.3978
   61MOL   H28919609  17.690   4.064  -0.005  0.9231  0.1860  0.9014
   61MOL   C29019610  18.154   3.844   0.066 -0.2851  0.2444  0.0070
   61MOL   C29119611  18.286   3.774   0.060  0.4556  0.1259 -0.3088
   61MOL   C29219612  18.333   3.701  -0.051  0.1904 -0.6066 -0.7126
   61MOL   C29319613  18.459   3.646  -0.051  0.2178 -0.2912 -0.4401
   61MOL   C29419614  18.538   3.634   0.070  0.4930  0.0521 -0.2518
   61MOL   C29519615  18.670   3.553   0.078  0.5063  0.1202  0.1834
   61MOL   C29619616  18.480   3.690   0.188 -0.0695 -0.9614 -0.0207
   61MOL   C29719617  18.362   3.769   0.182  0.1133  0.3515  0.3311
   61MOL   H29819618  18.167   3.925   0.138  0.4498  1.6907 -1.7066
   61MOL   H29919619  18.149   3.895  -0.030  0.8403  0.7540  0.2184
   61MOL   H30019620  18.276   3.712  -0.141  0.5125  1.0198 -0.7406
   61MOL   H30119621  18.490   3.585  -0.134  3.4876  1.1224 -0.3576
   61MOL   H30219622  18.733   3.611   0.145 -0.0105 -0.5431  1.2634
   61MOL   H30319623  18.648   3.468   0.142  1.6830 -0.5302 -0.2675
   61MOL   H30419624  18.525   3.670   0.284  1.1487 -2.5881 -0.9148
   61MOL   H30519625  18.338   3.822   0.274  0.5093 -2.8533  2.3399
   61MOL   C30619626  18.738   3.525  -0.054  0.4625 -0.3100 -0.0024
   61MOL   C30719627  18.882   3.482  -0.029 -0.4751  0.0859  0.1085
   61MOL   C30819628  18.970   3.480  -0.140 -0.0441  0.2253  0.6088
   61MOL   C30919629  19.107   3.451  -0.121 -0.8282  0.0147  0.7117
   61MOL   C31019630  19.151   3.423   0.003  0.3124  0.0779 -0.4813
   61MOL   C31119631  19.297   3.384   0.021 -0.6754  0.5902 -0.0312
   61MOL   C31219632  19.069   3.434   0.121  0.4955 -0.2783  0.0059
   61MOL   C31319633  18.931   3.451   0.099  0.5037 -0.1238  0.2609
   61MOL   H31419634  18.742   3.618  -0.110 -0.0549 -0.8750 -1.0134
   61MOL   H31519635  18.679   3.452  -0.109  0.4682  0.0228 -0.4528
   61MOL   H31619636  18.937   3.477  -0.242 -2.0996 -0.8414  1.2968
   61MOL   H31719637  19.163   3.430  -0.211 -1.2962 -0.9356  0.6381
   61MOL   H31819638  19.347   3.335  -0.063 -0.3159  0.4926  0.2427
   61MOL   H31919639  19.346   3.479   0.039 -1.6547  0.6630  2.4857
   61MOL   H32019640  19.107   3.425   0.222 -2.4544 -0.7023  1.1164
   61MOL   H32119641  18.870   3.453   0.188 -0.0931  0.9872 -0.1565
   61MOL   H32219642  19.309   3.332   0.116 -0.9522  2.0636  0.8283
   62MOL     C119643   3.206   5.507   0.841  0.4987  0.9262  0.7366
   62MOL     C219644   3.342   5.473   0.815 -0.2951 -0.5917  0.4547
   62MOL     C319645   3.371   5.394   0.699 -0.6947 -0.0471 -0.3546
   62MOL     C419646   3.507   5.362   0.678  0.1166  0.2619 -0.0527
   62MOL     C519647   3.609   5.407   0.764 -0.0600  0.1206 -0.1126
   62MOL     C619648   3.759   5.374   0.727 -0.2283 -0.6976 -0.0082
   62MOL     C719649   3.571   5.488   0.875  0.5718 -0.0113 -0.2743
   62MOL     C819650   3.440   5.527   0.903 -0.8649 -0.3794  0.5787
   62MOL     H919651   3.182   5.607   0.806  1.3959  1.5789  1.9927
   62MOL    H1019652   3.143   5.427   0.800 -0.6977  1.5681  1.2849
   62MOL    H1119653   3.287   5.354   0.644 -1.2189 -2.1805  1.9323
   62MOL    H1219654   3.525   5.289   0.601 -1.0393 -0.5998  0.4806
   62MOL    H1319655   3.774   5.328   0.630 -0.5219  1.1044 -0.9238
   62MOL    H1419656   3.818   5.466   0.738  1.8028 -2.1386  1.4672
   62MOL    H1519657   3.652   5.515   0.941 -0.5129  1.3950  0.5130
   62MOL    H1619658   3.407   5.580   0.991  1.3352  2.0690 -0.0009
   62MOL    H1719659   3.198   5.525   0.948  0.6405  1.7282  0.6125
   62MOL    C1819660   3.803   5.260   0.819  0.3751 -0.2967  0.2720
   62MOL    C1919661   3.954   5.242   0.820  0.1580  0.0108  0.2551
   62MOL    C2019662   4.022   5.143   0.742  0.0395 -0.4136 -0.2361
   62MOL    C2119663   4.160   5.134   0.738 -0.0199  0.4825  0.0412
   62MOL    C2219664   4.241   5.230   0.809  0.4016  0.4896 -0.0871
   62MOL    C2319665   4.392   5.216   0.805 -0.6135  0.8531 -0.0789
   62MOL    C2419666   4.172   5.340   0.873 -0.4470  0.4563  0.0899
   62MOL    C2519667   4.032   5.338   0.887  0.6433  0.1197 -0.3620
   62MOL    H2619668   3.769   5.276   0.921 -1.7491  2.7994 -0.8675
   62MOL    H2719669   3.754   5.169   0.784  0.4933 -0.9680  1.7885
   62MOL    H2819670   3.974   5.088   0.662 -0.5768  1.0465 -0.8748
   62MOL    H2919671   4.202   5.056   0.676 -0.8623  0.2955 -0.3025
   62MOL    H3019672   4.401   5.107   0.797 -2.6089  0.5659  1.2401
   62MOL    H3119673   4.430   5.236   0.905  1.2282 -0.9067 -0.3901
   62MOL    H3219674   4.230   5.410   0.931 -2.2144  0.8004  1.4947
   62MOL    H3319675   3.991   5.423   0.941  1.3879  0.6830 -0.6702
   62MOL    C3419676   4.442   5.314   0.703 -0.7420  0.0739  0.2979
   62MOL    C3519677   4.588   5.307   0.671 -0.0856 -0.0827 -0.3289
   62MOL    C3619678   4.676   5.419   0.696 -0.2851  0.4897 -0.0323
   62MOL    C3719679   4.806   5.427   0.657  0.0190  0.0390 -0.0388
   62MOL    C3819680   4.859   5.308   0.596  0.7132  0.2426 -0.2418
   62MOL    C3919681   5.002   5.304   0.549  0.3181  0.5799  0.1004
   62MOL    C4019682   4.778   5.195   0.570 -0.3135 -0.8633 -0.1998
   62MOL    C4119683   4.642   5.190   0.611  0.0996  0.1695 -0.6014
   62MOL    H4219684   4.413   5.413   0.740 -1.4873 -0.3058  0.7638
   62MOL    H4319685   4.386   5.303   0.610  1.5043  1.2881 -1.2214
   62MOL    H4419686   4.626   5.505   0.737 -0.1315  0.5229  0.0836
   62MOL    H4519687   4.870   5.515   0.661  0.1885 -0.1185  0.8216
   62MOL    H4619688   5.028   5.209   0.504 -0.7196  0.4406 -0.2298
   62MOL    H4719689   5.003   5.377   0.468 -0.9373  1.6720  1.0385
   62MOL    H4819690   4.826   5.107   0.530  1.9911  0.0941  0.4271
   62MOL    H4919691   4.578   5.110   0.579 -1.5183  0.8535  0.8216
   62MOL    C5019692   5.108   5.328   0.658  0.7647 -0.1408  0.7597
   62MOL    C5119693   5.246   5.321   0.605  0.2535  0.4509  0.1469
   62MOL    C5219694   5.296   5.422   0.528 -0.2774 -0.1107  0.5938
   62MOL    C5319695   5.423   5.405   0.474  0.1168  0.1045  0.1929
   62MOL    C5419696   5.505   5.286   0.489  0.6276 -0.7130  0.3885
   62MOL    C5519697   5.637   5.257   0.409 -0.5344  0.3117 -0.1492
   62MOL    C5619698   5.451   5.189   0.576 -0.0556 -0.4799 -0.1357
   62MOL    C5719699   5.323   5.210   0.639 -0.3514  0.8292  1.0820
   62MOL    H5819700   5.104   5.260   0.743 -1.0446 -0.7845  0.1887
   62MOL    H5919701   5.100   5.428   0.700  2.4740  0.3861 -0.1422
   62MOL    H6019702   5.232   5.506   0.503  1.8203  1.3308 -0.0299
   62MOL    H6119703   5.448   5.480   0.401 -0.8234  0.6923  0.4689
   62MOL    H6219704   5.657   5.340   0.341 -1.8223 -0.9683 -2.1728
   62MOL    H6319705   5.716   5.260   0.483  1.3433  1.5665 -2.1692
   62MOL    H6419706   5.515   5.107   0.605 -0.8594 -0.3191  2.1826
   62MOL    H6519707   5.284   5.145   0.716 -0.9578 -0.9466 -0.6777
   62MOL    C6619708   5.640   5.111   0.342  0.9864  0.0726 -0.1815
   62MOL    C6719709   5.768   5.101   0.259  0.0634 -0.5740  0.2481
   62MOL    C6819710   5.888   5.162   0.292  0.1975  0.1585  0.3651
   62MOL    C6919711   5.989   5.157   0.198 -0.6070 -0.0538 -0.2006
   62MOL    C7019712   5.979   5.103   0.071  0.0368  0.0083  0.2701
   62MOL    C7119713   6.101   5.099  -0.023 -0.0721  0.1495  0.5588
   62MOL    C7219714   5.853   5.051   0.040  0.0727 -0.0537 -0.0682
   62MOL    C7319715   5.749   5.043   0.133 -0.4218 -0.6719 -0.4295
   62MOL    H7419716   5.551   5.105   0.279  0.7232  1.4084  0.0492
   62MOL    H7519717   5.635   5.037   0.422 -0.0746  0.4875  0.1565
   62MOL    H7619718   5.901   5.221   0.383  2.0977 -0.6561  0.6371
   62MOL    H7719719   6.080   5.209   0.226  0.1918 -1.0731 -0.8296
   62MOL    H7819720   6.157   5.187   0.009 -0.8987  1.6823 -2.1195
   62MOL    H7919721   6.077   5.106  -0.129 -1.9338  1.1714  1.0405
   62MOL    H8019722   5.833   5.015  -0.060 -0.0112  1.1083 -0.4796
   62MOL    H8119723   5.654   5.010   0.095 -0.6035 -1.7148  0.9158
   62MOL    C8219724   6.188   4.977   0.004  0.1962  0.8886 -0.2927
   62MOL    C8319725   6.323   4.976  -0.066 -0.3497 -0.1288  0.3616
   62MOL    C8419726   6.445   4.989   0.011  0.5549  0.2818  0.2915
   62MOL    C8519727   6.570   4.989  -0.050  0.0987  0.1039  0.5508
   62MOL    C8619728   6.581   4.981  -0.191  0.0223 -0.4296 -0.6572
   62MOL    C8719729   6.722   4.966  -0.246  0.4995 -0.0423  0.0689
   62MOL    C8819730   6.466   4.963  -0.270  0.1235 -0.3713  0.3880
   62MOL    C8919731   6.338   4.965  -0.209 -0.4871 -0.2657 -0.1276
   62MOL    H9019732   6.135   4.882  -0.001  1.1553  0.3795 -0.9346
   62MOL    H9119733   6.203   4.991   0.111 -1.3227 -1.5657  0.2657
   62MOL    H9219734   6.448   4.995   0.119  2.0343  1.0088  0.2344
   62MOL    H9319735   6.659   5.006   0.008  0.2930 -0.8116  0.5192
   62MOL    H9419736   6.788   5.043  -0.206 -1.7407  3.3953 -2.5833
   62MOL    H9519737   6.718   4.983  -0.354  1.0622 -0.0786  0.0453
   62MOL    H9619738   6.480   4.953  -0.377 -1.4734  1.1630  0.0299
   62MOL    H9719739   6.253   4.965  -0.275 -0.4864  2.0195 -0.1701
   62MOL    C9819740   6.785   4.828  -0.226  0.2261  0.1741 -0.3163
   62MOL    C9919741   6.931   4.834  -0.261 -0.3179 -0.1336  0.4598
   62MOL   C10019742   7.032   4.831  -0.158  0.0185  0.0671  0.6358
   62MOL   C10119743   7.161   4.816  -0.203 -0.3424 -0.0699 -0.3302
   62MOL   C10219744   7.201   4.807  -0.338 -0.3959  0.1229 -0.4689
   62MOL   C10319745   7.350   4.808  -0.383 -0.4377  0.0266 -0.2670
   62MOL   C10419746   7.104   4.808  -0.439  0.1978  0.1868  0.2642
   62MOL   C10519747   6.969   4.835  -0.401 -0.5391 -0.2130  0.1485
   62MOL   H10619748   6.731   4.758  -0.290 -1.0526  0.4787  0.4221
   62MOL   H10719749   6.780   4.794  -0.123 -0.1702 -1.5219 -0.8743
   62MOL   H10819750   7.009   4.847  -0.053  0.7096  2.6776  0.4222
   62MOL   H10919751   7.231   4.839  -0.124 -0.8491 -0.7496  0.3251
   62MOL   H11019752   7.364   4.828  -0.489 -0.0514  1.3750  0.0238
   62MOL   H11119753   7.391   4.883  -0.315 -1.4463  0.2828  0.0729
   62MOL   H11219754   7.120   4.806  -0.545 -3.5448  1.4950 -0.3888
   62MOL   H11319755   6.894   4.837  -0.478 -2.4909  1.7322  2.0115
   62MOL   C11419756   7.416   4.681  -0.347 -0.1339 -0.2458 -0.2741
   62MOL   C11519757   7.564   4.685  -0.398  0.4160 -0.3045  0.0183
   62MOL   C11619758   7.675   4.703  -0.310 -0.5335 -0.3198  0.2339
   62MOL   C11719759   7.808   4.684  -0.346 -0.2304  0.0719 -0.1503
   62MOL   C11819760   7.833   4.673  -0.489 -0.5758  0.3040 -0.5116
   62MOL   C11919761   7.976   4.661  -0.534 -0.2251  0.9679 -0.1276
   62MOL   C12019762   7.728   4.668  -0.582  0.5189 -0.6875  0.2680
   62MOL   C12119763   7.592   4.667  -0.539 -0.1648 -0.1099 -0.2389
   62MOL   H12219764   7.362   4.599  -0.393  0.8464 -0.3516 -1.2594
   62MOL   H12319765   7.418   4.675  -0.238  0.1502 -0.9494 -0.3115
   62MOL   H12419766   7.651   4.712  -0.205 -1.4947 -2.2993  0.2030
   62MOL   H12519767   7.887   4.671  -0.273 -0.6538 -0.2416  0.2530
   62MOL   H12619768   7.971   4.678  -0.642  4.1066 -0.7588 -0.6872
   62MOL   H12719769   8.021   4.745  -0.482 -0.6025  1.1965 -0.1631
   62MOL   H12819770   7.740   4.633  -0.684  1.7773  0.9240 -0.1446
   62MOL   H12919771   7.511   4.647  -0.607 -0.6978 -0.1408  0.4017
   62MOL   C13019772   8.029   4.521  -0.504  0.2988 -0.2398  0.5676
   62MOL   C13119773   8.173   4.510  -0.526 -0.1393  0.3223  0.1140
   62MOL   C13219774   8.217   4.453  -0.643  0.7378  0.0743 -0.3732
   62MOL   C13319775   8.350   4.457  -0.684  0.4552  0.5289  0.0522
   62MOL   C13419776   8.446   4.508  -0.598 -0.0805  1.0151  0.7431
   62MOL   C13519777   8.595   4.513  -0.633  0.2480  0.0644 -0.4078
   62MOL   C13619778   8.403   4.560  -0.472 -0.1375 -0.3603  0.4833
   62MOL   C13719779   8.265   4.562  -0.438 -0.5010 -0.4749 -0.7617
   62MOL   H13819780   7.987   4.436  -0.557 -0.3181  0.3370  0.1123
   62MOL   H13919781   8.006   4.500  -0.400 -1.0851  0.2654  0.3756
   62MOL   H14019782   8.149   4.413  -0.717 -0.0637  0.9480 -0.1145
   62MOL   H14119783   8.375   4.423  -0.784 -1.0388 -2.7722  0.7120
   62MOL   H14219784   8.605   4.549  -0.735  0.0236  0.4102 -0.3061
   62MOL   H14319785   8.647   4.587  -0.572  0.0114  1.0457 -1.3810
   62MOL   H14419786   8.473   4.589  -0.395  1.1917 -3.7440  0.6647
   62MOL   H14519787   8.246   4.619  -0.348  0.0891 -0.1283 -0.8489
   62MOL   C14619788   8.661   4.374  -0.630 -0.5855  0.1580 -0.0404
   62MOL   C14719789   8.809   4.360  -0.669 -0.1635 -0.7023  0.7399
   62MOL   C14819790   8.842   4.356  -0.805  0.1230  0.0132  0.0921
   62MOL   C14919791   8.981   4.364  -0.838 -0.7535  0.2361 -0.2683
   62MOL   C15019792   9.088   4.362  -0.744 -0.1686 -0.6057 -0.0309
   62MOL   C15119793   9.234   4.352  -0.783 -0.3620  0.3285  0.5738
   62MOL   C15219794   9.045   4.368  -0.606 -0.3930  0.4354  0.4477
   62MOL   C15319795   8.906   4.371  -0.571  0.1199  0.4159  0.5018
   62MOL   H15419796   8.610   4.308  -0.701 -0.1077  2.8230 -3.0061
   62MOL   H15519797   8.653   4.328  -0.532  2.0530 -0.6468 -0.1454
   62MOL   H15619798   8.772   4.349  -0.887 -1.9434 -3.8520  2.0488
   62MOL   H15719799   8.999   4.354  -0.944  0.1123 -1.2836  0.0003
   62MOL   H15819800   9.236   4.370  -0.890  1.3407  0.2870  0.5718
   62MOL   H15919801   9.289   4.435  -0.739 -0.3314 -0.4970  2.1206
   62MOL   H16019802   9.119   4.376  -0.528  2.4187 -1.9129 -1.8859
   62MOL   H16119803   8.874   4.371  -0.468 -0.0859  1.3292  0.4435
   62MOL   C16219804   9.307   4.218  -0.747 -0.3442  0.0776  0.8691
   62MOL   C16319805   9.439   4.209  -0.813  0.3562  0.0411  0.5498
   62MOL   C16419806   9.442   4.181  -0.952  0.5326  0.0387 -0.1362
   62MOL   C16519807   9.573   4.160  -1.010  0.1731  0.2941 -0.5693
   62MOL   C16619808   9.694   4.180  -0.937  0.1157 -0.0696  0.4829
   62MOL   C16719809   9.831   4.168  -1.001  0.2557 -0.1873 -0.1397
   62MOL   C16819810   9.682   4.214  -0.802 -0.0344 -0.2803 -0.2739
   62MOL   C16919811   9.559   4.227  -0.740 -0.3416 -0.5186  0.7085
   62MOL   H17019812   9.246   4.133  -0.781  1.5695 -1.6862  1.7510
   62MOL   H17119813   9.327   4.221  -0.640  1.6249 -1.3787  0.5758
   62MOL   H17219814   9.356   4.170  -1.016 -1.0778  0.2406  1.9259
   62MOL   H17319815   9.573   4.125  -1.112 -1.0359 -1.5976  0.0632
   62MOL   H17419816   9.821   4.171  -1.109 -0.1389  2.7977 -0.0784
   62MOL   H17519817   9.901   4.246  -0.970 -1.3426  1.2129  0.0284
   62MOL   H17619818   9.780   4.220  -0.756  0.6765 -2.0658 -1.4786
   62MOL   H17719819   9.563   4.252  -0.635  1.0198  0.2663  0.4651
   62MOL   C17819820   9.890   4.040  -0.955 -0.3027  0.4697 -0.1306
   62MOL   C17919821  10.033   4.016  -1.006 -0.3366 -0.4018 -0.5816
   62MOL   C18019822  10.055   3.996  -1.141 -0.5099 -0.2056  0.0381
   62MOL   C18119823  10.187   3.989  -1.197 -0.1810  0.2428 -0.2609
   62MOL   C18219824  10.298   3.998  -1.111 -0.0838 -0.4639  0.7338
   62MOL   C18319825  10.440   3.986  -1.155 -1.1269  0.1508 -0.4110
   62MOL   C18419826  10.278   4.011  -0.970 -0.0209 -0.1118 -0.6510
   62MOL   C18519827  10.143   4.021  -0.919 -0.3918  0.1012  0.2450
   62MOL   H18619828   9.821   3.957  -0.965  1.7297 -1.5677  1.9070
   62MOL   H18719829   9.912   4.034  -0.848 -1.8739  0.8329  0.2153
   62MOL   H18819830   9.964   3.996  -1.199  1.1599  1.4766 -2.7228
   62MOL   H18919831  10.207   3.966  -1.301 -0.8396 -2.2726  0.1429
   62MOL   H19019832  10.433   3.996  -1.263 -0.1235 -1.8782 -0.6897
   62MOL   H19119833  10.506   4.064  -1.120  0.4219 -0.5234 -1.7783
   62MOL   H19219834  10.362   4.006  -0.902 -0.2083  1.8752 -0.2203
   62MOL   H19319835  10.125   4.037  -0.814 -0.0330  1.5217  0.0937
   62MOL   C19419836  10.496   3.848  -1.124 -0.7705  0.5734 -0.2218
   62MOL   C19519837  10.637   3.851  -1.072 -0.1048 -0.2457 -0.3372
   62MOL   C19619838  10.657   3.829  -0.936  0.3547  0.2941  0.2213
   62MOL   C19719839  10.788   3.824  -0.885 -0.5619  0.1388  0.3651
   62MOL   C19819840  10.898   3.860  -0.966 -0.0667  1.3077 -0.1505
   62MOL   C19919841  11.040   3.855  -0.902 -0.8306 -0.2324  0.5244
   62MOL   C20019842  10.878   3.894  -1.102 -0.3946  0.2616 -0.0477
   62MOL   C20119843  10.746   3.883  -1.156 -0.0980  0.3021  0.8363
   62MOL   H20219844  10.500   3.788  -1.215  0.9708  1.6443 -0.8663
   62MOL   H20319845  10.436   3.791  -1.053  0.9647  0.2923  1.0442
   62MOL   H20419846  10.575   3.812  -0.867  0.8720 -0.3261  0.6914
   62MOL   H20519847  10.807   3.803  -0.781 -0.3771  1.2943  0.5729
   62MOL   H20619848  11.041   3.774  -0.829  1.1164 -1.5922 -0.9467
   62MOL   H20719849  11.108   3.808  -0.973 -1.9072 -1.7494  0.4659
   62MOL   H20819850  10.969   3.918  -1.155  0.9263 -0.4110  1.8545
   62MOL   H20919851  10.731   3.897  -1.262 -1.2414 -1.1293  0.8039
   62MOL   C21019852  11.089   3.990  -0.858 -0.8361  0.0663  0.5030
   62MOL   C21119853  10.991   4.059  -0.767 -0.9220 -0.8677 -0.2961
   62MOL   C21219854  10.936   4.181  -0.817 -0.3011  0.2667 -0.0019
   62MOL   C21319855  10.860   4.273  -0.739  0.0985  0.0475 -0.6108
   62MOL   C21419856  10.827   4.230  -0.610 -0.1744  0.6227  0.0873
   62MOL   C21519857  10.735   4.313  -0.523 -0.6445 -0.5189  0.3701
   62MOL   C21619858  10.873   4.109  -0.556 -0.9351 -0.8182  0.2494
   62MOL   C21719859  10.953   4.024  -0.635  0.1677 -0.4989 -0.4840
   62MOL   H21819860  11.104   4.060  -0.940 -1.2162 -0.9955 -0.4894
   62MOL   H21919861  11.178   3.973  -0.797 -0.6418 -0.7460  0.0175
   62MOL   H22019862  10.956   4.209  -0.919  0.4986 -0.0770  0.0624
   62MOL   H22119863  10.811   4.361  -0.778  2.1648  1.0402 -1.0468
   62MOL   H22219864  10.769   4.309  -0.419 -1.7755 -1.4701  0.7215
   62MOL   H22319865  10.751   4.414  -0.560 -0.0890 -0.8069 -0.1719
   62MOL   H22419866  10.842   4.071  -0.460 -1.0159  0.2546  0.6496
   62MOL   H22519867  10.980   3.928  -0.594  0.4533 -0.3940 -0.4255
   62MOL   C22619868  10.595   4.263  -0.533 -0.2167 -0.2884 -0.3258
   62MOL   C22719869  10.487   4.355  -0.482 -0.3061  0.0791  0.0188
   62MOL   C22819870  10.356   4.322  -0.506 -0.4296  0.7398 -0.0218
   62MOL   C22919871  10.248   4.388  -0.446 -0.1214  0.0838 -0.3570
   62MOL   C23019872  10.279   4.495  -0.355 -0.2179 -0.5103  0.4123
   62MOL   C23119873  10.167   4.573  -0.288 -0.3933 -0.4534 -0.2822
   62MOL   C23219874  10.411   4.532  -0.334  0.5606  0.5250  0.0165
   62MOL   C23319875  10.519   4.463  -0.400 -0.1873  0.2102  0.2665
   62MOL   H23419876  10.581   4.170  -0.477 -1.2933  0.0268 -0.0598
   62MOL   H23519877  10.569   4.234  -0.635 -0.1730 -2.9268  0.3794
   62MOL   H23619878  10.319   4.252  -0.579 -0.1390 -0.1211  0.6477
   62MOL   H23719879  10.149   4.359  -0.480 -0.0571  0.6358 -1.0281
   62MOL   H23819880  10.103   4.499  -0.239  0.9311 -0.8536  0.8668
   62MOL   H23919881  10.211   4.640  -0.214 -1.0862 -0.1128 -0.1838
   62MOL   H24019882  10.425   4.613  -0.264 -1.1978 -0.7933  1.9661
   62MOL   H24119883  10.621   4.490  -0.380  0.2004 -1.4411  0.5320
   62MOL   C24219884  10.096   4.654  -0.390  0.1431 -0.4324 -0.3036
   62MOL   C24319885   9.991   4.742  -0.326 -0.0141  0.4951 -1.4016
   62MOL   C24419886  10.007   4.874  -0.302  0.1262  0.7982  0.0932
   62MOL   C24519887   9.909   4.947  -0.230  0.4556  0.4641 -0.2075
   62MOL   C24619888   9.784   4.886  -0.187  0.7275  0.3103  0.6156
   62MOL   C24719889   9.677   4.963  -0.113 -0.2059  0.1915  0.0757
   62MOL   C24819890   9.758   4.752  -0.232 -0.3466 -0.0323 -0.1482
   62MOL   C24919891   9.862   4.682  -0.293  0.9138 -0.5964  0.2916
   62MOL   H25019892  10.167   4.711  -0.449 -0.6791  0.1445 -0.7583
   62MOL   H25119893  10.047   4.588  -0.462 -2.8401 -2.1138  3.1327
   62MOL   H25219894  10.107   4.913  -0.318  0.0810  0.2948 -1.4832
   62MOL   H25319895   9.933   5.043  -0.185 -2.6129  0.6387  1.1746
   62MOL   H25419896   9.628   4.905  -0.034 -0.1050 -4.1069 -2.8347
   62MOL   H25519897   9.722   5.052  -0.069 -1.1321 -0.1284  1.6978
   62MOL   H25619898   9.657   4.718  -0.218 -0.4375  1.4957  3.6410
   62MOL   H25719899   9.847   4.578  -0.319 -1.8201  0.4600 -2.7800
   62MOL   C25819900   9.568   5.014  -0.211  0.3771 -0.5272  0.7810
   62MOL   C25919901   9.447   5.085  -0.162 -0.4018 -0.1963 -0.1947
   62MOL   C26019902   9.411   5.100  -0.027  0.0549 -0.5566 -0.0498
   62MOL   C26119903   9.285   5.143   0.009  0.3223  0.3760  0.2526
   62MOL   C26219904   9.202   5.203  -0.084  0.0882 -0.2459  0.6273
   62MOL   C26319905   9.069   5.265  -0.045 -0.0401 -0.0152  0.4993
   62MOL   C26419906   9.243   5.213  -0.221 -0.0135  0.8250 -0.0366
   62MOL   C26519907   9.359   5.141  -0.258 -0.2657 -0.7102 -0.7209
   62MOL   H26619908   9.516   4.943  -0.276 -1.6585  2.9265 -1.5216
   62MOL   H26719909   9.616   5.076  -0.287  0.8225  1.9475  2.9951
   62MOL   H26819910   9.467   5.066   0.059  0.0898  0.5030  0.3540
   62MOL   H26919911   9.251   5.120   0.109 -0.9823  0.2318 -0.2176
   62MOL   H27019912   9.048   5.250   0.061  0.2511  0.2554  0.5977
   62MOL   H27119913   9.086   5.372  -0.059 -2.5637  1.0975  4.9107
   62MOL   H27219914   9.186   5.258  -0.301 -2.7570  0.2556  1.5328
   62MOL   H27319915   9.384   5.131  -0.362  0.9206 -0.0138 -0.5132
   62MOL   C27419916   8.957   5.216  -0.140 -0.3340 -0.5478 -0.7457
   62MOL   C27519917   8.823   5.259  -0.091  0.1450 -0.1486 -0.1494
   62MOL   C27619918   8.736   5.329  -0.176 -0.5106 -0.3484  0.2975
   62MOL   C27719919   8.617   5.387  -0.134  0.4207  0.0103 -0.2881
   62MOL   C27819920   8.571   5.359  -0.005 -0.2505  0.3462  0.7916
   62MOL   C27919921   8.433   5.402   0.041 -0.3861  0.6221  0.2419
   62MOL   C28019922   8.657   5.297   0.087 -0.3602  0.3134  0.4298
   62MOL   C28119923   8.781   5.242   0.043 -0.4356  0.0050  0.0535
   62MOL   H28219924   8.972   5.254  -0.240 -0.1751  1.6666  0.0966
   62MOL   H28319925   8.937   5.108  -0.138 -1.2346 -0.3784 -0.0607
   62MOL   H28419926   8.760   5.340  -0.281 -0.8750  1.5095  0.3915
   62MOL   H28519927   8.571   5.457  -0.202 -1.8350 -0.3078  0.8354
   62MOL   H28619928   8.418   5.348   0.134 -0.4040  0.1204 -0.0527
   62MOL   H28719929   8.433   5.510   0.060 -0.3058  0.3719  1.7413
   62MOL   H28819930   8.612   5.260   0.178 -0.6844 -1.2424 -0.3345
   62MOL   H28919931   8.843   5.183   0.109  0.3797  1.7838  0.9026
   62MOL   C29019932   8.332   5.361  -0.064  0.2957  0.3481 -0.0094
   62MOL   C29119933   8.200   5.420  -0.034  0.3702 -0.1751  0.7262
   62MOL   C29219934   8.138   5.382   0.088 -0.3662  0.3427  0.0016
   62MOL   C29319935   8.011   5.436   0.115 -0.3000 -0.3258  0.0097
   62MOL   C29419936   7.953   5.530   0.028 -0.2056 -0.7434 -0.3859
   62MOL   C29519937   7.821   5.606   0.074 -0.4618  0.3210  0.2325
   62MOL   C29619938   8.003   5.544  -0.103 -0.2474 -0.3605  0.1474
   62MOL   C29719939   8.132   5.496  -0.134 -0.3070 -0.0101 -0.8083
   62MOL   H29819940   8.327   5.253  -0.048  0.6217  0.2443 -0.5888
   62MOL   H29919941   8.357   5.388  -0.166  0.3199 -3.2758 -1.0385
   62MOL   H30019942   8.190   5.316   0.157  0.1300  0.7982  0.0642
   62MOL   H30119943   7.969   5.413   0.212  0.0540  1.7245  0.6776
   62MOL   H30219944   7.772   5.534   0.140 -1.5092  0.4556 -0.3919
   62MOL   H30319945   7.852   5.684   0.143  0.5193  0.3356 -0.2089
   62MOL   H30419946   7.943   5.597  -0.175 -1.3779 -0.2596  1.1318
   62MOL   H30519947   8.177   5.504  -0.232  1.8654  0.5072  0.1833
   62MOL   C30619948   7.706   5.635  -0.034 -0.1340 -0.0907  0.5400
   62MOL   C30719949   7.587   5.708   0.009 -0.2424 -0.0327  0.2000
   62MOL   C30819950   7.571   5.758   0.138 -0.4810 -0.0932  0.5449
   62MOL   C30919951   7.444   5.820   0.182  0.4387 -0.2014 -0.3132
   62MOL   C31019952   7.337   5.834   0.090 -0.6491  0.8766 -0.5239
   62MOL   C31119953   7.208   5.911   0.128  0.6273  0.2958  0.2335
   62MOL   C31219954   7.357   5.786  -0.042  0.6384  0.1869 -0.1588
   62MOL   C31319955   7.480   5.730  -0.082 -0.5407 -0.2736 -0.2517
   62MOL   H31419956   7.694   5.539  -0.084  0.0224 -0.1642  0.6438
   62MOL   H31519957   7.760   5.695  -0.107  1.0227  0.6203  1.9593
   62MOL   H31619958   7.648   5.740   0.212  0.9039  0.1776 -0.7815
   62MOL   H31719959   7.436   5.860   0.282  0.4524 -0.9943  0.0068
   62MOL   H31819960   7.198   5.914   0.237 -1.6012 -0.1707  0.0688
   62MOL   H31919961   7.197   6.007   0.078  4.3920  0.7311  0.1235
   62MOL   H32019962   7.278   5.789  -0.115 -1.0921 -0.9840  1.6157
   62MOL   H32119963   7.492   5.711  -0.188 -2.7395  0.9657 -0.7424
   62MOL   H32219964   7.130   5.847   0.087  0.2052 -0.8420  2.7084
   63MOL     C119965   6.435   3.761   1.138  0.0263  0.1011  0.4708
   63MOL     C219966   6.559   3.690   1.154  0.5983 -0.5895  0.6392
   63MOL     C319967   6.620   3.653   1.036  0.1049 -0.4475 -0.2265
   63MOL     C419968   6.736   3.584   1.045 -0.0008  0.2996 -0.1956
   63MOL     C519969   6.796   3.553   1.166 -0.3905  0.1323 -0.2530
   63MOL     C619970   6.917   3.469   1.181  0.4655 -0.7000  0.1216
   63MOL     C719971   6.747   3.607   1.289  0.2116 -0.4245 -1.0814
   63MOL     C819972   6.622   3.668   1.280  0.3576  0.1219 -0.4612
   63MOL     H919973   6.350   3.706   1.097  1.2201 -0.2861 -1.5343
   63MOL    H1019974   6.394   3.790   1.235 -0.3121  0.8194  0.1154
   63MOL    H1119975   6.573   3.666   0.940 -1.7510 -1.8504  0.4486
   63MOL    H1219976   6.783   3.551   0.953  2.2119  2.6089  0.0501
   63MOL    H1319977   6.976   3.485   1.090 -1.5228 -0.8360 -1.2141
   63MOL    H1419978   6.991   3.509   1.250  0.4038  0.4260 -0.4530
   63MOL    H1519979   6.785   3.583   1.387  0.2740  2.1705 -0.4446
   63MOL    H1619980   6.561   3.690   1.366  0.4239  0.9451 -0.6204
   63MOL    H1719981   6.454   3.848   1.076  3.2875 -1.1174 -0.3479
   63MOL    C1819982   6.888   3.316   1.201 -0.3696  0.0740  0.3291
   63MOL    C1919983   7.004   3.230   1.217 -0.1317 -0.4979 -0.6009
   63MOL    C2019984   7.076   3.194   1.105  0.4485  0.6125 -0.0649
   63MOL    C2119985   7.192   3.119   1.114 -1.9145 -0.1089 -0.4948
   63MOL    C2219986   7.229   3.068   1.240  0.1580  0.7444 -0.7843
   63MOL    C2319987   7.353   2.989   1.242 -0.0568 -0.7406 -0.5081
   63MOL    C2419988   7.160   3.101   1.359  0.6165  0.6782 -0.2258
   63MOL    C2519989   7.047   3.182   1.345 -0.0426  0.3830 -0.1182
   63MOL    H2619990   6.820   3.321   1.286 -1.5381 -2.4813 -0.3974
   63MOL    H2719991   6.828   3.274   1.120 -3.3079 -1.8168  3.3730
   63MOL    H2819992   7.047   3.215   1.003 -0.6924 -2.0758 -0.3192
   63MOL    H2919993   7.252   3.094   1.028  0.8824  2.3847  0.6375
   63MOL    H3019994   7.422   3.046   1.305  0.7753 -0.4911 -1.6298
   63MOL    H3119995   7.402   2.988   1.144  1.8206 -1.5796  0.4087
   63MOL    H3219996   7.191   3.062   1.455  0.7268  1.5646  0.1032
   63MOL    H3319997   6.987   3.214   1.429  0.7255 -0.0345  0.5973
   63MOL    C3419998   7.333   2.844   1.300  1.0843  0.6055  0.0588
   63MOL    C3519999   7.453   2.757   1.278  0.8183  0.2416  0.7877
   63MOL    C3620000   7.475   2.713   1.146  0.3087 -0.1955  0.0068
   63MOL    C3720001   7.576   2.624   1.114  0.2187 -0.2572 -0.3715
   63MOL    C3820002   7.672   2.594   1.217 -0.2269  0.3301 -0.5111
   63MOL    C3920003   7.796   2.518   1.177 -0.0827 -0.0813 -0.0324
   63MOL    C4020004   7.652   2.640   1.344  0.3760 -0.8026  0.3637
   63MOL    C4120005   7.545   2.721   1.374  0.7094  0.0920 -0.1970
   63MOL    H4220006   7.256   2.790   1.245  0.1433  1.7689  0.2239
   63MOL    H4320007   7.306   2.842   1.406  0.2427 -0.1771 -0.1594
   63MOL    H4420008   7.417   2.745   1.061  0.6228 -0.9633 -0.5001
   63MOL    H4520009   7.585   2.577   1.017  1.6757 -1.4807  0.3255
   63MOL    H4620010   7.842   2.466   1.261  1.4865  0.6187 -0.4338
   63MOL    H4720011   7.783   2.442   1.100 -2.1314  1.9773 -1.7686
   63MOL    H4820012   7.706   2.609   1.432 -0.7664 -1.8686  0.7114
   63MOL    H4920013   7.534   2.761   1.473  2.6222 -1.9097  0.8535
   63MOL    C5020014   7.907   2.615   1.130  0.1650  0.3805  0.0852
   63MOL    C5120015   8.045   2.542   1.114  0.0762 -0.3337 -0.1971
   63MOL    C5220016   8.086   2.481   0.990  0.7371 -0.4849 -0.0676
   63MOL    C5320017   8.208   2.417   0.975  0.3063 -0.1361  0.5119
   63MOL    C5420018   8.301   2.429   1.078  0.6616  0.5258  0.4027
   63MOL    C5520019   8.432   2.361   1.063 -0.6795  0.3892  0.2322
   63MOL    C5620020   8.276   2.498   1.198  0.8345  0.0805 -0.0803
   63MOL    C5720021   8.147   2.556   1.213 -0.6396  0.1425  0.6785
   63MOL    H5820022   7.925   2.689   1.208 -2.1146  0.5146  0.4993
   63MOL    H5920023   7.881   2.664   1.037  1.7193 -2.1982 -1.7801
   63MOL    H6020024   8.010   2.473   0.913  0.5547 -0.5275  0.1143
   63MOL    H6120025   8.226   2.363   0.883 -2.4089  1.0726 -0.7788
   63MOL    H6220026   8.480   2.352   1.160 -1.2805 -1.1390  0.4030
   63MOL    H6320027   8.414   2.260   1.027  0.1127  0.4972 -0.5011
   63MOL    H6420028   8.348   2.482   1.277  0.0364  0.1917  0.6791
   63MOL    H6520029   8.119   2.598   1.309  0.9349  2.7360  0.0652
   63MOL    C6620030   8.522   2.432   0.957  0.2701  0.1120  0.4517
   63MOL    C6720031   8.650   2.366   0.930  0.5790 -0.4731  0.0935
   63MOL    C6820032   8.680   2.305   0.805 -0.6742 -0.4414 -0.0827
   63MOL    C6920033   8.807   2.235   0.793  0.5893  0.6368  0.4583
   63MOL    C7020034   8.903   2.232   0.896 -0.1327 -0.1154 -0.0319
   63MOL    C7120035   9.034   2.153   0.878  0.1548 -0.0442  0.0253
   63MOL    C7220036   8.877   2.312   1.010  0.6754 -0.5101 -0.6352
   63MOL    C7320037   8.752   2.379   1.030  0.2182  0.1316  0.1156
   63MOL    H7420038   8.521   2.539   0.980 -0.9316 -0.5254  3.6545
   63MOL    H7520039   8.463   2.436   0.866 -0.5052  1.6188  1.0137
   63MOL    H7620040   8.612   2.308   0.721 -0.4696  0.5019 -0.2119
   63MOL    H7720041   8.827   2.178   0.703 -0.9047 -0.1740  0.6141
   63MOL    H7820042   9.017   2.066   0.814 -0.8830  0.8477 -0.9324
   63MOL    H7920043   9.061   2.101   0.970  0.0870 -1.2504 -0.6351
   63MOL    H8020044   8.950   2.311   1.089 -0.5890  1.2883  0.6082
   63MOL    H8120045   8.731   2.445   1.113  1.8646  0.9041 -0.0677
   63MOL    C8220046   9.154   2.246   0.833 -0.7398 -0.1266  0.3887
   63MOL    C8320047   9.288   2.174   0.815 -0.4061 -0.0235 -0.2737
   63MOL    C8420048   9.324   2.098   0.704 -0.2418 -0.0932  0.0768
   63MOL    C8520049   9.446   2.021   0.702  0.2349 -0.0428  1.0976
   63MOL    C8620050   9.548   2.034   0.806  0.2395 -0.2906  1.0083
   63MOL    C8720051   9.680   1.963   0.798 -0.7288  0.1631 -0.5901
   63MOL    C8820052   9.511   2.124   0.911  0.1211 -0.0588  0.5104
   63MOL    C8920053   9.387   2.195   0.915  0.2567 -0.3560  0.4258
   63MOL    H9020054   9.157   2.333   0.898  1.2850 -0.1224  0.3121
   63MOL    H9120055   9.119   2.285   0.737 -0.6623 -1.6576 -0.2832
   63MOL    H9220056   9.259   2.102   0.618 -0.4663  0.6784  0.2755
   63MOL    H9320057   9.458   1.949   0.622 -1.3412  0.1842  0.6547
   63MOL    H9420058   9.675   1.860   0.762 -0.3100  0.3394 -1.1503
   63MOL    H9520059   9.710   1.950   0.902 -0.4256  0.9807 -0.5747
   63MOL    H9620060   9.587   2.135   0.986  0.1399  1.2820  0.3023
   63MOL    H9720061   9.373   2.256   1.002  2.4098 -0.6015  0.9879
   63MOL    C9820062   9.781   2.046   0.725 -0.2216  0.3149  0.3620
   63MOL    C9920063   9.908   1.967   0.720 -0.4902  0.1753  1.2899
   63MOL   C10020064   9.927   1.898   0.598  0.1365  0.8068 -0.2096
   63MOL   C10120065  10.035   1.811   0.583 -0.4595  0.9389  0.3487
   63MOL   C10220066  10.129   1.803   0.694 -0.0724 -0.0034 -0.1700
   63MOL   C10320067  10.255   1.719   0.683  0.2791  0.0647 -0.2646
   63MOL   C10420068  10.108   1.880   0.808  0.0282 -0.3985 -0.6412
   63MOL   C10520069   9.994   1.959   0.826 -1.1288 -0.2537  0.1052
   63MOL   H10620070   9.806   2.135   0.782  2.5897 -0.4757  0.4025
   63MOL   H10720071   9.749   2.076   0.625 -0.8299 -2.5178 -0.3301
   63MOL   H10820072   9.849   1.906   0.522  0.6335  0.2153 -0.7955
   63MOL   H10920073  10.043   1.752   0.493 -0.1957  0.6981  0.5250
   63MOL   H11020074  10.282   1.671   0.777 -1.7703  1.3671  1.0274
   63MOL   H11120075  10.250   1.634   0.616 -0.8152  0.9845 -1.3879
   63MOL   H11220076  10.176   1.876   0.892 -1.6812  0.1321  0.8147
   63MOL   H11320077   9.978   2.016   0.917 -1.2821 -0.3130  0.1150
   63MOL   C11420078  10.374   1.813   0.645 -0.5783 -0.9273  0.7783
   63MOL   C11520079  10.501   1.732   0.633 -0.0989  0.1671 -0.0584
   63MOL   C11620080  10.521   1.661   0.514 -0.1223  0.4320  0.9661
   63MOL   C11720081  10.634   1.574   0.507 -0.1316  0.6522  0.1731
   63MOL   C11820082  10.727   1.585   0.609 -0.2014 -0.3887 -0.0008
   63MOL   C11920083  10.855   1.510   0.599  0.2540  0.0643  0.1433
   63MOL   C12020084  10.708   1.667   0.728  0.0739  0.1165 -0.1443
   63MOL   C12120085  10.590   1.728   0.742  0.1794 -0.0267 -0.1806
   63MOL   H12220086  10.389   1.868   0.738  1.7989 -1.7966  0.9459
   63MOL   H12320087  10.347   1.876   0.561  0.5723  1.5423  2.2270
   63MOL   H12420088  10.444   1.663   0.439  0.7400  0.7017  0.0825
   63MOL   H12520089  10.654   1.521   0.415  1.0375 -1.4541  1.5947
   63MOL   H12620090  10.897   1.496   0.698 -1.0470  0.7571  0.8111
   63MOL   H12720091  10.844   1.409   0.561 -1.5682 -0.0744  0.9857
   63MOL   H12820092  10.788   1.670   0.800  1.3215 -1.5006 -1.4114
   63MOL   H12920093  10.572   1.784   0.833  2.2669 -0.0074  0.2466
   63MOL   C13020094  10.957   1.600   0.524 -0.8326  0.5927  0.6399
   63MOL   C13120095  11.084   1.517   0.514 -0.0209 -0.4131 -0.3569
   63MOL   C13220096  11.176   1.518   0.628  0.7611  0.1090 -0.6154
   63MOL   C13320097  11.290   1.449   0.625 -0.0986 -0.6539 -0.3719
   63MOL   C13420098  11.327   1.378   0.508 -0.1317  0.2349  0.0842
   63MOL   C13520099  11.456   1.283   0.514 -0.0638  1.0059 -0.1532
   63MOL   C13620100  11.233   1.366   0.398 -0.0748  0.4081 -0.2632
   63MOL   C13720101  11.110   1.438   0.399 -0.5937  0.4100  0.0128
   63MOL   H13820102  10.978   1.701   0.559  0.1594  0.6138 -0.0020
   63MOL   H13920103  10.917   1.619   0.425  3.7184 -1.3875 -1.7037
   63MOL   H14020104  11.156   1.574   0.718 -0.1152 -1.4778  0.2013
   63MOL   H14120105  11.361   1.446   0.706 -2.0411 -1.3402  1.3507
   63MOL   H14220106  11.464   1.238   0.613  0.4659 -0.1654 -0.7212
   63MOL   H14320107  11.430   1.207   0.441 -2.7170  0.9097  0.8208
   63MOL   H14420108  11.257   1.302   0.315 -1.0753 -3.8809  2.5930
   63MOL   H14520109  11.045   1.438   0.313  0.5772  2.7069 -0.9011
   63MOL   C14620110  11.582   1.358   0.470 -0.7289  0.7085  0.2269
   63MOL   C14720111  11.704   1.272   0.459  0.2762 -0.1581 -0.6535
   63MOL   C14820112  11.765   1.222   0.578 -0.8446  0.1414  0.5970
   63MOL   C14920113  11.882   1.145   0.572  0.0914 -0.4189 -0.4825
   63MOL   C15020114  11.934   1.108   0.448  0.0849  0.1417 -0.6824
   63MOL   C15120115  12.047   1.005   0.439  0.1576  0.7283  0.6371
   63MOL   C15220116  11.881   1.165   0.328  1.0945 -0.0790  0.5472
   63MOL   C15320117  11.763   1.242   0.336  0.4148  0.5505  0.4826
   63MOL   H15420118  11.605   1.446   0.530 -1.6360  0.1821  1.3648
   63MOL   H15520119  11.554   1.396   0.371  1.3860  0.2469 -0.5787
   63MOL   H15620120  11.714   1.242   0.672  1.2745  0.8270  1.6319
   63MOL   H15720121  11.930   1.099   0.657  0.7901 -1.9444 -1.6751
   63MOL   H15820122  12.044   0.948   0.531 -0.0350 -1.4271 -0.6826
   63MOL   H15920123  12.028   0.930   0.363  1.9647  0.3349  0.5468
   63MOL   H16020124  11.928   1.144   0.234 -0.8161  0.2377 -0.5005
   63MOL   H16120125  11.721   1.275   0.242  0.2024  1.6440  0.9407
   63MOL   C16220126  12.168   1.085   0.415  0.0869  0.2541  0.0057
   63MOL   C16320127  12.292   1.003   0.405 -0.3168  0.4262 -0.6850
   63MOL   C16420128  12.344   0.948   0.521  0.4369 -0.2342  0.0879
   63MOL   C16520129  12.458   0.862   0.519  0.0262 -0.3198  0.5670
   63MOL   C16620130  12.522   0.846   0.395 -0.4131 -0.4834 -0.0877
   63MOL   C16720131  12.640   0.748   0.383  0.2668  0.2638  0.3978
   63MOL   C16820132  12.476   0.910   0.281  0.3836  0.3045  0.5958
   63MOL   C16920133  12.359   0.987   0.283 -0.0510 -0.0248 -0.8330
   63MOL   H17020134  12.198   1.155   0.493  0.3217 -2.4091  2.3782
   63MOL   H17120135  12.159   1.152   0.329  0.2607  1.1164  0.6436
   63MOL   H17220136  12.297   0.975   0.615  1.1830 -0.3449  0.5008
   63MOL   H17320137  12.491   0.825   0.614  0.5062  1.3132  1.0631
   63MOL   H17420138  12.678   0.753   0.281 -2.1479 -0.5873 -0.5958
   63MOL   H17520139  12.721   0.781   0.448  0.6274 -2.4598  1.4088
   63MOL   H17620140  12.514   0.882   0.184 -2.0404  0.8732 -0.5561
   63MOL   H17720141  12.320   1.036   0.196  0.6867 -1.5095 -2.0215
   63MOL   C17820142  12.594   0.611   0.420 -0.1957  0.4294  0.4934
   63MOL   C17920143  12.704   0.506   0.387 -0.0505 -0.2521 -0.2413
   63MOL   C18020144  12.664   0.374   0.357 -0.6658 -0.1571 -0.7345
   63MOL   C18120145  12.767   0.279   0.339 -0.2638  0.0941 -0.2997
   63MOL   C18220146  12.899   0.303   0.367  0.1017  0.0966  0.2289
   63MOL   C18320147  12.999   0.182   0.355 -0.4953  0.0854  0.2907
   63MOL   C18420148  12.935   0.428   0.408  0.2213  0.2116  0.2610
   63MOL   C18520149  12.841   0.533   0.417 -0.3793 -0.2373 -0.2785
   63MOL   H18620150  12.496   0.594   0.375 -1.4125  1.1073  2.8311
   63MOL   H18720151  12.578   0.610   0.528  0.2545  2.8147  0.6050
   63MOL   H18820152  12.562   0.338   0.356 -0.5035 -0.6614  0.1352
   63MOL   H18920153  12.736   0.177   0.320 -1.2124  0.8225 -2.8982
   63MOL   H19020154  12.948   0.086   0.350  0.4377 -0.4707  1.2721
   63MOL   H19120155  13.043   0.210   0.259  0.1055  0.6370  0.7198
   63MOL   H19220156  13.040   0.452   0.422  0.2302  0.2802  0.0839
   63MOL   H19320157  12.858   0.633   0.452 -3.6835 -0.9355  3.7226
   63MOL   C19420158  13.099   0.180   0.474 -0.3686  0.8713 -0.2112
   63MOL   C19520159  13.203   0.059   0.467 -0.0974 -0.2414 -0.2752
   63MOL   C19620160  13.276   0.033   0.350  0.2794  0.0884 -0.2476
   63MOL   C19720161  13.366  -0.077   0.346 -0.0504  0.7901  0.3514
   63MOL   C19820162  13.396  -0.150   0.464  0.5399  0.2812 -0.6941
   63MOL   C19920163  13.497  -0.263   0.463 -0.0130  0.0710  0.2099
   63MOL   C20020164  13.322  -0.118   0.584 -0.3604 -0.3999 -0.4449
   63MOL   C20120165  13.231  -0.014   0.583  0.1922  0.7026  0.1290
   63MOL   H20220166  13.038   0.176   0.564  0.2516 -2.9197  0.1071
   63MOL   H20320167  13.157   0.272   0.470  1.6718 -0.4383 -1.8149
   63MOL   H20420168  13.262   0.082   0.254 -3.2595  1.2065  0.7536
   63MOL   H20520169  13.425  -0.091   0.257 -1.5409  3.0010 -1.0390
   63MOL   H20620170  13.504  -0.340   0.540  1.3426 -0.6683 -0.6455
   63MOL   H20720171  13.459  -0.322   0.380  0.5777 -1.0990  0.7626
   63MOL   H20820172  13.346  -0.163   0.680 -1.3389 -1.1435 -0.5381
   63MOL   H20920173  13.185   0.002   0.679 -1.0937 -1.7210 -0.0391
   63MOL   C21020174  13.642  -0.207   0.434  0.0451 -0.1326  0.3193
   63MOL   C21120175  13.739  -0.321   0.417 -0.2021  0.0218 -0.2056
   63MOL   C21220176  13.855  -0.323   0.496 -0.1655  0.2328 -0.4768
   63MOL   C21320177  13.945  -0.434   0.496  0.1774 -0.0429 -0.6938
   63MOL   C21420178  13.918  -0.548   0.410  0.0260  0.5321 -0.2493
   63MOL   C21520179  14.007  -0.679   0.412 -0.8039  0.4457  0.0976
   63MOL   C21620180  13.816  -0.531   0.315  0.1512 -0.5801 -1.0557
   63MOL   C21720181  13.720  -0.424   0.319 -0.4126 -0.7093 -0.4592
   63MOL   H21820182  13.669  -0.145   0.520 -0.6801 -0.1148  0.5383
   63MOL   H21920183  13.637  -0.148   0.343 -3.1306 -2.1230 -0.8790
   63MOL   H22020184  13.881  -0.243   0.564 -0.2079 -1.0024  1.0287
   63MOL   H22120185  14.010  -0.444   0.581 -0.6059  0.0344 -0.0788
   63MOL   H22220186  14.105  -0.649   0.452 -1.2726  0.9588  0.8772
   63MOL   H22320187  13.982  -0.746   0.494  0.2454  0.1776  0.2125
   63MOL   H22420188  13.796  -0.607   0.242 -1.4369 -1.7300  0.5109
   63MOL   H22520189  13.635  -0.423   0.253 -0.9624 -1.1798  0.2275
   63MOL   C22620190  14.028  -0.739   0.278  0.4558 -0.3672 -0.0815
   63MOL   C22720191  14.135  -0.853   0.286 -0.3642  0.2445  0.2137
   63MOL   C22820192  14.276  -0.830   0.317  0.2953 -0.3311 -0.1894
   63MOL   C22920193  14.373  -0.926   0.314 -0.3457  0.3999 -0.1173
   63MOL   C23020194  14.340  -1.057   0.262  0.0996  0.6406 -0.3395
   63MOL   C23120195  14.444  -1.162   0.256 -0.0073 -0.1622 -0.2519
   63MOL   C23220196  14.209  -1.083   0.230 -0.6679  0.5590  0.0678
   63MOL   C23320197  14.109  -0.986   0.249  0.7139 -0.2399  0.3370
   63MOL   H23420198  14.067  -0.657   0.218  0.0405 -0.4391 -0.4512
   63MOL   H23520199  13.931  -0.779   0.250 -1.4058  1.8284  2.8485
   63MOL   H23620200  14.314  -0.734   0.346 -1.7211 -0.6243  3.7738
   63MOL   H23720201  14.473  -0.916   0.355 -0.5756  2.7386 -0.0618
   63MOL   H23820202  14.536  -1.126   0.303  0.3951 -0.7384 -0.5906
   63MOL   H23920203  14.422  -1.251   0.315  0.9523 -0.3971 -0.2455
   63MOL   H24020204  14.183  -1.178   0.186  3.0062 -0.7163  0.4753
   63MOL   H24120205  14.010  -1.000   0.208  0.2459 -0.5645  1.5449
   63MOL   C24220206  14.482  -1.183   0.104  0.2448 -0.2776  1.0506
   63MOL   C24320207  14.603  -1.273   0.091  0.9662  0.1761 -0.9548
   63MOL   C24420208  14.601  -1.409   0.136  0.3466 -0.0825 -0.2487
   63MOL   C24520209  14.718  -1.487   0.108  0.1011  0.2219  0.2219
   63MOL   C24620210  14.832  -1.428   0.058 -0.2690  0.4096 -0.4523
   63MOL   C24720211  14.958  -1.518   0.055 -0.2839  0.3332 -0.4097
   63MOL   C24820212  14.838  -1.291   0.027  0.3159 -0.5430  0.1901
   63MOL   C24920213  14.723  -1.214   0.042  0.8540  0.7917 -0.6474
   63MOL   H25020214  14.403  -1.221   0.040  2.2008  0.3010 -1.8500
   63MOL   H25120215  14.512  -1.086   0.062  1.0126 -1.1970 -0.5915
   63MOL   H25220216  14.517  -1.457   0.184 -1.2742  1.1306 -1.8329
   63MOL   H25320217  14.720  -1.591   0.136  0.4382  0.6235  1.7628
   63MOL   H25420218  15.023  -1.490   0.138  0.6713 -0.0552 -1.0073
   63MOL   H25520219  14.928  -1.619   0.083 -0.2896  0.1344 -1.1164
   63MOL   H25620220  14.934  -1.249   0.002 -0.9676  2.1030 -0.4385
   63MOL   H25720221  14.744  -1.110   0.017  0.9516  1.8381  3.3871
   63MOL   C25820222  15.035  -1.505  -0.077  0.5434  0.7882  0.7557
   63MOL   C25920223  15.171  -1.567  -0.079  0.3521  0.2923 -0.1548
   63MOL   C26020224  15.290  -1.500  -0.036 -0.1890 -0.2364  0.0066
   63MOL   C26120225  15.415  -1.568  -0.019  0.0124 -0.2508  0.4100
   63MOL   C26220226  15.420  -1.706  -0.039 -0.0137  0.2200  0.1905
   63MOL   C26320227  15.550  -1.782  -0.015 -0.4919  0.6036 -0.4296
   63MOL   C26420228  15.304  -1.778  -0.079  0.7587 -0.2060  0.9620
   63MOL   C26520229  15.183  -1.709  -0.102  0.6140 -0.2573  0.3353
   63MOL   H26620230  15.050  -1.400  -0.104 -0.4329  0.7352 -0.0160
   63MOL   H26720231  14.975  -1.551  -0.155  1.3804 -0.2992  0.7461
   63MOL   H26820232  15.291  -1.394  -0.015  0.0625  0.0044 -1.1843
   63MOL   H26920233  15.506  -1.514   0.004 -0.2405  0.2216  0.3010
   63MOL   H27020234  15.624  -1.717   0.032 -0.4134  0.5172 -0.4313
   63MOL   H27120235  15.527  -1.850   0.067  0.5079 -1.6301 -1.9494
   63MOL   H27220236  15.306  -1.883  -0.105  0.1600  0.2175 -0.9031
   63MOL   H27320237  15.099  -1.769  -0.133  0.7918 -1.4825  2.1598
   63MOL   C27420238  15.598  -1.855  -0.137 -0.7315  0.1365 -0.5693
   63MOL   C27520239  15.740  -1.907  -0.129 -0.5931 -0.2560  0.2894
   63MOL   C27620240  15.780  -1.980  -0.021 -0.2319  0.1880  0.2751
   63MOL   C27720241  15.915  -2.024   0.000  0.7522 -0.0807 -0.5899
   63MOL   C27820242  16.011  -1.987  -0.096  1.1728 -0.1762 -0.1931
   63MOL   C27920243  16.155  -1.995  -0.060 -0.3209 -0.0074 -0.8294
   63MOL   C28020244  15.974  -1.917  -0.212  0.5334 -0.0827 -0.9468
   63MOL   C28120245  15.839  -1.883  -0.225  0.2881 -0.0300  0.1813
   63MOL   H28220246  15.539  -1.947  -0.148 -2.3556  1.3391 -2.1379
   63MOL   H28320247  15.581  -1.793  -0.225  0.6975  3.2413  1.2814
   63MOL   H28420248  15.710  -1.996   0.059 -1.9517  0.9611 -1.0492
   63MOL   H28520249  15.943  -2.071   0.094 -0.1433  1.3257  0.3945
   63MOL   H28620250  16.233  -1.935  -0.108 -0.5933 -0.5026 -1.8931
   63MOL   H28720251  16.167  -1.977   0.047 -0.3025  1.3472 -1.0511
   63MOL   H28820252  16.035  -1.884  -0.294  0.1200  0.6991 -0.9424
   63MOL   H28920253  15.807  -1.822  -0.308  0.3746  2.7399  2.1123
   63MOL   C29020254  16.204  -2.146  -0.079 -0.1048  0.3219  0.3887
   63MOL   C29120255  16.342  -2.167  -0.028  0.4386  0.2669 -0.2862
   63MOL   C29220256  16.361  -2.171   0.115 -0.7407 -0.0516 -0.2456
   63MOL   C29320257  16.495  -2.187   0.163 -0.5447  0.3629  0.1003
   63MOL   C29420258  16.606  -2.187   0.075  0.1451 -0.3867  0.2477
   63MOL   C29520259  16.750  -2.188   0.131  0.4059 -0.6582  0.0565
   63MOL   C29620260  16.585  -2.176  -0.067  0.8271  0.1544  0.7195
   63MOL   C29720261  16.449  -2.172  -0.122 -0.6029 -0.3144  0.8824
   63MOL   H29820262  16.194  -2.164  -0.186 -3.1800 -0.4093  0.7423
   63MOL   H29920263  16.137  -2.213  -0.026 -0.2656 -1.0535 -1.5245
   63MOL   H30020264  16.280  -2.183   0.185 -0.6508 -2.4010 -0.5343
   63MOL   H30120265  16.500  -2.190   0.271  2.0025  0.5799  0.0080
   63MOL   H30220266  16.813  -2.125   0.068  0.3854  0.8971  1.5788
   63MOL   H30320267  16.765  -2.148   0.231 -1.3478  0.4638 -0.1053
   63MOL   H30420268  16.666  -2.175  -0.139 -1.2169  0.2253 -1.6543
   63MOL   H30520269  16.444  -2.163  -0.229  3.9811 -1.0973  0.4992
   63MOL   C30620270  16.812  -2.328   0.121  0.0764  0.0985  0.1538
   63MOL   C30720271  16.949  -2.332   0.193  0.2656 -1.0198 -0.3616
   63MOL   C30820272  16.954  -2.376   0.326  0.2586 -0.3994 -0.1619
   63MOL   C30920273  17.074  -2.375   0.401 -0.3134  0.0146  0.6923
   63MOL   C31020274  17.190  -2.327   0.334  0.4346  0.2798 -0.8292
   63MOL   C31120275  17.318  -2.318   0.425  0.2509 -0.3711  0.5774
   63MOL   C31220276  17.186  -2.298   0.196  0.0888  0.0730 -0.0054
   63MOL   C31320277  17.063  -2.299   0.120 -0.1181 -0.0541 -0.4379
   63MOL   H31420278  16.836  -2.364   0.020 -1.5497 -4.4242  1.2384
   63MOL   H31520279  16.743  -2.396   0.170  1.0955 -0.9034  0.2298
   63MOL   H31620280  16.864  -2.395   0.382  1.5429 -0.0614  2.0848
   63MOL   H31720281  17.071  -2.395   0.507  0.2892  0.5611  0.8134
   63MOL   H31820282  17.297  -2.266   0.519 -1.0628  1.8585 -0.8685
   63MOL   H31920283  17.359  -2.418   0.436  0.9297 -0.0915  0.5622
   63MOL   H32020284  17.283  -2.274   0.155  0.4235 -1.1726  0.0352
   63MOL   H32120285  17.063  -2.277   0.015  1.1016  1.9589 -0.0430
   63MOL   H32220286  17.394  -2.260   0.372 -0.6616  0.0022 -0.3581
   64MOL     C120287   6.945   3.907   1.128  0.1810 -0.5327 -0.4425
   64MOL     C220288   7.076   3.831   1.109  0.4833 -0.2217 -0.2104
   64MOL     C320289   7.176   3.829   1.209  0.8040  0.3133 -0.4031
   64MOL     C420290   7.299   3.759   1.186 -0.5253 -0.1400 -0.3429
   64MOL     C520291   7.321   3.703   1.056 -0.6415 -1.6009  0.1588
   64MOL     C620292   7.452   3.632   1.025  0.7785 -0.1790 -0.3357
   64MOL     C720293   7.220   3.705   0.959  0.0902  0.5328  0.1613
   64MOL     C820294   7.101   3.770   0.986 -0.1642  0.3784  0.4202
   64MOL     H920295   6.869   3.844   1.175  2.3791 -2.3634  0.7818
   64MOL    H1020296   6.972   3.990   1.193  0.1120 -2.1364  1.7044
   64MOL    H1120297   7.162   3.881   1.302 -0.6668 -1.2198  0.2508
   64MOL    H1220298   7.380   3.759   1.258 -2.9965 -2.0434  2.5190
   64MOL    H1320299   7.510   3.642   1.117  0.4194 -0.6476 -0.0615
   64MOL    H1420300   7.444   3.526   1.004  0.9419 -0.9538  3.2272
   64MOL    H1520301   7.245   3.669   0.860 -1.1536 -2.0016  0.7470
   64MOL    H1620302   7.026   3.764   0.908 -1.8456 -0.9318  2.0884
   64MOL    H1720303   6.911   3.939   1.030  0.4826 -0.1077 -0.4092
   64MOL    C1820304   7.523   3.711   0.916  0.2882 -0.3815  0.5623
   64MOL    C1920305   7.660   3.661   0.895  0.1951  0.0311 -0.0755
   64MOL    C2020306   7.697   3.611   0.773  0.4192  0.6964 -0.1391
   64MOL    C2120307   7.828   3.556   0.754  0.7136  0.2494  0.2383
   64MOL    C2220308   7.918   3.549   0.862 -0.6102 -0.2789 -0.3791
   64MOL    C2320309   8.052   3.480   0.854  0.5092 -0.5368  0.2401
   64MOL    C2420310   7.872   3.600   0.987 -0.4561 -0.1713 -0.7060
   64MOL    C2520311   7.745   3.653   1.003 -0.2379  0.5498 -0.5035
   64MOL    H2620312   7.476   3.699   0.819 -1.0007 -2.3710  1.3948
   64MOL    H2720313   7.532   3.819   0.926  1.3409 -0.3601 -0.5035
   64MOL    H2820314   7.633   3.624   0.687  1.7933  3.0954 -0.8592
   64MOL    H2920315   7.860   3.528   0.655  0.5633  0.4808  0.1246
   64MOL    H3020316   8.036   3.372   0.851 -1.0920 -0.2821 -1.7738
   64MOL    H3120317   8.104   3.506   0.946 -0.2564  1.3685  0.1641
   64MOL    H3220318   7.946   3.598   1.065  0.3735  0.4938 -1.4630
   64MOL    H3320319   7.716   3.673   1.105  2.2991 -3.3325  1.1237
   64MOL    C3420320   8.141   3.530   0.733  0.3258  0.0798  0.2617
   64MOL    C3520321   8.282   3.469   0.727 -0.3621 -0.3838  0.3326
   64MOL    C3620322   8.365   3.463   0.844 -0.2558  0.4643  0.2316
   64MOL    C3720323   8.491   3.397   0.840  0.3723  0.1305  0.7654
   64MOL    C3820324   8.538   3.357   0.716  0.2065  0.1200  0.3033
   64MOL    C3920325   8.672   3.292   0.706  0.5442  0.1901 -0.5019
   64MOL    C4020326   8.456   3.351   0.602 -0.2254 -0.4334  0.1600
   64MOL    C4120327   8.328   3.403   0.611  0.1811 -0.2603 -0.1697
   64MOL    H4220328   8.157   3.638   0.743  2.8877 -0.3455  1.3035
   64MOL    H4320329   8.086   3.528   0.639  1.2481  0.9181 -0.3156
   64MOL    H4420330   8.325   3.493   0.939 -0.4776 -1.2492  0.6932
   64MOL    H4520331   8.545   3.385   0.932 -1.5919 -3.5987  1.5342
   64MOL    H4620332   8.720   3.280   0.802 -0.2382  0.4769 -0.0669
   64MOL    H4720333   8.647   3.188   0.684 -1.6236  0.7052 -0.6562
   64MOL    H4820334   8.477   3.294   0.513 -0.0924 -1.6806  0.9646
   64MOL    H4920335   8.265   3.396   0.523 -1.3683  1.0971  0.7900
   64MOL    C5020336   8.763   3.369   0.605  0.1548 -0.6489  0.4174
   64MOL    C5120337   8.889   3.295   0.573  0.0954  0.1953  0.7690
   64MOL    C5220338   8.897   3.211   0.460 -0.0397  0.1173  0.6129
   64MOL    C5320339   9.013   3.148   0.436 -0.2468  0.3284  0.1931
   64MOL    C5420340   9.129   3.169   0.518  0.3605  0.4765  0.3966
   64MOL    C5520341   9.258   3.093   0.496 -0.2733  0.1221 -0.1708
   64MOL    C5620342   9.124   3.245   0.633 -0.4927  0.1762  0.8895
   64MOL    C5720343   9.002   3.315   0.656 -0.0782  0.3315  0.4553
   64MOL    H5820344   8.793   3.467   0.643  1.0036 -1.2668  1.3484
   64MOL    H5920345   8.699   3.392   0.519 -0.0364 -1.8807  0.2292
   64MOL    H6020346   8.814   3.198   0.391  1.0665  0.0155 -0.7269
   64MOL    H6120347   9.029   3.083   0.351  0.5776  1.5680 -0.6213
   64MOL    H6220348   9.285   3.024   0.576 -0.8911 -0.1667 -0.2126
   64MOL    H6320349   9.242   3.026   0.412  0.0310 -0.4617  0.2307
   64MOL    H6420350   9.210   3.242   0.697  0.5983 -1.8795 -0.6188
   64MOL    H6520351   9.000   3.379   0.743 -2.9773  0.4113  0.3894
   64MOL    C6620352   9.370   3.200   0.469  0.1129  1.0929  0.8724
   64MOL    C6720353   9.502   3.126   0.450  0.6590 -0.4055  0.1767
   64MOL    C6820354   9.611   3.157   0.531  0.0143  0.0746 -0.2080
   64MOL    C6920355   9.731   3.087   0.512 -0.2239 -0.2623  0.3062
   64MOL    C7020356   9.741   2.985   0.411 -0.3191 -0.0173 -0.8395
   64MOL    C7120357   9.865   2.895   0.401  0.2448 -0.1420 -0.9486
   64MOL    C7220358   9.632   2.954   0.333  0.2121 -0.7984 -0.0101
   64MOL    C7320359   9.511   3.026   0.351 -0.7110  0.1098 -0.5185
   64MOL    H7420360   9.391   3.270   0.550  1.8257  0.6468  0.8509
   64MOL    H7520361   9.358   3.274   0.390 -1.8127 -1.3247 -1.1766
   64MOL    H7620362   9.601   3.244   0.594  2.5340 -0.0313  0.3684
   64MOL    H7720363   9.819   3.101   0.572 -0.4428 -1.4892  0.9229
   64MOL    H7820364   9.824   2.795   0.392 -0.1856 -0.3104  2.3274
   64MOL    H7920365   9.924   2.891   0.493 -0.0923  0.4635 -0.6977
   64MOL    H8020366   9.641   2.872   0.264  0.0545  0.0293 -1.0325
   64MOL    H8120367   9.429   3.021   0.281 -0.7964  0.9784 -0.4780
   64MOL    C8220368   9.955   2.950   0.291  0.4828 -0.0973  0.2533
   64MOL    C8320369  10.074   2.860   0.262  0.0120  0.4294 -0.3759
   64MOL    C8420370  10.181   2.833   0.352  0.2151 -0.1277 -0.0602
   64MOL    C8520371  10.292   2.752   0.316 -0.1770 -0.5142 -0.4987
   64MOL    C8620372  10.312   2.714   0.183  0.2279  0.1359 -0.7194
   64MOL    C8720373  10.436   2.640   0.143  0.2361 -0.3466 -0.2989
   64MOL    C8820374  10.203   2.735   0.096 -0.3292 -0.0507 -0.5010
   64MOL    C8920375  10.085   2.802   0.132  0.1798  0.3058 -1.1147
   64MOL    H9020376   9.991   3.051   0.310  0.4464  0.1013 -0.7155
   64MOL    H9120377   9.892   2.962   0.203  0.2233  0.3340  0.4907
   64MOL    H9220378  10.193   2.885   0.446 -0.0920  0.1164 -0.1523
   64MOL    H9320379  10.370   2.729   0.388  0.9059  0.0551 -1.4619
   64MOL    H9420380  10.454   2.665   0.039  0.1293  2.0284  0.2040
   64MOL    H9520381  10.422   2.532   0.149  2.0979 -0.5675  0.6665
   64MOL    H9620382  10.203   2.690  -0.002  0.4832 -0.0439 -0.5095
   64MOL    H9720383  10.013   2.815   0.053  0.9440 -0.5507 -1.9665
   64MOL    C9820384  10.567   2.675   0.226 -0.0469  0.3020  0.0051
   64MOL    C9920385  10.686   2.584   0.186  0.3700 -0.4010 -1.1815
   64MOL   C10020386  10.719   2.484   0.267 -0.8256  0.2182 -0.8923
   64MOL   C10120387  10.846   2.423   0.250 -0.6929  0.8301 -0.4840
   64MOL   C10220388  10.926   2.448   0.135  0.1449  0.2527 -0.1785
   64MOL   C10320389  11.054   2.365   0.098 -0.2864 -0.0983  0.0208
   64MOL   C10420390  10.886   2.556   0.048  0.0232 -0.0659 -0.2086
   64MOL   C10520391  10.759   2.617   0.072  0.2417  0.1179  1.1563
   64MOL   H10620392  10.549   2.645   0.329  0.6592  2.2100  0.7207
   64MOL   H10720393  10.589   2.782   0.229 -0.8939  0.6894 -4.3762
   64MOL   H10820394  10.659   2.470   0.356  2.6627  0.5144  1.5831
   64MOL   H10920395  10.873   2.353   0.328  1.4261 -0.5870 -2.4035
   64MOL   H11020396  11.106   2.413   0.015  0.5180 -0.0036  0.5698
   64MOL   H11120397  11.124   2.376   0.181  0.0199 -0.4059 -0.1999
   64MOL   H11220398  10.952   2.579  -0.035  2.1676 -0.3187  1.3989
   64MOL   H11320399  10.722   2.702   0.016 -0.6705 -0.7686  0.4068
   64MOL   C11420400  11.019   2.220   0.058 -0.4173  0.4557  0.1781
   64MOL   C11520401  11.138   2.143   0.001  0.8820  0.0841  0.4570
   64MOL   C11620402  11.257   2.151   0.075  0.0036 -0.1480 -0.2714
   64MOL   C11720403  11.374   2.084   0.023 -1.0884  0.1581 -0.2620
   64MOL   C11820404  11.368   2.010  -0.095 -0.0338 -0.1836 -0.4195
   64MOL   C11920405  11.485   1.932  -0.146 -0.5194 -0.1011  0.1387
   64MOL   C12020406  11.252   2.018  -0.179 -0.6747  0.3969 -0.1693
   64MOL   C12120407  11.141   2.081  -0.125 -0.0129 -0.1238  0.7593
   64MOL   H12220408  10.959   2.232  -0.032 -0.7020  2.6174  0.6298
   64MOL   H12320409  10.973   2.175   0.147  0.6859  1.6904  1.3736
   64MOL   H12420410  11.268   2.196   0.172  1.5261 -2.6741  0.7692
   64MOL   H12520411  11.462   2.073   0.084 -1.1562 -0.6995 -0.3048
   64MOL   H12620412  11.471   1.921  -0.253  0.6560  0.0042 -0.0312
   64MOL   H12720413  11.571   1.995  -0.122 -1.6906  1.1541  1.1288
   64MOL   H12820414  11.251   1.968  -0.274 -2.0131 -0.6591  0.3786
   64MOL   H12920415  11.050   2.088  -0.183 -0.3846  1.7881  1.5055
   64MOL   C13020416  11.507   1.789  -0.090 -0.0074 -0.3300 -0.1335
   64MOL   C13120417  11.630   1.727  -0.165  0.0289  0.3040 -0.5353
   64MOL   C13220418  11.609   1.625  -0.262  0.1869  0.3159  0.6964
   64MOL   C13320419  11.723   1.562  -0.326  0.8417 -0.1193  0.1426
   64MOL   C13420420  11.852   1.613  -0.294  0.5793 -0.1822 -0.8767
   64MOL   C13520421  11.961   1.550  -0.368  0.0470  0.1017 -0.3709
   64MOL   C13620422  11.868   1.722  -0.213 -0.2543  0.0914 -0.2790
   64MOL   C13720423  11.762   1.780  -0.147  0.2416  1.0610  0.1520
   64MOL   H13820424  11.420   1.730  -0.117 -0.3266 -0.5731  1.3644
   64MOL   H13920425  11.525   1.775   0.017  2.9886 -2.0309 -0.8176
   64MOL   H14020426  11.513   1.592  -0.297  1.0679 -2.2262  0.5684
   64MOL   H14120427  11.711   1.485  -0.401  1.2674 -0.2298  0.1890
   64MOL   H14220428  11.919   1.468  -0.426  1.0323 -0.9152  0.3296
   64MOL   H14320429  11.998   1.618  -0.445 -1.4965 -0.0507 -1.2627
   64MOL   H14420430  11.963   1.773  -0.209 -1.5418  2.6148 -1.1262
   64MOL   H14520431  11.778   1.858  -0.074  2.4923  0.9607 -0.1830
   64MOL   C14620432  12.060   1.478  -0.282  0.0500 -0.7190 -0.7562
   64MOL   C14720433  12.180   1.442  -0.360 -0.5016  0.2034 -0.3912
   64MOL   C14820434  12.189   1.329  -0.442  0.2655  0.5070  0.2335
   64MOL   C14920435  12.305   1.284  -0.510  0.2701  0.3422 -0.4264
   64MOL   C15020436  12.423   1.361  -0.501  1.1385  0.2719 -1.1270
   64MOL   C15120437  12.555   1.326  -0.568 -0.2682 -0.9003 -0.4397
   64MOL   C15220438  12.418   1.480  -0.424 -0.1470 -0.0814  0.2851
   64MOL   C15320439  12.296   1.514  -0.356  0.5073 -0.1971 -0.2259
   64MOL   H15420440  12.018   1.394  -0.226  0.7285 -0.6919 -0.1952
   64MOL   H15520441  12.093   1.550  -0.206  0.2024  1.1073 -2.5079
   64MOL   H15620442  12.098   1.272  -0.457 -1.1190  2.8700 -0.6241
   64MOL   H15720443  12.305   1.184  -0.551  2.9170  0.0108  0.2354
   64MOL   H15820444  12.523   1.284  -0.664 -2.7143 -2.0599  0.8209
   64MOL   H15920445  12.615   1.415  -0.587  1.2832 -1.7650  0.2841
   64MOL   H16020446  12.510   1.530  -0.398  0.0270 -0.5159  0.5073
   64MOL   H16120447  12.299   1.594  -0.284  0.4417 -0.4870  0.1010
   64MOL   C16220448  12.647   1.233  -0.486 -0.4566 -0.1054  0.0329
   64MOL   C16320449  12.775   1.193  -0.560 -0.0612 -0.5686  0.3549
   64MOL   C16420450  12.799   1.056  -0.594 -0.1074 -0.3029 -0.2295
   64MOL   C16520451  12.909   1.018  -0.673 -0.0911 -0.0257  0.0661
   64MOL   C16620452  13.000   1.117  -0.714  0.0144 -0.1496  0.5003
   64MOL   C16720453  13.087   1.098  -0.836 -0.7403 -0.0266 -0.6507
   64MOL   C16820454  12.986   1.252  -0.664  0.0628  0.3579  0.3997
   64MOL   C16920455  12.873   1.294  -0.589  0.0295  0.9525  0.4005
   64MOL   H17020456  12.582   1.156  -0.445 -3.7375  1.6030 -1.7405
   64MOL   H17120457  12.670   1.294  -0.398  0.6172  0.9491 -0.9629
   64MOL   H17220458  12.726   0.988  -0.554 -0.0708  0.9634  2.1005
   64MOL   H17320459  12.915   0.916  -0.706  2.8655 -0.0948  0.7341
   64MOL   H17420460  13.056   1.006  -0.886  1.1521 -1.6995  1.1948
   64MOL   H17520461  13.067   1.185  -0.899 -0.9149  0.3436 -0.0924
   64MOL   H17620462  13.057   1.326  -0.699 -2.6045  2.6117 -0.3955
   64MOL   H17720463  12.864   1.394  -0.550 -0.4358  1.4335 -0.9106
   64MOL   C17820464  13.240   1.106  -0.801 -0.3463  0.0545 -0.1388
   64MOL   C17920465  13.337   1.080  -0.919  0.7487  0.4841  0.0651
   64MOL   C18020466  13.465   1.030  -0.899 -0.0508 -0.6684  0.2299
   64MOL   C18120467  13.551   0.988  -1.004 -0.3424  0.1545 -0.1181
   64MOL   C18220468  13.505   0.998  -1.140 -0.1489 -0.2480  0.5144
   64MOL   C18320469  13.603   0.948  -1.249 -0.1002 -0.0678 -0.0313
   64MOL   C18420470  13.381   1.066  -1.165  0.1450 -0.4463 -0.4939
   64MOL   C18520471  13.304   1.104  -1.053 -0.2017 -0.1053  0.3203
   64MOL   H18620472  13.263   1.022  -0.736  1.5121  1.3012  0.8356
   64MOL   H18720473  13.270   1.192  -0.740 -0.0157  1.3784 -2.1174
   64MOL   H18820474  13.503   1.016  -0.799  2.6774  0.3038 -0.6164
   64MOL   H18920475  13.649   0.949  -0.980  0.5050  1.8679 -0.7218
   64MOL   H19020476  13.573   0.978  -1.350  1.1405  1.9798  0.1959
   64MOL   H19120477  13.701   0.987  -1.222  0.0307 -1.7450  2.0753
   64MOL   H19220478  13.355   1.084  -1.268 -2.1578  0.7924  0.2711
   64MOL   H19320479  13.203   1.140  -1.070 -0.0215  1.0871  1.6673
   64MOL   C19420480  13.633   0.795  -1.240  0.7850 -1.3066 -0.1256
   64MOL   C19520481  13.775   0.761  -1.285 -0.0449  0.4024 -0.1512
   64MOL   C19620482  13.871   0.726  -1.191 -0.1744  0.2310 -0.7254
   64MOL   C19720483  13.991   0.670  -1.231 -0.0877  0.5341 -0.1745
   64MOL   C19820484  14.024   0.661  -1.364 -0.3396 -0.4715  0.0194
   64MOL   C19920485  14.168   0.623  -1.407  0.9688  0.5915 -0.0004
   64MOL   C20020486  13.930   0.703  -1.460  0.3124  0.1094  0.8582
   64MOL   C20120487  13.800   0.752  -1.424 -0.1337  0.6063 -0.0654
   64MOL   H20220488  13.566   0.734  -1.300  0.6599  1.0612 -2.4379
   64MOL   H20320489  13.630   0.768  -1.134  1.1887  1.1891  0.5517
   64MOL   H20420490  13.863   0.742  -1.084  1.1722  0.5265 -0.6645
   64MOL   H20520491  14.066   0.654  -1.155  0.3293  0.8393 -0.5184
   64MOL   H20620492  14.185   0.676  -1.500  0.0428 -1.7566 -1.5427
   64MOL   H20720493  14.237   0.658  -1.330 -0.6723  2.1595  0.7879
   64MOL   H20820494  13.954   0.702  -1.565 -0.0780 -3.0959  0.7508
   64MOL   H20920495  13.734   0.804  -1.491 -0.3126  0.8337  0.2860
   64MOL   C21020496  14.191   0.471  -1.415  0.2001  0.0072 -0.5089
   64MOL   C21120497  14.331   0.450  -1.458 -0.1342 -0.4236 -0.0062
   64MOL   C21220498  14.434   0.454  -1.360  0.0413  0.3473  0.4011
   64MOL   C21320499  14.566   0.421  -1.400 -0.7017  0.3840 -0.0519
   64MOL   C21420500  14.604   0.383  -1.522  0.1473  0.3835 -0.0209
   64MOL   C21520501  14.750   0.339  -1.546  0.1921  0.3572  0.2627
   64MOL   C21620502  14.503   0.397  -1.625 -0.1285  0.9975 -0.4440
   64MOL   C21720503  14.367   0.431  -1.592 -0.6805  0.3006  0.6497
   64MOL   H21820504  14.120   0.419  -1.480  0.1248 -0.1647 -0.2876
   64MOL   H21920505  14.171   0.424  -1.319 -0.1731  0.6833 -0.2494
   64MOL   H22020506  14.408   0.464  -1.255 -0.8534 -1.3171  0.3638
   64MOL   H22120507  14.648   0.423  -1.330 -0.8910 -0.0773  0.1906
   64MOL   H22220508  14.756   0.355  -1.654 -1.8755 -0.1888  0.0367
   64MOL   H22320509  14.822   0.416  -1.520 -0.3261  1.2332 -0.8527
   64MOL   H22420510  14.531   0.389  -1.729 -0.0488  0.6125 -0.3940
   64MOL   H22520511  14.291   0.442  -1.668 -2.1136  1.1029  2.1662
   64MOL   C22620512  14.792   0.193  -1.506 -0.3378 -0.1834 -0.3076
   64MOL   C22720513  14.937   0.160  -1.549  0.4288 -0.0302 -0.0336
   64MOL   C22820514  14.959   0.092  -1.671 -0.5931  0.5928 -0.3438
   64MOL   C22920515  15.095   0.074  -1.703  0.0190  0.3410 -0.5148
   64MOL   C23020516  15.203   0.113  -1.622 -0.5989 -0.5194  0.2882
   64MOL   C23120517  15.346   0.081  -1.662  0.1362 -0.0492  0.1931
   64MOL   C23220518  15.171   0.173  -1.496  0.1170 -0.1616 -0.2115
   64MOL   C23320519  15.037   0.203  -1.463 -0.5400 -0.8774  0.3229
   64MOL   H23420520  14.729   0.123  -1.561 -0.0162 -2.0573  1.6787
   64MOL   H23520521  14.778   0.172  -1.400  0.1660  2.8726  0.4175
   64MOL   H23620522  14.872   0.053  -1.723 -1.1514 -0.4292  1.3152
   64MOL   H23720523  15.121   0.023  -1.794  1.3134 -1.9206  1.0763
   64MOL   H23820524  15.373   0.138  -1.751  1.4270 -2.2173 -0.8580
   64MOL   H23920525  15.411   0.113  -1.581  3.2802 -0.2502 -2.2051
   64MOL   H24020526  15.245   0.204  -1.424 -0.1618 -1.1083  0.4915
   64MOL   H24120527  15.006   0.253  -1.372 -0.3806 -0.8006  0.3345
   64MOL   C24220528  15.383  -0.069  -1.668 -0.2823 -0.2025 -0.4387
   64MOL   C24320529  15.525  -0.090  -1.694  0.2098  0.3242  0.1945
   64MOL   C24420530  15.566  -0.158  -1.811  0.4618 -0.1737 -0.1306
   64MOL   C24520531  15.701  -0.172  -1.837 -0.4019 -0.1960  0.2826
   64MOL   C24620532  15.802  -0.125  -1.748  0.3869  0.2526 -0.2761
   64MOL   C24720533  15.950  -0.138  -1.779 -0.2166  0.1769  0.2593
   64MOL   C24820534  15.758  -0.072  -1.629 -0.6364 -0.6948  0.3057
   64MOL   C24920535  15.622  -0.054  -1.600  0.9104 -0.0978  0.1463
   64MOL   H25020536  15.362  -0.118  -1.573 -1.8080  2.2499  0.5535
   64MOL   H25120537  15.329  -0.115  -1.750 -0.3673 -1.8617  0.5282
   64MOL   H25220538  15.501  -0.197  -1.888 -0.8604  1.0510  0.3487
   64MOL   H25320539  15.741  -0.216  -1.927 -0.6932  0.5779 -0.2299
   64MOL   H25420540  15.955  -0.119  -1.886 -0.0986  1.9538  0.5714
   64MOL   H25520541  15.993  -0.059  -1.718  0.0219 -0.5832  1.0975
   64MOL   H25620542  15.827  -0.048  -1.549 -1.2767 -2.5330  1.4501
   64MOL   H25720543  15.599  -0.011  -1.504 -2.7561 -1.3036 -0.1155
   64MOL   C25820544  15.996  -0.277  -1.747  0.4755  0.3003 -0.2681
   64MOL   C25920545  16.138  -0.301  -1.803  0.5001  0.2429  0.6994
   64MOL   C26020546  16.170  -0.321  -1.941  0.5172  0.1237  1.3511
   64MOL   C26120547  16.304  -0.333  -1.983 -0.2585 -0.0257  0.1888
   64MOL   C26220548  16.410  -0.339  -1.883  0.7960 -0.8587  0.7689
   64MOL   C26320549  16.552  -0.371  -1.930 -0.8894  0.8519  0.2319
   64MOL   C26420550  16.378  -0.319  -1.747  0.3893 -0.4947 -0.0513
   64MOL   C26520551  16.246  -0.308  -1.708 -0.1961 -0.2844 -1.0830
   64MOL   H26620552  15.919  -0.344  -1.785  0.0096  1.2577 -1.0072
   64MOL   H26720553  15.998  -0.289  -1.638  1.5754 -1.3732 -0.4472
   64MOL   H26820554  16.092  -0.320  -2.015 -0.3744  3.0731  2.2290
   64MOL   H26920555  16.336  -0.337  -2.086  2.0912 -2.1452  0.9396
   64MOL   H27020556  16.556  -0.473  -1.968 -2.8942  0.8494  0.0031
   64MOL   H27120557  16.587  -0.311  -2.015  0.2235  0.3793  0.3462
   64MOL   H27220558  16.448  -0.308  -1.666  0.2830 -0.7335  0.0736
   64MOL   H27320559  16.226  -0.294  -1.603  2.3927 -0.5394 -0.5163
   64MOL   C27420560  16.653  -0.359  -1.806 -0.0526 -0.3799  0.5142
   64MOL   C27520561  16.795  -0.415  -1.838  0.4349  0.5157 -0.2562
   64MOL   C27620562  16.804  -0.555  -1.838 -0.3073  0.1065  0.0186
   64MOL   C27720563  16.926  -0.614  -1.873 -0.2874  0.6318 -0.4619
   64MOL   C27820564  17.039  -0.538  -1.908  0.6432  0.3998  0.6138
   64MOL   C27920565  17.172  -0.610  -1.929  0.0845 -0.7751  0.0312
   64MOL   C28020566  17.019  -0.398  -1.921 -0.2314 -0.1456 -0.1823
   64MOL   C28120567  16.903  -0.334  -1.879 -0.0993 -0.1561  0.0367
   64MOL   H28220568  16.655  -0.251  -1.788 -2.0741 -0.4902  1.4642
   64MOL   H28320569  16.621  -0.413  -1.718 -0.2000  2.5679  2.3373
   64MOL   H28420570  16.720  -0.619  -1.815 -1.3478  1.6429  0.5550
   64MOL   H28520571  16.931  -0.722  -1.870  0.5116  0.6012 -2.3224
   64MOL   H28620572  17.215  -0.640  -1.834 -1.6202  0.0537  1.0837
   64MOL   H28720573  17.156  -0.698  -1.992  1.6848  1.3280 -3.4915
   64MOL   H28820574  17.104  -0.339  -1.952  0.7690 -1.1494  0.5806
   64MOL   H28920575  16.899  -0.227  -1.877  0.5780 -0.1244 -0.1070
   64MOL   C29020576  17.268  -0.526  -2.018 -0.2347 -0.1316 -0.6399
   64MOL   C29120577  17.384  -0.609  -2.070  0.2362 -0.5955  0.2726
   64MOL   C29220578  17.507  -0.610  -2.003  0.1059 -0.6988  0.6332
   64MOL   C29320579  17.610  -0.695  -2.047  0.7162  0.0965 -0.6042
   64MOL   C29420580  17.594  -0.768  -2.169 -1.0692 -0.2771 -0.2442
   64MOL   C29520581  17.719  -0.842  -2.221  0.6839  0.1046  0.2926
   64MOL   C29620582  17.468  -0.769  -2.235 -0.8519 -0.4775 -0.5080
   64MOL   C29720583  17.364  -0.688  -2.183 -0.4612  0.1609 -0.3730
   64MOL   H29820584  17.308  -0.445  -1.957  0.5700 -1.3285  0.4450
   64MOL   H29920585  17.224  -0.491  -2.111 -0.6840 -0.1830 -0.4486
   64MOL   H30020586  17.529  -0.540  -1.923 -0.2082  2.2509 -1.7761
   64MOL   H30120587  17.704  -0.684  -1.995  0.0155  0.0381  0.6696
   64MOL   H30220588  17.745  -0.904  -2.135  1.3180 -0.4183 -0.2623
   64MOL   H30320589  17.684  -0.913  -2.297 -0.7675  0.3295  0.7441
   64MOL   H30420590  17.454  -0.823  -2.327  0.7671  0.3268 -1.2433
   64MOL   H30520591  17.266  -0.683  -2.230  0.8186  1.5714 -2.9885
   64MOL   C30620592  17.830  -0.742  -2.260 -0.1825  0.5408 -0.3319
   64MOL   C30720593  17.943  -0.804  -2.328  1.1288 -0.0951  0.2539
   64MOL   C30820594  17.997  -0.922  -2.273 -0.4818 -0.7847 -0.3895
   64MOL   C30920595  18.105  -0.991  -2.330 -0.8542 -0.0986 -0.5903
   64MOL   C31020596  18.165  -0.933  -2.441  0.4468  0.6424  0.3400
   64MOL   C31120597  18.295  -0.996  -2.503  0.1982 -0.6996  0.7713
   64MOL   C31220598  18.107  -0.815  -2.498 -0.7755  0.3426  0.0446
   64MOL   C31320599  17.998  -0.750  -2.443 -0.3786  0.3333 -0.0448
   64MOL   H31420600  17.849  -0.691  -2.166 -2.4455 -3.2213  2.2957
   64MOL   H31520601  17.775  -0.675  -2.327  0.8986  0.3769 -1.3846
   64MOL   H31620602  17.949  -0.965  -2.186 -0.5657  0.1378  0.0223
   64MOL   H31720603  18.149  -1.079  -2.285 -1.1832 -1.0895 -2.1615
   64MOL   H31820604  18.278  -1.024  -2.607 -0.9886  0.8806  0.5342
   64MOL   H31920605  18.368  -0.915  -2.509 -1.3611  0.5223 -2.4389
   64MOL   H32020606  18.155  -0.771  -2.585  1.9040 -3.2249 -0.4280
   64MOL   H32120607  17.957  -0.661  -2.488  0.0643  1.8936  2.5521
   64MOL   H32220608  18.334  -1.083  -2.449  3.3027  0.4406  0.4733
   65MOL     C120609   6.528   5.139   5.493  0.6986 -0.1525  0.0483
   65MOL     C220610   6.377   5.125   5.452  0.7859  0.9162 -0.3398
   65MOL     C320611   6.329   5.071   5.332 -0.0267 -0.4917  0.7414
   65MOL     C420612   6.193   5.059   5.302  0.5502 -0.1081  0.4183
   65MOL     C520613   6.098   5.089   5.397  0.0336 -0.2893  0.9112
   65MOL     C620614   5.950   5.063   5.369  0.3539 -0.6120 -1.0874
   65MOL     C720615   6.148   5.162   5.513 -0.0147 -0.4820 -0.0074
   65MOL     C820616   6.283   5.183   5.534  0.2897 -0.4969 -0.2046
   65MOL     H920617   6.535   5.076   5.581 -0.9593 -0.9405 -0.3476
   65MOL    H1020618   6.595   5.088   5.424  0.2635 -0.3630 -0.2214
   65MOL    H1120619   6.404   5.030   5.266 -1.9712  0.4163 -2.1078
   65MOL    H1220620   6.160   5.016   5.209 -0.8840  1.9322 -0.0465
   65MOL    H1320621   5.906   5.163   5.364 -1.7976 -1.4271  0.4108
   65MOL    H1420622   5.931   5.036   5.265 -0.6360 -1.2423 -0.7565
   65MOL    H1520623   6.074   5.201   5.581  1.6943  0.7257  1.2155
   65MOL    H1620624   6.318   5.232   5.624 -1.3382  2.3119 -1.0298
   65MOL    H1720625   6.554   5.243   5.512 -1.5994  0.2694  1.0466
   65MOL    C1820626   5.872   4.979   5.466  0.6821  0.0379 -0.2625
   65MOL    C1920627   5.720   4.971   5.436  0.3894 -1.2201 -0.2783
   65MOL    C2020628   5.669   4.967   5.305 -0.3891  0.1643 -0.2079
   65MOL    C2120629   5.532   4.947   5.277 -0.3613  0.2472 -0.3803
   65MOL    C2220630   5.445   4.927   5.381  0.1595  0.1244 -0.5521
   65MOL    C2320631   5.301   4.903   5.346 -0.1163 -0.7942 -0.9777
   65MOL    C2420632   5.492   4.931   5.514 -0.3479  0.2673 -0.0887
   65MOL    C2520633   5.628   4.959   5.543  0.9737  0.2623  0.8822
   65MOL    H2620634   5.900   4.875   5.447  0.6428 -0.2014  0.9556
   65MOL    H2720635   5.887   5.000   5.572 -1.5051  0.4263 -0.0109
   65MOL    H2820636   5.737   4.977   5.223 -1.6846 -0.4173 -1.3688
   65MOL    H2920637   5.497   4.947   5.175 -2.2601  2.4195  0.2264
   65MOL    H3020638   5.293   4.815   5.283 -1.1284 -0.5153 -1.2517
   65MOL    H3120639   5.255   4.981   5.285  0.3761  0.0242 -0.3178
   65MOL    H3220640   5.430   4.900   5.597 -0.0852 -0.7515 -0.2604
   65MOL    H3320641   5.670   4.949   5.642  0.2198  0.8667  1.2640
   65MOL    C3420642   5.210   4.878   5.476 -0.7283 -0.1275 -0.1000
   65MOL    C3520643   5.059   4.879   5.450  0.5889 -0.4111 -0.1479
   65MOL    C3620644   4.985   4.773   5.499 -0.3931 -0.6177 -0.5959
   65MOL    C3720645   4.844   4.773   5.475  0.4038  0.3974  0.3791
   65MOL    C3820646   4.788   4.880   5.406  0.4789 -0.0747 -0.4897
   65MOL    C3920647   4.636   4.888   5.373 -0.3853  0.2306 -0.4798
   65MOL    C4020648   4.870   4.982   5.355  0.0170  0.4262 -0.1778
   65MOL    C4120649   5.006   4.986   5.383  0.2772  0.1757 -0.3527
   65MOL    H4220650   5.225   4.960   5.546  0.1915  0.4035 -0.9073
   65MOL    H4320651   5.240   4.787   5.526 -1.2471 -0.2876 -0.0765
   65MOL    H4420652   5.029   4.687   5.547  1.6600  0.5376 -0.3699
   65MOL    H4520653   4.783   4.702   5.528 -0.3625  0.6000 -0.2286
   65MOL    H4620654   4.621   4.951   5.285 -0.1585  0.6938 -0.1916
   65MOL    H4720655   4.604   4.787   5.350  0.4845 -0.3202  0.7138
   65MOL    H4820656   4.827   5.070   5.309 -1.2776  0.4128  0.9875
   65MOL    H4920657   5.060   5.078   5.370 -0.0655  0.4438  0.0757
   65MOL    C5020658   4.559   4.932   5.494 -0.0597  0.5628  0.1409
   65MOL    C5120659   4.409   4.926   5.483  0.0779 -0.6402 -0.1386
   65MOL    C5220660   4.338   4.817   5.526  0.3199  0.0798 -0.3817
   65MOL    C5320661   4.198   4.823   5.523  0.3685 -0.0301 -0.0272
   65MOL    C5420662   4.123   4.930   5.467 -0.4653  0.6655  0.5854
   65MOL    C5520663   3.971   4.928   5.466  0.5748 -0.1600  0.4412
   65MOL    C5620664   4.195   5.034   5.410 -0.6854 -0.4367  0.7819
   65MOL    C5720665   4.334   5.034   5.431 -0.1932  0.3490  0.9173
   65MOL    H5820666   4.592   5.027   5.536  0.9344 -0.2792  1.2816
   65MOL    H5920667   4.579   4.856   5.569 -0.3259 -0.6168 -0.9710
   65MOL    H6020668   4.385   4.732   5.574 -0.9235 -0.2453  0.2710
   65MOL    H6120669   4.141   4.742   5.565  0.6135  0.7649  1.9330
   65MOL    H6220670   3.937   5.028   5.440 -1.7528 -1.1258 -0.3102
   65MOL    H6320671   3.936   4.856   5.392 -0.9352  0.6692  0.3278
   65MOL    H6420672   4.150   5.126   5.377  3.4702  1.0179 -1.1162
   65MOL    H6520673   4.391   5.119   5.396 -0.9399  0.0715 -1.0192
   65MOL    C6620674   3.911   4.895   5.603 -0.4007  0.0727  0.3676
   65MOL    C6720675   3.760   4.907   5.614  0.7702  0.1370  0.1357
   65MOL    C6820676   3.666   4.816   5.555  0.1355  0.4522  0.3547
   65MOL    C6920677   3.526   4.825   5.574 -0.3546 -0.4399 -0.1959
   65MOL    C7020678   3.482   4.922   5.675  0.0615  0.1708 -1.1665
   65MOL    C7120679   3.338   4.916   5.719  0.3070 -0.5864  0.4973
   65MOL    C7220680   3.571   5.012   5.731  0.0587  0.2430 -0.1546
   65MOL    C7320681   3.705   5.009   5.695 -0.2021  0.5237 -0.1074
   65MOL    H7420682   3.954   4.968   5.673  1.0334 -0.6714  0.2664
   65MOL    H7520683   3.947   4.806   5.654 -1.5440 -0.0842  0.9207
   65MOL    H7620684   3.694   4.743   5.480  0.2678  0.1151  0.7358
   65MOL    H7720685   3.448   4.754   5.553 -1.3020  0.5361  0.0257
   65MOL    H7820686   3.344   4.925   5.828 -2.3974  2.3039  0.4597
   65MOL    H7920687   3.301   4.815   5.701  0.5060 -0.4382 -0.7979
   65MOL    H8020688   3.540   5.093   5.796 -1.4150 -0.6727  0.2948
   65MOL    H8120689   3.772   5.081   5.740 -1.8358  1.5365  0.7346
   65MOL    C8220690   3.269   5.032   5.651 -0.3282 -0.3451 -0.1472
   65MOL    C8320691   3.119   5.053   5.676  1.0562 -0.2891 -0.0488
   65MOL    C8420692   3.088   5.104   5.807  0.0307  0.4845  0.2821
   65MOL    C8520693   2.954   5.124   5.844  0.7929 -0.2314 -0.2722
   65MOL    C8620694   2.850   5.092   5.750 -0.2192 -0.1079  0.1739
   65MOL    C8720695   2.704   5.134   5.782  1.2066 -0.2631 -0.3579
   65MOL    C8820696   2.885   5.056   5.614 -0.1277 -0.1133 -0.0102
   65MOL    C8920697   3.019   5.031   5.578  0.6183  0.4140  1.1372
   65MOL    H9020698   3.291   5.018   5.545 -0.2295  0.2475 -0.2034
   65MOL    H9120699   3.318   5.126   5.673 -1.1918  0.4799 -1.6746
   65MOL    H9220700   3.164   5.132   5.878  3.1806 -1.9356 -1.9770
   65MOL    H9320701   2.933   5.169   5.940  0.2685 -1.1111  0.0324
   65MOL    H9420702   2.682   5.230   5.735 -1.7470 -1.1362 -0.9128
   65MOL    H9520703   2.694   5.161   5.887 -1.3124  0.2696 -0.7068
   65MOL    H9620704   2.804   5.036   5.544 -1.0054 -0.0969  0.9916
   65MOL    H9720705   3.047   4.995   5.480 -0.5465 -0.3667  1.0788
   65MOL    C9820706   2.593   5.034   5.736  0.0239  0.2041 -0.4143
   65MOL    C9920707   2.452   5.083   5.784  0.4321 -0.5788  0.0961
   65MOL   C10020708   2.392   5.193   5.722 -0.6274 -0.1542 -0.2481
   65MOL   C10120709   2.268   5.243   5.758 -0.4397 -0.1579 -0.2017
   65MOL   C10220710   2.193   5.177   5.863  0.4654 -0.3917  0.2743
   65MOL   C10320711   2.048   5.207   5.885  0.4043 -0.1673  0.2121
   65MOL   C10420712   2.253   5.065   5.930 -0.7850 -0.1694 -0.0009
   65MOL   C10520713   2.381   5.022   5.890 -0.1339  0.6891  0.5400
   65MOL   H10620714   2.615   4.934   5.775 -1.0208 -0.7190 -2.0992
   65MOL   H10720715   2.603   5.023   5.628  0.0541 -0.4734 -0.3477
   65MOL   H10820716   2.444   5.241   5.641  0.8284 -2.6843 -0.8633
   65MOL   H10920717   2.214   5.319   5.704 -0.8680 -0.4053 -0.1242
   65MOL   H11020718   2.031   5.213   5.992  2.1727 -0.9423  0.5577
   65MOL   H11120719   2.036   5.303   5.835  1.6877 -0.3511 -0.4810
   65MOL   H11220720   2.192   5.015   6.003 -1.3132 -1.2928 -1.1877
   65MOL   H11320721   2.426   4.944   5.950  0.4849  0.5580 -0.0913
   65MOL   C11420722   1.950   5.097   5.829  0.2213  0.2867  0.1624
   65MOL   C11520723   1.802   5.108   5.870 -0.4499  0.0040  0.2321
   65MOL   C11620724   1.699   5.059   5.784 -0.1840 -0.1719  0.1815
   65MOL   C11720725   1.564   5.061   5.824  0.7680  0.5133  0.4793
   65MOL   C11820726   1.528   5.091   5.959  1.0130  0.5753  0.3174
   65MOL   C11920727   1.384   5.088   5.997  0.0793 -0.1127 -0.2323
   65MOL   C12020728   1.630   5.140   6.041 -0.1101 -0.1278 -0.4749
   65MOL   C12120729   1.767   5.138   6.004  0.6561  0.1710  0.2270
   65MOL   H12220730   1.984   5.005   5.876  2.0310  0.4393 -0.8276
   65MOL   H12320731   1.959   5.085   5.721  0.1888  0.2284  0.1655
   65MOL   H12420732   1.721   5.014   5.689  3.0260 -0.3341  0.9557
   65MOL   H12520733   1.484   5.028   5.759  1.2978  1.0562 -0.4572
   65MOL   H12620734   1.387   5.132   6.096 -0.8751 -0.1140 -0.1934
   65MOL   H12720735   1.323   5.153   5.934  0.0766  1.3338  1.2579
   65MOL   H12820736   1.616   5.153   6.147 -0.5330 -0.2869 -0.5087
   65MOL   H12920737   1.846   5.138   6.078  2.7712  1.5755 -1.9205
   65MOL   C13020738   1.328   4.942   6.002 -0.2971  0.2801 -0.0400
   65MOL   C13120739   1.184   4.927   6.042  0.0594 -0.3082  0.1152
   65MOL   C13220740   1.083   4.924   5.943 -0.5094  0.3837  0.1924
   65MOL   C13320741   0.946   4.926   5.980 -1.1305 -0.7451 -0.4112
   65MOL   C13420742   0.910   4.927   6.115  0.4282 -0.1109  0.3649
   65MOL   C13520743   0.764   4.946   6.160  0.2315 -0.2997  0.8008
   65MOL   C13620744   1.009   4.913   6.213 -0.1296  0.1584 -0.5519
   65MOL   C13720745   1.146   4.906   6.178  0.2571  0.0956 -0.6351
   65MOL   H13820746   1.384   4.886   6.078  0.6470  0.6673 -0.4426
   65MOL   H13920747   1.326   4.880   5.913 -0.9967 -0.0691  0.2174
   65MOL   H14020748   1.112   4.936   5.840 -3.2673 -0.0838 -0.6791
   65MOL   H14120749   0.872   4.944   5.904  1.0106  1.6532 -2.0022
   65MOL   H14220750   0.699   4.875   6.109  0.2422  0.1617  0.1496
   65MOL   H14320751   0.762   4.924   6.267  0.8232  0.3557  0.9524
   65MOL   H14420752   0.978   4.900   6.316 -0.5131  1.4267 -0.5012
   65MOL   H14520753   1.208   4.880   6.262  0.0631 -0.7350 -0.7409
   65MOL   C14620754   0.710   5.087   6.138  0.2776 -0.1161  0.4392
   65MOL   C14720755   0.558   5.096   6.178 -0.1309 -0.5271  0.7424
   65MOL   C14820756   0.519   5.130   6.310 -0.1947  0.0340 -0.5327
   65MOL   C14920757   0.384   5.150   6.349 -0.4660 -0.1465 -0.1611
   65MOL   C15020758   0.285   5.143   6.249  0.8165  0.7126  0.2768
   65MOL   C15120759   0.147   5.180   6.279  0.5029  0.3974  0.0856
   65MOL   C15220760   0.321   5.093   6.120  0.2869 -0.7656  0.4785
   65MOL   C15320761   0.458   5.061   6.090  0.2391  0.0377  0.0289
   65MOL   H15420762   0.726   5.114   6.033  0.7792  1.0561  0.8075
   65MOL   H15520763   0.767   5.149   6.207 -0.9494  0.3521  1.0472
   65MOL   H15620764   0.597   5.147   6.382  0.9382  1.1770 -1.9754
   65MOL   H15720765   0.359   5.179   6.450 -1.0353  0.2984 -0.4287
   65MOL   H15820766   0.145   5.240   6.370  0.2460  1.6969 -0.7699
   65MOL   H15920767   0.113   5.245   6.199 -1.4528 -0.0059  0.5537
   65MOL   H16020768   0.244   5.081   6.045 -0.6672 -3.4306  1.8003
   65MOL   H16120769   0.494   5.015   5.999  0.6047 -0.3029  0.3486
   65MOL   C16220770   0.046   5.070   6.297  0.2256  0.2463  0.1618
   65MOL   C16320771  -0.093   5.136   6.288 -0.1090  0.7923  0.3845
   65MOL   C16420772  -0.175   5.112   6.174 -0.6873 -0.5264 -0.7336
   65MOL   C16520773  -0.302   5.166   6.174  0.4836 -0.0390  0.7561
   65MOL   C16620774  -0.352   5.245   6.278 -0.8327  0.8147  0.8488
   65MOL   C16720775  -0.497   5.304   6.261  0.0743 -0.7059  0.1940
   65MOL   C16820776  -0.272   5.269   6.392 -0.4641  0.6301 -0.0627
   65MOL   C16920777  -0.139   5.212   6.398  0.4022  0.2936  0.5316
   65MOL   H17020778   0.055   5.024   6.395 -0.4858  0.8312  0.5161
   65MOL   H17120779   0.061   4.992   6.223  0.2999 -1.0328  1.5070
   65MOL   H17220780  -0.130   5.059   6.092 -1.3666 -2.4052  0.0788
   65MOL   H17320781  -0.362   5.139   6.089  1.2665  1.1491 -0.1850
   65MOL   H17420782  -0.507   5.388   6.329  2.1414 -0.7336  0.5636
   65MOL   H17520783  -0.514   5.330   6.156 -0.3798 -1.9429 -0.0488
   65MOL   H17620784  -0.309   5.333   6.471 -0.2922  0.2296  0.3469
   65MOL   H17720785  -0.080   5.226   6.488 -0.7875 -0.7687  1.5032
   65MOL   C17820786  -0.601   5.204   6.318 -0.1015 -0.0437 -0.2855
   65MOL   C17920787  -0.742   5.266   6.342 -0.2048 -0.1861 -0.4115
   65MOL   C18020788  -0.761   5.353   6.452 -0.6047 -0.3582 -0.0916
   65MOL   C18120789  -0.882   5.405   6.489  0.4551  0.7896 -0.1692
   65MOL   C18220790  -0.993   5.384   6.405  0.0069  0.3753  0.0232
   65MOL   C18320791  -1.121   5.463   6.432  0.5296  0.5374 -0.8342
   65MOL   C18420792  -0.973   5.299   6.293  0.2329  0.4966 -0.6999
   65MOL   C18520793  -0.850   5.245   6.260  0.3941 -0.4182  0.4972
   65MOL   H18620794  -0.555   5.153   6.403  1.8106  0.4888 -0.9629
   65MOL   H18720795  -0.608   5.121   6.247 -1.5598 -0.7204  0.6183
   65MOL   H18820796  -0.669   5.374   6.505  0.4325 -0.2269 -1.9037
   65MOL   H18920797  -0.897   5.472   6.572 -1.2383 -0.0527  0.2124
   65MOL   H19020798  -1.089   5.554   6.483 -0.4387  1.5049 -1.9231
   65MOL   H19120799  -1.175   5.479   6.339 -0.2029  0.1156 -0.4849
   65MOL   H19220800  -1.057   5.275   6.229 -1.2341 -0.1653  1.4150
   65MOL   H19320801  -0.841   5.177   6.176 -0.4621 -0.9913  0.8608
   65MOL   C19420802  -1.218   5.384   6.524 -0.5784  0.4741 -0.0912
   65MOL   C19520803  -1.332   5.469   6.584  0.4511 -0.6160  0.8577
   65MOL   C19620804  -1.331   5.528   6.710  0.1825  0.0601  0.6043
   65MOL   C19720805  -1.433   5.597   6.764 -0.4025  0.0472 -0.1538
   65MOL   C19820806  -1.555   5.614   6.691 -0.2912  0.2943  0.7434
   65MOL   C19920807  -1.678   5.682   6.763 -0.8025 -0.4197  0.6103
   65MOL   C20020808  -1.560   5.559   6.558 -0.1440 -0.3677 -0.2290
   65MOL   C20120809  -1.442   5.502   6.503  0.3951  0.6329  0.3167
   65MOL   H20220810  -1.154   5.335   6.597  0.5358  1.0516 -0.6768
   65MOL   H20320811  -1.272   5.305   6.471 -1.3596 -0.1478  1.5772
   65MOL   H20420812  -1.255   5.500   6.782  0.8054  1.0733  0.3482
   65MOL   H20520813  -1.429   5.619   6.869  1.3213  0.0959 -0.2215
   65MOL   H20620814  -1.630   5.751   6.832 -0.5664 -1.7061  1.7755
   65MOL   H20720815  -1.716   5.735   6.676  1.1598  1.6450  0.9836
   65MOL   H20820816  -1.648   5.572   6.497 -0.4288 -1.6830 -0.1222
   65MOL   H20920817  -1.443   5.463   6.403  0.1157  0.2621  0.4619
   65MOL   C21020818  -1.783   5.582   6.814 -0.7247 -0.4927  0.1726
   65MOL   C21120819  -1.910   5.657   6.849  0.3055 -0.2818 -0.4495
   65MOL   C21220820  -1.941   5.690   6.984 -0.1952 -0.3165  0.9664
   65MOL   C21320821  -2.058   5.763   7.021  0.2405 -0.2265 -0.4252
   65MOL   C21420822  -2.137   5.814   6.914  1.2808  0.2887  0.3187
   65MOL   C21520823  -2.266   5.877   6.946  0.8973 -0.0407 -0.2513
   65MOL   C21620824  -2.104   5.787   6.780  0.2033 -0.3619  0.0515
   65MOL   C21720825  -1.998   5.701   6.751  0.0566  0.2882  0.2919
   65MOL   H21820826  -1.735   5.531   6.898  1.5117  2.6708  0.9345
   65MOL   H21920827  -1.793   5.506   6.737  2.2753 -1.2172  0.4524
   65MOL   H22020828  -1.868   5.664   7.059  0.0615  1.2834  1.2989
   65MOL   H22120829  -2.074   5.784   7.126  0.7727  0.3288 -0.4476
   65MOL   H22220830  -2.248   5.954   7.022 -1.1702  1.0887 -0.8389
   65MOL   H22320831  -2.304   5.944   6.868  0.2438 -0.5340 -0.3555
   65MOL   H22420832  -2.146   5.828   6.689 -0.1108  0.5250  0.5951
   65MOL   H22520833  -1.977   5.666   6.652  1.6640  2.0413 -0.0258
   65MOL   C22620834  -2.363   5.776   6.993  0.1767 -0.1990  0.0055
   65MOL   C22720835  -2.487   5.838   7.039  1.2343  0.4076  0.1968
   65MOL   C22820836  -2.514   5.843   7.178  0.0506  0.0723 -0.5060
   65MOL   C22920837  -2.631   5.906   7.221 -0.2375  0.0389  0.6846
   65MOL   C23020838  -2.724   5.962   7.128  0.9983  0.0240  0.0022
   65MOL   C23120839  -2.850   6.036   7.174  0.2875 -1.1588  0.4260
   65MOL   C23220840  -2.699   5.946   6.991 -0.1967 -0.1144  0.1491
   65MOL   C23320841  -2.575   5.896   6.949 -0.2558 -1.1716  0.6670
   65MOL   H23420842  -2.318   5.722   7.076  0.2773 -0.8606 -0.4707
   65MOL   H23520843  -2.382   5.701   6.915  1.1653 -3.0840  2.4344
   65MOL   H23620844  -2.442   5.790   7.239 -0.9441 -2.8465 -1.7744
   65MOL   H23720845  -2.656   5.919   7.325 -1.8301 -0.2583  0.3579
   65MOL   H23820846  -2.818   6.106   7.251  1.8923  0.8429 -1.9836
   65MOL   H23920847  -2.884   6.100   7.092 -1.6526 -0.3664  1.8108
   65MOL   H24020848  -2.763   5.987   6.915 -0.1670 -1.3804 -0.5636
   65MOL   H24120849  -2.535   5.903   6.849 -0.5864  2.6242  0.7402
   65MOL   C24220850  -2.959   5.941   7.225 -0.4949  0.2405  0.5788
   65MOL   C24320851  -3.088   6.001   7.267  0.5240 -0.2345 -0.1406
   65MOL   C24420852  -3.115   6.030   7.403  0.1433 -1.0150 -0.2498
   65MOL   C24520853  -3.242   6.070   7.453  0.5991 -0.1895  0.3063
   65MOL   C24620854  -3.345   6.084   7.355  0.3662  0.0348 -0.1770
   65MOL   C24720855  -3.485   6.125   7.408 -0.1093 -0.1152  0.2440
   65MOL   C24820856  -3.329   6.047   7.219  0.2130 -0.4239  0.3008
   65MOL   C24920857  -3.200   6.013   7.177 -0.1924  0.5623 -0.4192
   65MOL   H25020858  -2.972   5.864   7.149 -0.6151  1.6573 -0.8612
   65MOL   H25120859  -2.917   5.888   7.310  0.8371 -1.7045 -1.2292
   65MOL   H25220860  -3.038   6.008   7.474 -0.0668  0.4211  0.4413
   65MOL   H25320861  -3.255   6.089   7.559 -1.6890 -1.2157  0.2236
   65MOL   H25420862  -3.536   6.166   7.321  2.4016 -0.3615 -1.3820
   65MOL   H25520863  -3.545   6.037   7.435 -1.7340  0.5261 -1.2201
   65MOL   H25620864  -3.411   6.045   7.149 -0.7598 -1.8888  1.4641
   65MOL   H25720865  -3.188   5.978   7.076  2.1963 -0.1117  0.0467
   65MOL   C25820866  -3.486   6.240   7.513  0.3000 -0.3143 -0.1037
   65MOL   C25920867  -3.628   6.260   7.565  0.1379 -0.9766 -0.4421
   65MOL   C26020868  -3.733   6.295   7.478  0.0666 -0.5739  0.1972
   65MOL   C26120869  -3.863   6.320   7.520 -0.1661 -0.1493  0.2899
   65MOL   C26220870  -3.887   6.313   7.660  0.6762 -0.7695  0.5204
   65MOL   C26320871  -4.026   6.352   7.706  0.8552 -0.5497  0.1589
   65MOL   C26420872  -3.781   6.287   7.750  0.0858  0.0334  0.1700
   65MOL   C26520873  -3.654   6.257   7.705  0.0696  0.3555  0.7539
   65MOL   H26620874  -3.452   6.336   7.476 -2.0415  1.4961  2.2442
   65MOL   H26720875  -3.424   6.222   7.602 -0.4822  0.1533  0.5402
   65MOL   H26820876  -3.711   6.314   7.373  2.9357 -0.9269  0.6948
   65MOL   H26920877  -3.944   6.344   7.453 -0.6128  0.8704  1.1805
   65MOL   H27020878  -4.083   6.357   7.613  0.0017  2.1512  0.7776
   65MOL   H27120879  -4.074   6.275   7.767  0.1412  1.2891  1.9757
   65MOL   H27220880  -3.799   6.281   7.856  3.5398 -0.7636  0.7999
   65MOL   H27320881  -3.570   6.238   7.770  0.6940  1.7301  0.3578
   65MOL   C27420882  -4.025   6.484   7.784  0.3602 -0.5582 -0.4782
   65MOL   C27520883  -4.160   6.531   7.836  0.0370  0.3610  0.1047
   65MOL   C27620884  -4.172   6.564   7.971 -0.3970 -0.1194 -0.2438
   65MOL   C27720885  -4.298   6.610   8.022  0.5498  0.0616  0.4798
   65MOL   C27820886  -4.411   6.624   7.939  0.3820 -0.3563  0.5064
   65MOL   C27920887  -4.541   6.690   7.978 -0.2124  0.8285 -0.2793
   65MOL   C28020888  -4.398   6.590   7.800 -0.2867 -0.3258 -0.0259
   65MOL   C28120889  -4.271   6.553   7.750  0.4836  0.4289  0.5667
   65MOL   H28220890  -3.948   6.482   7.861 -0.1314  1.0371  0.0716
   65MOL   H28320891  -3.974   6.558   7.723 -0.2711  0.3791  0.1204
   65MOL   H28420892  -4.094   6.554   8.044 -0.4254 -0.1796 -0.2212
   65MOL   H28520893  -4.317   6.634   8.126  1.3451  0.6077  0.4968
   65MOL   H28620894  -4.624   6.653   7.918 -0.6953  0.9958  0.2801
   65MOL   H28720895  -4.565   6.665   8.082 -1.7950 -0.0006 -0.8297
   65MOL   H28820896  -4.480   6.609   7.732 -0.6737  0.0262  0.5356
   65MOL   H28920897  -4.265   6.535   7.643  1.7546  3.5763  0.0733
   65MOL   C29020898  -4.531   6.844   7.979 -0.5765 -0.5560  0.3662
   65MOL   C29120899  -4.651   6.899   8.040  0.2990 -1.2543  0.2002
   65MOL   C29220900  -4.766   6.927   7.962  0.2561  0.3885 -0.7519
   65MOL   C29320901  -4.886   6.973   8.023 -0.6601 -0.2654  0.3876
   65MOL   C29420902  -4.892   7.002   8.166  0.2766  0.3529  0.7880
   65MOL   C29520903  -5.018   7.063   8.223 -0.2706 -0.2186  0.1977
   65MOL   C29620904  -4.783   6.964   8.237 -0.7831 -0.4133  0.0568
   65MOL   C29720905  -4.664   6.920   8.177  0.0698  0.0376  0.2281
   65MOL   H29820906  -4.531   6.865   7.872 -1.9869 -2.8632 -0.1150
   65MOL   H29920907  -4.440   6.864   8.036 -0.6502  4.7651 -1.1225
   65MOL   H30020908  -4.768   6.909   7.855 -1.9575 -0.8912 -0.5251
   65MOL   H30120909  -4.973   6.983   7.960  0.6775 -0.6499 -1.5573
   65MOL   H30220910  -5.052   7.150   8.167 -0.1749 -0.6202 -0.4932
   65MOL   H30320911  -5.099   6.992   8.212 -0.7434  0.4809 -0.8987
   65MOL   H30420912  -4.786   6.984   8.344 -0.6607 -1.8559  0.3357
   65MOL   H30520913  -4.579   6.914   8.243  0.3118  3.2576  0.2847
   65MOL   C30620914  -5.006   7.104   8.370  0.4750 -0.0413 -0.1857
   65MOL   C30720915  -5.129   7.171   8.421 -0.0216 -0.4087 -0.2860
   65MOL   C30820916  -5.248   7.095   8.436 -0.3325  0.1428  0.7313
   65MOL   C30920917  -5.361   7.139   8.498  0.0259  0.0034 -0.2737
   65MOL   C31020918  -5.370   7.274   8.534 -0.0950  0.1821  0.4519
   65MOL   C31120919  -5.497   7.338   8.579  0.3647  0.6144 -0.2781
   65MOL   C31220920  -5.255   7.355   8.519 -0.2224  0.0124  0.4232
   65MOL   C31320921  -5.135   7.306   8.469  0.3967  0.0528 -0.0525
   65MOL   H31420922  -4.922   7.171   8.388 -0.0303 -0.3497  3.8326
   65MOL   H31520923  -4.987   7.024   8.441  0.8091  0.3493  0.1719
   65MOL   H31620924  -5.241   6.990   8.410  0.8830  1.0284 -2.7552
   65MOL   H31720925  -5.450   7.078   8.508 -0.8275  1.5394  1.8666
   65MOL   H31820926  -5.580   7.316   8.511 -1.4103 -0.1192  2.0492
   65MOL   H31920927  -5.526   7.307   8.680  2.1181  0.1620  0.0896
   65MOL   H32020928  -5.254   7.459   8.549  0.3752  0.1673 -0.1251
   65MOL   H32120929  -5.050   7.372   8.455 -0.9257  1.6519 -0.7212
   65MOL   H32220930  -5.488   7.446   8.573  0.4372  0.5681 -1.0182
   66MOL     C120931   7.335   5.166   4.612  0.0998 -0.8230  0.8022
   66MOL     C220932   7.492   5.166   4.630 -0.7363 -0.8405 -0.2638
   66MOL     C320933   7.580   5.096   4.545  0.1269  0.0366 -0.2726
   66MOL     C420934   7.718   5.104   4.548  0.1220  0.3345 -0.5088
   66MOL     C520935   7.773   5.187   4.652  0.7109 -0.4717  0.4475
   66MOL     C620936   7.926   5.192   4.670  0.2667  0.1474 -0.1176
   66MOL     C720937   7.694   5.257   4.746  0.0690  0.4677 -0.1288
   66MOL     C820938   7.554   5.242   4.734  0.8242 -0.0546  0.5276
   66MOL     H920939   7.326   5.068   4.565  2.2670 -0.0294 -1.3708
   66MOL    H1020940   7.286   5.165   4.709 -0.7518  1.3499  0.4335
   66MOL    H1120941   7.547   5.035   4.462  1.1344 -0.3288 -0.4079
   66MOL    H1220942   7.788   5.053   4.484  0.0855 -3.5557  2.4005
   66MOL    H1320943   7.953   5.250   4.758  2.1754  1.4314 -1.5213
   66MOL    H1420944   7.969   5.096   4.697  0.5184  0.5603  1.0013
   66MOL    H1520945   7.739   5.306   4.831 -0.2798 -0.4206  0.5796
   66MOL    H1620946   7.475   5.285   4.794 -1.4669 -1.1042 -1.6304
   66MOL    H1720947   7.305   5.250   4.549  3.5879  0.9819  1.4523
   66MOL    C1820948   7.997   5.255   4.553 -0.0098 -0.0983  0.0288
   66MOL    C1920949   8.146   5.250   4.561 -0.0612 -0.2424  0.2188
   66MOL    C2020950   8.214   5.153   4.484 -0.7059  0.0407 -0.1894
   66MOL    C2120951   8.356   5.134   4.495 -0.3402 -0.5439  0.5132
   66MOL    C2220952   8.430   5.225   4.574  0.2287 -0.2616 -0.2919
   66MOL    C2320953   8.584   5.216   4.583  0.3532 -0.6351 -0.6904
   66MOL    C2420954   8.358   5.329   4.638 -0.5851 -0.7392  0.0331
   66MOL    C2520955   8.218   5.341   4.644 -0.7456  0.1050 -0.3121
   66MOL    H2620956   7.953   5.196   4.472  0.0037  0.7957 -0.6484
   66MOL    H2720957   7.969   5.361   4.546  1.2602  0.2110 -0.6540
   66MOL    H2820958   8.162   5.090   4.413 -0.0101 -2.1453  1.1775
   66MOL    H2920959   8.402   5.056   4.436  1.2850  0.3690  0.5549
   66MOL    H3020960   8.621   5.122   4.541 -1.6213 -0.3253 -3.2292
   66MOL    H3120961   8.611   5.217   4.689  0.1890  2.1906 -0.6570
   66MOL    H3220962   8.424   5.402   4.682 -0.3856 -0.4009 -0.8192
   66MOL    H3320963   8.170   5.427   4.689  0.8730  0.8604 -0.0020
   66MOL    C3420964   8.662   5.325   4.516  0.5047  0.0549  0.4694
   66MOL    C3520965   8.810   5.291   4.506 -0.0918  0.2141 -0.2516
   66MOL    C3620966   8.899   5.338   4.604  0.2659 -0.5967 -0.4592
   66MOL    C3720967   9.037   5.310   4.600  1.0679  0.1530  0.7323
   66MOL    C3820968   9.092   5.261   4.478  0.0054 -0.3884  0.2197
   66MOL    C3920969   9.245   5.265   4.467  0.2390  0.3219 -0.2504
   66MOL    C4020970   9.004   5.210   4.381  0.2341  0.0967 -0.0734
   66MOL    C4120971   8.864   5.215   4.400 -1.0229  0.9850  0.3328
   66MOL    H4220972   8.650   5.422   4.565  2.5008  0.4357  0.2670
   66MOL    H4320973   8.628   5.332   4.412  3.9699 -3.1180 -0.9789
   66MOL    H4420974   8.857   5.370   4.699 -0.3673 -1.6023 -0.3915
   66MOL    H4520975   9.099   5.338   4.684  2.2984 -0.0686 -0.0932
   66MOL    H4620976   9.279   5.366   4.444 -0.1164  1.2545  3.0751
   66MOL    H4720977   9.281   5.243   4.567 -1.2896  2.4585  0.8045
   66MOL    H4820978   9.038   5.164   4.289 -0.4418 -3.0709  1.2028
   66MOL    H4920979   8.800   5.165   4.328 -0.8565  1.5954 -0.2369
   66MOL    C5020980   9.291   5.148   4.380 -0.4060  0.1900 -0.5119
   66MOL    C5120981   9.437   5.121   4.374  0.1625  0.2463  0.1565
   66MOL    C5220982   9.487   4.988   4.385 -0.2291  0.8725  0.4213
   66MOL    C5320983   9.625   4.969   4.401  0.1949 -0.3638 -0.4697
   66MOL    C5420984   9.718   5.072   4.377 -0.8900  0.0189  0.2553
   66MOL    C5520985   9.867   5.056   4.395 -0.3639  1.0115 -0.0707
   66MOL    C5620986   9.663   5.199   4.341  0.6469 -0.8918  0.6442
   66MOL    C5720987   9.524   5.229   4.338  0.1255 -0.0076 -0.3124
   66MOL    H5820988   9.264   5.156   4.275  2.4577 -1.9094 -1.4739
   66MOL    H5920989   9.248   5.054   4.415 -0.2423 -0.2954 -1.6062
   66MOL    H6020990   9.421   4.906   4.407 -0.2642  1.5848  3.1870
   66MOL    H6120991   9.649   4.866   4.424  0.1597  0.3026  2.8648
   66MOL    H6220992   9.911   5.098   4.305 -0.2909  1.9036  0.3808
   66MOL    H6320993   9.911   5.109   4.480  1.1056  1.0900 -0.8617
   66MOL    H6420994   9.723   5.286   4.317  0.0899 -0.6082  0.2735
   66MOL    H6520995   9.486   5.326   4.310 -0.2463  0.1285  0.6201
   66MOL    C6620996   9.920   4.907   4.411  0.5459 -0.2537  0.2477
   66MOL    C6720997  10.073   4.890   4.426 -0.4588  0.2908 -0.0857
   66MOL    C6820998  10.125   4.780   4.502 -0.3397  0.1785  0.2037
   66MOL    C6920999  10.264   4.775   4.523  0.4672  0.2066  0.0514
   66MOL    C7021000  10.348   4.868   4.457  0.5641 -0.2188 -0.6139
   66MOL    C7121001  10.499   4.866   4.478  0.3464  0.4960  0.1736
   66MOL    C7221002  10.299   4.972   4.383  0.2422 -0.2230 -0.2510
   66MOL    C7321003  10.160   4.983   4.365 -0.9444 -0.2251 -0.7203
   66MOL    H7421004   9.889   4.841   4.330  2.8915  1.8075 -2.4639
   66MOL    H7521005   9.886   4.865   4.505  1.1491  0.2237  0.6816
   66MOL    H7621006  10.058   4.700   4.530  0.0689 -0.2767 -0.1005
   66MOL    H7721007  10.294   4.703   4.598 -2.7623 -2.4731 -1.1072
   66MOL    H7821008  10.554   4.940   4.421  0.5725  1.7001  1.9276
   66MOL    H7921009  10.531   4.773   4.431  0.3928 -0.2575  1.6608
   66MOL    H8021010  10.361   5.039   4.325 -0.3750  1.8545  1.4130
   66MOL    H8121011  10.124   5.057   4.295 -0.7153  0.0725 -0.5249
   66MOL    C8221012  10.537   4.872   4.628  0.7477 -0.5140  0.7043
   66MOL    C8321013  10.684   4.884   4.654  0.8139  0.3059  0.2775
   66MOL    C8421014  10.751   4.797   4.733 -0.0770  0.6247  0.1696
   66MOL    C8521015  10.895   4.809   4.745 -0.2210  0.8480  0.1262
   66MOL    C8621016  10.962   4.915   4.683  0.2391  0.1492 -0.4178
   66MOL    C8721017  11.113   4.931   4.689 -0.7274  0.4467  0.0312
   66MOL    C8821018  10.885   5.009   4.612 -0.3264  0.3462 -0.0325
   66MOL    C8921019  10.751   4.992   4.593 -0.7195  0.0216  0.0931
   66MOL    H9021020  10.492   4.783   4.671  1.4933 -1.6532 -0.8139
   66MOL    H9121021  10.488   4.959   4.671  2.2335  0.8969 -0.4148
   66MOL    H9221022  10.696   4.713   4.773 -2.0275  0.0851 -3.3508
   66MOL    H9321023  10.951   4.739   4.804  0.1958  0.5844 -0.5878
   66MOL    H9421024  11.119   5.000   4.773 -0.5870 -0.8758  1.1114
   66MOL    H9521025  11.149   4.978   4.597 -1.0675 -1.2071 -0.9778
   66MOL    H9621026  10.935   5.094   4.568  0.9436  0.0186  0.7384
   66MOL    H9721027  10.702   5.062   4.527  0.5655  1.2074  0.3736
   66MOL    C9821028  11.189   4.803   4.711  0.1431 -0.3007  0.4695
   66MOL    C9921029  11.340   4.810   4.692  0.2477  0.0936  0.3357
   66MOL   C10021030  11.427   4.819   4.804 -0.3052 -0.3454 -0.3557
   66MOL   C10121031  11.563   4.844   4.785  0.5562 -0.5775 -0.7161
   66MOL   C10221032  11.619   4.842   4.659  0.7595 -0.2361  0.2234
   66MOL   C10321033  11.763   4.868   4.637  0.0600 -0.3472 -0.1149
   66MOL   C10421034  11.530   4.814   4.549  0.0109  0.0925 -0.5764
   66MOL   C10521035  11.390   4.797   4.564 -0.4060 -0.8813 -0.0466
   66MOL   H10621036  11.166   4.730   4.633 -0.0608 -1.5145  1.6514
   66MOL   H10721037  11.155   4.759   4.805 -2.8751 -0.5974 -0.6951
   66MOL   H10821038  11.387   4.813   4.904 -2.8985 -0.8467 -1.3807
   66MOL   H10921039  11.622   4.872   4.871 -0.9342 -2.5704  1.0177
   66MOL   H11021040  11.766   4.912   4.537 -2.1943  1.0219  0.4001
   66MOL   H11121041  11.782   4.937   4.719  1.2128 -1.3265  0.4777
   66MOL   H11221042  11.579   4.794   4.455  0.8863 -1.7534  0.2502
   66MOL   H11321043  11.329   4.786   4.475 -0.2600 -1.4131 -0.0829
   66MOL   C11421044  11.843   4.739   4.639  0.0049 -0.3636 -0.3831
   66MOL   C11521045  11.992   4.764   4.652 -0.3631  0.6457 -0.0118
   66MOL   C11621046  12.060   4.872   4.588  0.3377  0.3734  0.3975
   66MOL   C11721047  12.201   4.872   4.597 -0.8754  0.1908 -0.5113
   66MOL   C11821048  12.278   4.770   4.658  0.6760 -0.1768  0.3580
   66MOL   C11921049  12.430   4.776   4.662 -0.8985 -0.0652 -0.3851
   66MOL   C12021050  12.207   4.671   4.720  0.1109  0.4022 -0.1363
   66MOL   C12121051  12.067   4.669   4.729  1.0017  0.8377 -0.2097
   66MOL   H12221052  11.828   4.683   4.547 -0.4659 -0.3546 -0.3117
   66MOL   H12321053  11.802   4.671   4.714  0.0804  0.0263  0.0123
   66MOL   H12421054  12.006   4.947   4.532  1.9631 -0.7799 -2.8384
   66MOL   H12521055  12.255   4.952   4.549 -2.1149  1.8335  0.7370
   66MOL   H12621056  12.460   4.872   4.703  0.7253  0.1248 -1.9136
   66MOL   H12721057  12.476   4.695   4.717  0.2387  0.2677 -0.8204
   66MOL   H12821058  12.259   4.594   4.775  0.5558  0.6296 -0.2378
   66MOL   H12921059  12.017   4.593   4.786 -0.3598  1.4029 -0.6295
   66MOL   C13021060  12.487   4.768   4.519 -0.5385  0.1049 -0.1884
   66MOL   C13121061  12.640   4.777   4.511  0.8514 -0.2486  0.0469
   66MOL   C13221062  12.697   4.902   4.520 -0.3695  0.9879  0.2242
   66MOL   C13321063  12.833   4.911   4.502  0.2366  0.4813  0.3409
   66MOL   C13421064  12.910   4.798   4.478  0.3669 -0.2629 -0.2186
   66MOL   C13521065  13.057   4.805   4.454 -0.6621  0.3525  0.2008
   66MOL   C13621066  12.854   4.666   4.493 -0.1328 -0.1607  0.2752
   66MOL   C13721067  12.717   4.654   4.497 -0.3072 -0.0278  0.0118
   66MOL   H13821068  12.441   4.849   4.462 -0.7266  0.1178 -0.0189
   66MOL   H13921069  12.452   4.684   4.459 -0.4686  0.1181 -0.2463
   66MOL   H14021070  12.645   4.996   4.531  1.2019  1.9815 -0.6952
   66MOL   H14121071  12.872   5.011   4.517  2.7336 -0.4201  0.0917
   66MOL   H14221072  13.090   4.906   4.479 -0.7373  0.1935  0.9449
   66MOL   H14321073  13.111   4.739   4.521  0.7718  0.1215 -1.1381
   66MOL   H14421074  12.918   4.580   4.484  1.1949  0.5902  2.2435
   66MOL   H14521075  12.675   4.557   4.476 -0.2795 -0.2578  0.9706
   66MOL   C14621076  13.086   4.771   4.305  0.4017  0.0015  0.7475
   66MOL   C14721077  13.237   4.781   4.280  0.0889 -0.6570  0.0739
   66MOL   C14821078  13.326   4.678   4.307  0.2466  0.1041 -0.0786
   66MOL   C14921079  13.462   4.694   4.308 -0.1754  0.0637  0.2686
   66MOL   C15021080  13.506   4.825   4.259  0.0393  0.1542 -0.0393
   66MOL   C15121081  13.658   4.844   4.234  0.1543 -0.5637  0.4206
   66MOL   C15221082  13.424   4.924   4.216  0.3513 -0.4282 -0.2945
   66MOL   C15321083  13.286   4.902   4.234 -0.1965  0.1696 -0.5634
   66MOL   H15421084  13.030   4.826   4.229  1.0488 -1.1966 -0.6121
   66MOL   H15521085  13.053   4.668   4.290  1.6168 -0.5467  1.7819
   66MOL   H15621086  13.287   4.581   4.336 -1.2238  1.3420  2.2400
   66MOL   H15721087  13.531   4.611   4.310 -0.6710 -0.5002 -2.8307
   66MOL   H15821088  13.693   4.766   4.167  3.1654  0.8052  0.3190
   66MOL   H15921089  13.679   4.941   4.188 -1.9434  0.0972  0.7967
   66MOL   H16021090  13.470   5.013   4.174  0.1120 -0.3241 -0.3394
   66MOL   H16121091  13.214   4.980   4.216 -2.3882 -1.0935  2.3776
   66MOL   C16221092  13.740   4.809   4.362 -0.2341  0.0412  0.3730
   66MOL   C16321093  13.889   4.808   4.345 -0.6706 -0.0239  0.3967
   66MOL   C16421094  13.954   4.688   4.343  0.4791 -0.1210 -0.1328
   66MOL   C16521095  14.098   4.677   4.334  0.0482 -0.2353 -0.7635
   66MOL   C16621096  14.175   4.793   4.326  0.1566 -0.1615 -0.0773
   66MOL   C16721097  14.327   4.787   4.309 -0.1872 -0.0150 -0.4592
   66MOL   C16821098  14.109   4.915   4.316  0.3155 -1.1773 -0.1692
   66MOL   C16921099  13.967   4.925   4.330  0.4223  0.4829  0.4799
   66MOL   H17021100  13.701   4.715   4.400  1.8212 -0.3746  1.4976
   66MOL   H17121101  13.716   4.874   4.447 -2.0855 -0.6465  0.4004
   66MOL   H17221102  13.894   4.599   4.357  0.2490  0.3905  2.3004
   66MOL   H17321103  14.143   4.580   4.319 -2.1836 -1.4406  0.1379
   66MOL   H17421104  14.358   4.682   4.311  1.3606  0.4248  1.9472
   66MOL   H17521105  14.356   4.824   4.211  1.9437 -1.6906 -0.5077
   66MOL   H17621106  14.170   5.001   4.292 -0.1483 -0.6953  0.3704
   66MOL   H17721107  13.913   5.017   4.339 -1.3809 -0.3300 -1.5803
   66MOL   C17821108  14.418   4.856   4.414  0.2533  0.1438  0.1623
   66MOL   C17921109  14.562   4.827   4.379 -0.0576  0.6454  0.3436
   66MOL   C18021110  14.634   4.727   4.448 -0.3022 -0.0692 -0.2441
   66MOL   C18121111  14.768   4.704   4.420  0.0510  0.1726 -0.7178
   66MOL   C18221112  14.833   4.772   4.321  0.0540 -0.0693 -0.5447
   66MOL   C18321113  14.972   4.742   4.288 -0.0031  0.7757 -0.1885
   66MOL   C18421114  14.770   4.883   4.256 -0.1725  0.4320 -0.4512
   66MOL   C18521115  14.634   4.906   4.278  0.0598 -0.0589 -0.0606
   66MOL   H18621116  14.390   4.844   4.518  0.8297  0.4857  0.3614
   66MOL   H18721117  14.407   4.962   4.391  1.1737  0.3238  0.5361
   66MOL   H18821118  14.580   4.674   4.525  0.9166  0.6234  1.1098
   66MOL   H18921119  14.825   4.645   4.490  0.4209  0.1998 -0.9913
   66MOL   H19021120  14.997   4.648   4.338 -1.5692  1.0995  1.2871
   66MOL   H19121121  14.971   4.709   4.184  1.9116 -2.1041  0.6286
   66MOL   H19221122  14.823   4.944   4.185  1.0703 -1.8816 -1.5583
   66MOL   H19321123  14.586   4.990   4.229 -0.7746 -0.4113  0.1468
   66MOL   C19421124  15.068   4.851   4.333  0.0863 -0.5300  0.3709
   66MOL   C19521125  15.210   4.819   4.301 -0.7799 -0.0872  0.0065
   66MOL   C19621126  15.258   4.869   4.177 -0.2625 -0.4519 -0.0284
   66MOL   C19721127  15.391   4.854   4.145  0.6252 -0.2753  0.1088
   66MOL   C19821128  15.480   4.792   4.236  0.4917 -0.3425 -0.5388
   66MOL   C19921129  15.632   4.782   4.205 -1.3950  0.5331 -0.4475
   66MOL   C20021130  15.439   4.752   4.358 -0.2621 -0.1834 -0.3165
   66MOL   C20121131  15.304   4.760   4.399  0.1174 -0.5850  0.6117
   66MOL   H20221132  15.056   4.866   4.440  0.1543 -0.7971  0.4150
   66MOL   H20321133  15.022   4.938   4.285 -3.7551 -1.5929  2.0275
   66MOL   H20421134  15.198   4.907   4.096  1.6771  2.9760  0.0709
   66MOL   H20521135  15.416   4.905   4.053 -3.7100 -0.9106 -1.5492
   66MOL   H20621136  15.657   4.675   4.202  0.0828  0.8538  0.0834
   66MOL   H20721137  15.660   4.817   4.106  0.2365  0.6840  0.0632
   66MOL   H20821138  15.511   4.714   4.428 -0.1850  0.9010  0.1984
   66MOL   H20921139  15.288   4.718   4.497  2.2610  0.3546  1.3966
   66MOL   C21021140  15.713   4.858   4.306 -0.2218 -0.2065 -0.3141
   66MOL   C21121141  15.860   4.859   4.282 -0.4361  0.7220 -0.9386
   66MOL   C21221142  15.910   4.922   4.167 -0.2042 -0.5373  0.4884
   66MOL   C21321143  16.049   4.926   4.138  0.0543  0.2430  0.2552
   66MOL   C21421144  16.140   4.863   4.227  0.6374 -0.4636  0.4170
   66MOL   C21521145  16.291   4.874   4.201 -0.3073 -0.3172 -0.2195
   66MOL   C21621146  16.088   4.810   4.346 -0.2162  0.2646 -0.1897
   66MOL   C21721147  15.952   4.799   4.371  0.1895 -0.9797  0.1919
   66MOL   H21821148  15.704   4.818   4.407  2.2686 -3.5862 -1.3315
   66MOL   H21921149  15.681   4.962   4.314 -0.0327 -0.1254 -0.5796
   66MOL   H22021150  15.847   4.969   4.093  1.9195  0.8822 -0.4775
   66MOL   H22121151  16.083   4.992   4.060  0.7058  0.5652  0.8112
   66MOL   H22221152  16.310   4.909   4.100 -0.2170  0.2286 -0.0191
   66MOL   H22321153  16.324   4.968   4.245  2.9511 -1.8278  0.8010
   66MOL   H22421154  16.159   4.767   4.415 -0.9480  0.0861  0.4613
   66MOL   H22521155  15.919   4.756   4.464  2.3152 -1.9251  0.5271
   66MOL   C22621156  16.385   4.765   4.246 -0.0084  0.0049  0.1914
   66MOL   C22721157  16.527   4.807   4.238  0.3370  0.0318  0.9153
   66MOL   C22821158  16.597   4.802   4.113  0.7178 -0.3773 -0.6330
   66MOL   C22921159  16.733   4.828   4.114 -0.0826  0.2800  0.6184
   66MOL   C23021160  16.809   4.861   4.229  0.1693  0.8627 -0.5536
   66MOL   C23121161  16.959   4.886   4.224  0.4303  0.2041  0.0742
   66MOL   C23221162  16.744   4.862   4.352 -0.1675 -0.0256 -0.1987
   66MOL   C23321163  16.602   4.839   4.357 -0.8999 -0.2515  0.1010
   66MOL   H23421164  16.357   4.668   4.206 -2.7815  0.6259  0.5685
   66MOL   H23521165  16.370   4.743   4.352 -0.2592 -1.7187 -0.1743
   66MOL   H23621166  16.540   4.780   4.024 -2.4098  1.2096  0.8993
   66MOL   H23721167  16.781   4.831   4.018 -2.5306 -0.2088 -0.6698
   66MOL   H23821168  16.982   4.964   4.153 -0.7713  0.4664 -0.0352
   66MOL   H23921169  17.007   4.891   4.322  1.0975  3.0875 -0.3613
   66MOL   H24021170  16.797   4.887   4.443  1.4788  1.0763 -1.4208
   66MOL   H24121171  16.549   4.842   4.451  2.3045 -0.3742  1.9836
   66MOL   C24221172  17.020   4.764   4.157 -0.2590  0.5773 -0.2385
   66MOL   C24321173  17.173   4.751   4.172 -0.7734  0.4732 -0.8932
   66MOL   C24421174  17.253   4.795   4.065 -0.1278  0.7742  0.5423
   66MOL   C24521175  17.389   4.772   4.071  0.6433 -0.5972  0.1477
   66MOL   C24621176  17.448   4.711   4.182  0.4298  0.4095 -0.6773
   66MOL   C24721177  17.595   4.680   4.179 -0.1941 -0.2847  0.8495
   66MOL   C24821178  17.363   4.670   4.291 -0.4504  0.1398  0.5052
   66MOL   C24921179  17.224   4.694   4.285 -0.0300  0.9287  0.3638
   66MOL   H25021180  16.976   4.677   4.205 -0.1972  1.1149  0.8018
   66MOL   H25121181  16.996   4.745   4.052  2.6439 -0.0979 -0.8502
   66MOL   H25221182  17.198   4.849   3.989  1.3141  1.7928  0.2091
   66MOL   H25321183  17.454   4.810   3.994 -1.1904  0.0417 -1.1246
   66MOL   H25421184  17.637   4.768   4.130  0.2232 -1.2969 -0.6287
   66MOL   H25521185  17.630   4.668   4.281  1.2938 -0.7073  0.3012
   66MOL   H25621186  17.405   4.625   4.380 -1.6525  0.7667  1.4027
   66MOL   H25721187  17.162   4.665   4.368 -1.1277  0.0431 -0.7524
   66MOL   C25821188  17.623   4.553   4.108  0.0681  0.2446 -0.2680
   66MOL   C25921189  17.775   4.523   4.103  0.2805 -0.2064 -0.4057
   66MOL   C26021190  17.869   4.622   4.087 -0.2034 -0.0194  0.2297
   66MOL   C26121191  18.003   4.586   4.102 -0.1203  0.4761 -0.2517
   66MOL   C26221192  18.045   4.464   4.149 -0.7950  0.4268 -0.0538
   66MOL   C26321193  18.189   4.440   4.179 -0.5147  0.5593  0.1252
   66MOL   C26421194  17.952   4.360   4.154  0.3627  0.3002 -0.0982
   66MOL   C26521195  17.817   4.389   4.135 -0.0999 -0.4414  0.6831
   66MOL   H26621196  17.582   4.549   4.006 -0.5558  0.7624 -0.0468
   66MOL   H26721197  17.581   4.471   4.166 -0.0425 -0.0268 -0.7242
   66MOL   H26821198  17.834   4.715   4.045  1.2506  0.6859  0.5254
   66MOL   H26921199  18.080   4.661   4.098 -2.0667  2.5696  0.1633
   66MOL   H27021200  18.215   4.342   4.218  1.3519  0.8876 -0.2447
   66MOL   H27121201  18.242   4.441   4.083 -3.0791  0.1030 -1.3527
   66MOL   H27221202  17.983   4.259   4.176  0.2761  0.5103  0.9939
   66MOL   H27321203  17.743   4.314   4.160  1.0712 -1.1928  1.9600
   66MOL   C27421204  18.247   4.542   4.278 -0.1070 -0.0204 -0.4870
   66MOL   C27521205  18.389   4.515   4.326  0.1157  0.1900 -0.0931
   66MOL   C27621206  18.405   4.445   4.445 -0.3425  0.2170 -0.1456
   66MOL   C27721207  18.532   4.415   4.495 -0.3061 -0.6538  0.4026
   66MOL   C27821208  18.643   4.462   4.425  0.1358 -0.0043  0.2016
   66MOL   C27921209  18.780   4.429   4.463 -0.4320 -0.3989 -0.8704
   66MOL   C28021210  18.630   4.540   4.307 -0.4239  0.3813  0.3542
   66MOL   C28121211  18.500   4.561   4.260  0.2786  0.2013 -0.4150
   66MOL   H28221212  18.250   4.639   4.227 -4.9882 -0.5626 -2.0355
   66MOL   H28321213  18.188   4.555   4.368 -0.6408  2.8757 -1.1810
   66MOL   H28421214  18.324   4.400   4.501 -0.5183 -0.8001 -1.1872
   66MOL   H28521215  18.550   4.355   4.583 -2.3660 -1.7822  0.0969
   66MOL   H28621216  18.790   4.328   4.501 -0.4186 -0.5474 -1.2730
   66MOL   H28721217  18.853   4.437   4.382  0.2610 -3.3084 -0.5721
   66MOL   H28821218  18.718   4.585   4.262  0.1160 -0.2125  0.7916
   66MOL   H28921219  18.494   4.621   4.170 -0.0199 -0.3518 -0.7694
   66MOL   C29021220  18.837   4.528   4.566 -0.1631  0.5130  0.0614
   66MOL   C29121221  18.972   4.490   4.611  0.5219 -0.1353  0.3712
   66MOL   C29221222  18.998   4.449   4.743 -0.4597  0.6125  0.4325
   66MOL   C29321223  19.130   4.406   4.774  0.0010 -0.4154  0.5291
   66MOL   C29421224  19.235   4.405   4.682  0.0917  0.1324 -0.3088
   66MOL   C29521225  19.375   4.365   4.731 -0.4338  0.2249  0.2913
   66MOL   C29621226  19.207   4.447   4.553 -0.5887 -0.6733  0.0029
   66MOL   C29721227  19.080   4.489   4.513  0.2571  0.0156 -0.6726
   66MOL   H29821228  18.761   4.528   4.644  0.5588 -1.1251  0.7901
   66MOL   H29921229  18.844   4.628   4.524 -0.9898  0.7185  0.4002
   66MOL   H30021230  18.926   4.442   4.823  1.2198 -1.0972  1.8325
   66MOL   H30121231  19.142   4.369   4.875 -2.8066  1.5988  1.6683
   66MOL   H30221232  19.372   4.303   4.820 -1.1675 -1.0227 -0.5786
   66MOL   H30321233  19.407   4.292   4.657 -1.9944  0.0933 -0.2836
   66MOL   H30421234  19.291   4.467   4.487 -1.7377  1.0749 -0.9708
   66MOL   H30521235  19.072   4.534   4.415  0.1956  0.9223 -0.2623
   66MOL   C30621236  19.477   4.483   4.737 -0.6133 -0.7680  0.1199
   66MOL   C30721237  19.626   4.442   4.760 -0.0905 -0.2562  0.3086
   66MOL   C30821238  19.714   4.407   4.656  0.0026 -0.0697  0.2961
   66MOL   C30921239  19.841   4.351   4.681  0.1085  0.2111  0.1432
   66MOL   C31021240  19.890   4.350   4.812 -0.0887 -0.2864 -0.2550
   66MOL   C31121241  20.028   4.306   4.837 -1.2779 -0.3364 -0.1266
   66MOL   C31221242  19.803   4.387   4.918  0.0369  0.2563 -0.1317
   66MOL   C31321243  19.679   4.440   4.889  0.3525 -0.6362 -0.1861
   66MOL   H31421244  19.434   4.553   4.809 -0.7036  1.0209 -1.6188
   66MOL   H31521245  19.472   4.532   4.640  2.3751 -2.8072 -1.1559
   66MOL   H31621246  19.694   4.419   4.551 -1.1505 -0.4069  0.4632
   66MOL   H31721247  19.896   4.318   4.594 -1.1530 -0.1573 -0.5193
   66MOL   H31821248  20.091   4.303   4.748 -2.2578 -0.1226 -0.8367
   66MOL   H31921249  20.067   4.366   4.919  0.7144 -1.6665 -0.0666
   66MOL   H32021250  19.826   4.377   5.023  0.2287 -0.6271 -0.2604
   66MOL   H32121251  19.623   4.463   4.978  0.8254  0.8008 -0.2448
   66MOL   H32221252  20.028   4.199   4.859 -0.2650 -0.2965  0.1041
   67MOL     C121253   5.822   1.619   5.411  0.3442 -0.1467  0.6418
   67MOL     C221254   5.951   1.540   5.405 -0.3142 -0.6392  0.3123
   67MOL     C321255   6.023   1.513   5.522  0.5026  0.8726  0.1526
   67MOL     C421256   6.153   1.459   5.510 -0.2312  0.3782 -0.1804
   67MOL     C521257   6.201   1.429   5.375 -0.4922 -0.1855  0.4118
   67MOL     C621258   6.328   1.359   5.368 -0.4698  0.0694 -0.2034
   67MOL     C721259   6.119   1.441   5.264  0.4088  0.2891 -0.2865
   67MOL     C821260   5.998   1.506   5.281  0.3930  0.2477  0.6609
   67MOL     H921261   5.798   1.693   5.334 -1.4834  0.5044  1.7994
   67MOL    H1021262   5.735   1.554   5.420 -1.9099  2.7203  0.3758
   67MOL    H1121263   5.986   1.555   5.614  1.1048  1.4907  0.1163
   67MOL    H1221264   6.225   1.446   5.590 -0.2406 -0.0498 -0.2410
   67MOL    H1321265   6.359   1.316   5.464  1.3736  2.0813  0.1311
   67MOL    H1421266   6.308   1.271   5.307 -3.9317  0.6356  0.0492
   67MOL    H1521267   6.154   1.419   5.165  2.9796 -1.7137  1.0076
   67MOL    H1621268   5.924   1.521   5.203  0.1706 -0.8371  0.6582
   67MOL    H1721269   5.826   1.675   5.504 -0.4351  1.7792 -0.4562
   67MOL    C1821270   6.440   1.443   5.306 -0.2508  0.2488  0.1707
   67MOL    C1921271   6.573   1.374   5.285 -0.6503  0.9816  0.4962
   67MOL    C2021272   6.602   1.299   5.165 -0.0701  0.3033 -0.3315
   67MOL    C2121273   6.727   1.226   5.159  0.4830  0.4065 -0.0856
   67MOL    C2221274   6.814   1.233   5.267  0.7756 -0.5945 -0.0291
   67MOL    C2321275   6.939   1.151   5.266  0.0320  0.0994 -0.7116
   67MOL    C2421276   6.787   1.301   5.383 -1.4408 -0.3508  0.2865
   67MOL    C2521277   6.666   1.373   5.389 -0.3995 -0.6400  0.0039
   67MOL    H2621278   6.410   1.490   5.213  0.1522 -0.0828 -0.1242
   67MOL    H2721279   6.459   1.525   5.375 -0.8935 -0.6636  1.4594
   67MOL    H2821280   6.531   1.293   5.084 -0.6706  0.2954  0.1849
   67MOL    H2921281   6.757   1.171   5.072 -1.0272 -0.4633 -0.0712
   67MOL    H3021282   6.942   1.065   5.199  1.1751 -1.0608  0.7683
   67MOL    H3121283   6.932   1.106   5.365 -0.1743  2.0668  0.1935
   67MOL    H3221284   6.853   1.288   5.468 -1.0397  0.3811  0.0884
   67MOL    H3321285   6.637   1.428   5.478 -0.4854  1.5059 -1.3234
   67MOL    C3421286   7.065   1.243   5.256  0.3863 -0.7917 -0.1300
   67MOL    C3521287   7.200   1.177   5.261 -0.0972 -0.3338 -0.3069
   67MOL    C3621288   7.287   1.187   5.369 -0.1042  0.0175 -0.1997
   67MOL    C3721289   7.416   1.127   5.371 -0.2309  0.3152 -0.1021
   67MOL    C3821290   7.462   1.066   5.254  0.2938  0.9160  0.6173
   67MOL    C3921291   7.599   1.001   5.244 -0.8446 -0.0394  0.2151
   67MOL    C4021292   7.380   1.061   5.141  0.1234 -0.8314 -0.7338
   67MOL    C4121293   7.243   1.114   5.141 -0.3732 -0.5363 -0.1044
   67MOL    H4221294   7.053   1.309   5.342 -1.2388 -1.7062  0.3728
   67MOL    H4321295   7.058   1.297   5.161  0.6940  1.1244  0.9232
   67MOL    H4421296   7.262   1.252   5.452  2.0039 -0.3149  0.7259
   67MOL    H4521297   7.476   1.136   5.460 -0.8149 -1.4446  0.4941
   67MOL    H4621298   7.625   0.979   5.140  0.6187  0.9318  0.3631
   67MOL    H4721299   7.672   1.074   5.279 -0.1567 -1.0520  0.9074
   67MOL    H4821300   7.418   1.010   5.053 -0.8108 -1.9312 -0.5145
   67MOL    H4921301   7.187   1.103   5.050  0.6705  0.7623 -0.9184
   67MOL    C5021302   7.606   0.876   5.332  0.5288 -0.2273  0.6123
   67MOL    C5121303   7.744   0.802   5.317 -0.2172  0.2157 -0.1707
   67MOL    C5221304   7.865   0.871   5.324 -1.3171 -0.1118 -0.1041
   67MOL    C5321305   7.985   0.799   5.320  0.0917 -0.5262 -0.1309
   67MOL    C5421306   7.981   0.659   5.298  0.0730 -0.0980  0.1273
   67MOL    C5521307   8.114   0.586   5.312 -0.9858  0.6306  0.7391
   67MOL    C5621308   7.859   0.588   5.286  0.4539  0.3412 -0.2620
   67MOL    C5721309   7.744   0.661   5.304 -0.1401 -0.0321 -0.6257
   67MOL    H5821310   7.526   0.811   5.296  1.6297  0.0507 -2.5664
   67MOL    H5921311   7.572   0.898   5.433 -3.0532  1.8609 -0.9442
   67MOL    H6021312   7.862   0.976   5.347  2.8650  0.4569 -1.6872
   67MOL    H6121313   8.078   0.854   5.325 -0.3404  0.0191  2.5591
   67MOL    H6221314   8.187   0.638   5.373 -0.5878 -2.8277  3.3765
   67MOL    H6321315   8.100   0.492   5.366  0.8620 -0.3257 -0.4133
   67MOL    H6421316   7.860   0.481   5.296  0.6601  0.4935  1.6195
   67MOL    H6521317   7.652   0.607   5.322  1.0455 -1.9878 -0.2414
   67MOL    C6621318   8.180   0.560   5.166 -0.0675  0.0262  0.1026
   67MOL    C6721319   8.321   0.491   5.184 -0.1049 -0.0175  0.0372
   67MOL    C6821320   8.334   0.352   5.202  0.0836 -0.5540  0.3770
   67MOL    C6921321   8.457   0.288   5.211 -0.4122  0.0431  0.4632
   67MOL    C7021322   8.576   0.368   5.220  0.7961 -0.5693 -0.2958
   67MOL    C7121323   8.711   0.310   5.232  0.3454 -0.2739  0.5699
   67MOL    C7221324   8.558   0.509   5.220 -0.3777  0.5640  0.6650
   67MOL    C7321325   8.436   0.566   5.195 -0.6270  0.6178  0.1921
   67MOL    H7421326   8.187   0.647   5.101 -2.9610 -0.2580 -0.6885
   67MOL    H7521327   8.107   0.496   5.115  0.1603 -0.6303  0.5982
   67MOL    H7621328   8.246   0.290   5.201  1.2469 -2.2316 -0.0337
   67MOL    H7721329   8.469   0.181   5.218 -2.8472 -0.2604  0.4886
   67MOL    H7821330   8.722   0.264   5.331 -0.0285 -3.6518 -0.8834
   67MOL    H7921331   8.778   0.395   5.224 -2.6609  2.1390  0.4188
   67MOL    H8021332   8.638   0.580   5.233  0.2010  0.2026 -0.7955
   67MOL    H8121333   8.435   0.674   5.186  1.0995  0.5975 -0.4309
   67MOL    C8221334   8.741   0.202   5.129 -0.7065 -0.4937  0.0378
   67MOL    C8321335   8.885   0.148   5.137  0.5443  0.0294  0.2322
   67MOL    C8421336   8.987   0.202   5.047  0.0006  0.6983  0.0877
   67MOL    C8521337   9.122   0.160   5.058  0.0402  0.4347 -0.4552
   67MOL    C8621338   9.164   0.069   5.155  0.2483 -0.4509 -0.1045
   67MOL    C8721339   9.305   0.040   5.170 -0.1184 -0.0301 -0.1031
   67MOL    C8821340   9.067   0.033   5.247 -0.2411 -0.3358 -0.2407
   67MOL    C8921341   8.934   0.065   5.239 -0.1382 -0.2950 -0.5781
   67MOL    H9021342   8.728   0.235   5.026 -1.5465 -1.2269 -0.0944
   67MOL    H9121343   8.681   0.116   5.157 -1.7302 -0.3335 -1.6137
   67MOL    H9221344   8.956   0.271   4.970  4.1089  3.1230  0.4482
   67MOL    H9321345   9.188   0.212   4.991 -0.3921  3.2593  1.2269
   67MOL    H9421346   9.330   0.012   5.272 -1.1793 -2.8324 -0.5723
   67MOL    H9521347   9.364   0.130   5.155  0.7940 -0.5358  0.4380
   67MOL    H9621348   9.104  -0.008   5.340  0.1795 -0.1589 -0.3298
   67MOL    H9721349   8.873   0.031   5.322 -0.3915  0.1398 -0.5833
   67MOL    C9821350   9.356  -0.061   5.064  0.0492 -0.3943  0.2692
   67MOL    C9921351   9.497  -0.079   5.092  0.5986  0.1841 -0.2633
   67MOL   C10021352   9.598  -0.030   5.007 -0.0372 -0.2501  0.0792
   67MOL   C10121353   9.736  -0.058   5.030  0.2946 -0.6497  0.3290
   67MOL   C10221354   9.768  -0.142   5.139 -0.3304  0.2589  0.1249
   67MOL   C10321355   9.914  -0.181   5.167 -0.0726 -0.5787 -0.0962
   67MOL   C10421356   9.670  -0.186   5.230  0.2690 -0.0561 -0.4523
   67MOL   C10521357   9.537  -0.151   5.207  0.1609 -0.9951  0.0016
   67MOL   H10621358   9.342  -0.028   4.961  3.1733  1.0057  0.2378
   67MOL   H10721359   9.306  -0.158   5.068 -2.0171  0.7041  2.5666
   67MOL   H10821360   9.559   0.021   4.920 -0.1741 -1.2918 -0.4781
   67MOL   H10921361   9.803  -0.010   4.961  0.1113  1.1347  1.3800
   67MOL   H11021362   9.974  -0.093   5.143 -1.6220  0.7153  0.6936
   67MOL   H11121363   9.917  -0.203   5.274 -0.4303 -4.7953 -0.8477
   67MOL   H11221364   9.695  -0.235   5.323 -0.1745  0.2842 -0.1491
   67MOL   H11321365   9.468  -0.189   5.281  0.0058  0.5996  0.6822
   67MOL   C11421366   9.965  -0.307   5.091 -0.0456 -0.1336 -1.1394
   67MOL   C11521367  10.109  -0.334   5.124 -0.1905  0.4402  0.8024
   67MOL   C11621368  10.212  -0.295   5.031 -0.5364  0.5783 -0.2205
   67MOL   C11721369  10.345  -0.343   5.061  0.3285  0.2058  0.6859
   67MOL   C11821370  10.374  -0.418   5.176  0.3416 -0.4822  0.9172
   67MOL   C11921371  10.523  -0.452   5.200  0.1135 -0.0997  0.2841
   67MOL   C12021372  10.273  -0.463   5.266 -0.2245 -0.1504  0.8023
   67MOL   C12121373  10.141  -0.422   5.232 -0.4302  0.2265 -0.0461
   67MOL   H12221374   9.961  -0.294   4.983  1.9129  1.3308 -1.0620
   67MOL   H12321375   9.893  -0.381   5.124  0.8962 -0.8478 -0.6668
   67MOL   H12421376  10.182  -0.226   4.954 -0.0382  1.1938  0.1294
   67MOL   H12521377  10.423  -0.329   4.988 -0.4333 -2.8408 -0.8278
   67MOL   H12621378  10.584  -0.429   5.112  0.6364 -0.1621  0.6340
   67MOL   H12721379  10.559  -0.405   5.291  1.9714 -1.0422  0.0525
   67MOL   H12821380  10.302  -0.514   5.357  1.3647 -1.3281 -0.3421
   67MOL   H12921381  10.066  -0.457   5.302  2.3636  0.0808  3.0183
   67MOL   C13021382  10.545  -0.601   5.210 -0.3610  0.4288  0.5760
   67MOL   C13121383  10.685  -0.651   5.214 -0.3496 -0.3725 -0.2587
   67MOL   C13221384  10.723  -0.732   5.321  0.4208  0.4641  0.9452
   67MOL   C13321385  10.851  -0.789   5.319 -0.2200 -0.0038 -0.0402
   67MOL   C13421386  10.944  -0.772   5.217 -0.1058  0.3344 -0.4314
   67MOL   C13521387  11.079  -0.831   5.222  0.3153 -0.3354 -0.0939
   67MOL   C13621388  10.910  -0.685   5.116 -0.5888  0.8788 -0.7677
   67MOL   C13721389  10.777  -0.625   5.110 -0.4999 -0.5099  0.3637
   67MOL   H13821390  10.500  -0.657   5.128  2.3094 -0.7702 -0.0919
   67MOL   H13921391  10.493  -0.646   5.296 -0.5704 -0.5033 -0.0279
   67MOL   H14021392  10.653  -0.757   5.399  0.8809 -2.4060  0.4707
   67MOL   H14121393  10.875  -0.860   5.396 -2.7867 -0.8923 -0.0233
   67MOL   H14221394  11.146  -0.765   5.168 -0.3771 -0.5238 -1.1897
   67MOL   H14321395  11.113  -0.839   5.325  0.6571 -0.9705 -0.2496
   67MOL   H14421396  10.986  -0.662   5.044 -1.2640  0.0185 -1.7652
   67MOL   H14521397  10.749  -0.555   5.032 -3.5909 -0.1029  1.7876
   67MOL   C14621398  11.080  -0.971   5.166  0.6149 -0.2405 -0.2478
   67MOL   C14721399  10.972  -1.061   5.215  0.4697 -0.3589  0.3702
   67MOL   C14821400  10.852  -1.076   5.137  0.3392  0.0961  0.5319
   67MOL   C14921401  10.745  -1.152   5.186  0.3651  0.0254  0.1346
   67MOL   C15021402  10.763  -1.224   5.311  0.1638  0.5601 -0.3732
   67MOL   C15121403  10.645  -1.296   5.370 -0.1520 -0.1171  0.1591
   67MOL   C15221404  10.886  -1.224   5.376 -0.0726  0.1917  0.5037
   67MOL   C15321405  10.988  -1.143   5.325 -0.7035  0.2376 -0.2308
   67MOL   H15421406  11.177  -1.017   5.184 -0.3312 -2.2203 -0.0964
   67MOL   H15521407  11.061  -0.974   5.059 -1.2390  1.0625 -0.0007
   67MOL   H15621408  10.831  -1.023   5.045  1.0149 -0.5473  0.0052
   67MOL   H15721409  10.650  -1.143   5.135 -0.6836 -0.8546  1.9099
   67MOL   H15821410  10.637  -1.273   5.477  0.8191  3.2739 -0.4398
   67MOL   H15921411  10.557  -1.262   5.317  0.4048 -1.3347 -1.5764
   67MOL   H16021412  10.901  -1.289   5.461  2.8175  0.4184  0.2201
   67MOL   H16121413  11.084  -1.127   5.371  0.6819 -0.4434 -2.8066
   67MOL   C16221414  10.665  -1.449   5.363  0.6244  0.0886  0.1171
   67MOL   C16321415  10.539  -1.516   5.419  0.1375  0.0988  0.2985
   67MOL   C16421416  10.549  -1.560   5.554  0.5587 -0.1504 -0.2727
   67MOL   C16521417  10.440  -1.626   5.615  0.6773 -0.6960  0.3977
   67MOL   C16621418  10.313  -1.632   5.551 -0.3784 -0.3393 -0.3811
   67MOL   C16721419  10.193  -1.691   5.633 -0.2279 -0.1500  0.3593
   67MOL   C16821420  10.302  -1.583   5.415 -0.6223  0.2012  0.4351
   67MOL   C16921421  10.416  -1.536   5.352  0.1895 -0.9005 -0.1363
   67MOL   H17021422  10.745  -1.478   5.430  2.1757  1.1831 -1.2325
   67MOL   H17121423  10.684  -1.494   5.265 -0.7703 -0.3038 -0.0000
   67MOL   H17221424  10.643  -1.559   5.607  0.8785 -0.9853 -0.8121
   67MOL   H17321425  10.471  -1.661   5.712 -1.4386  1.1854  1.7908
   67MOL   H17421426  10.220  -1.796   5.642 -0.5726 -0.1193  1.9429
   67MOL   H17521427  10.189  -1.648   5.733 -3.0769  2.3627 -0.7470
   67MOL   H17621428  10.212  -1.587   5.355 -0.5676 -1.4822  0.4206
   67MOL   H17721429  10.416  -1.497   5.251  0.4004  1.1096  0.6147
   67MOL   C17821430  10.063  -1.677   5.558 -1.1243  0.3534  0.2236
   67MOL   C17921431   9.944  -1.752   5.627  0.1912  0.4632 -0.2490
   67MOL   C18021432   9.949  -1.890   5.664 -0.2715 -0.1006  0.2034
   67MOL   C18121433   9.822  -1.950   5.705 -0.4210 -0.2966  0.0319
   67MOL   C18221434   9.704  -1.872   5.720  0.0234 -0.5532  0.1245
   67MOL   C18321435   9.574  -1.943   5.737 -0.0787  0.4090 -0.6639
   67MOL   C18421436   9.714  -1.733   5.703 -0.6854 -0.8030  0.7272
   67MOL   C18521437   9.828  -1.675   5.650  0.4891 -0.0778  0.4026
   67MOL   H18621438  10.060  -1.722   5.458  0.9403  1.2911 -0.2985
   67MOL   H18721439  10.030  -1.573   5.554  0.1823  0.8021  0.7679
   67MOL   H18821440  10.034  -1.955   5.652 -0.4183 -0.1798 -0.4193
   67MOL   H18921441   9.818  -2.058   5.705 -1.9593 -0.2509 -0.1643
   67MOL   H19021442   9.526  -1.942   5.639 -3.3422 -1.7542  0.8554
   67MOL   H19121443   9.607  -2.045   5.758  0.1227  0.2309 -1.7794
   67MOL   H19221444   9.628  -1.667   5.699  0.0725  0.1055 -1.3685
   67MOL   H19321445   9.832  -1.568   5.640  1.0010 -0.2714 -1.6272
   67MOL   C19421446   9.476  -1.886   5.845 -0.2622 -0.5594  0.5935
   67MOL   C19521447   9.335  -1.930   5.823  0.3577 -0.1841 -0.0486
   67MOL   C19621448   9.308  -2.072   5.824  0.0929 -0.7330  0.2598
   67MOL   C19721449   9.176  -2.112   5.799  0.3925  0.1097 -0.1830
   67MOL   C19821450   9.071  -2.016   5.777  0.4238 -0.3469  0.1556
   67MOL   C19921451   8.921  -2.063   5.791  0.3023 -0.1427  0.6081
   67MOL   C20021452   9.104  -1.880   5.766 -0.4884  0.1282  0.2169
   67MOL   C20121453   9.237  -1.842   5.782 -0.1795 -0.7200  0.2549
   67MOL   H20221454   9.467  -1.778   5.838  1.0880 -0.4119  1.0504
   67MOL   H20321455   9.503  -1.920   5.944  0.7048 -2.2433 -0.2271
   67MOL   H20421456   9.381  -2.145   5.854 -0.8280 -1.0434  1.7852
   67MOL   H20521457   9.155  -2.218   5.803  0.8776 -0.0057 -0.5913
   67MOL   H20621458   8.860  -1.989   5.739  2.3048  0.2495 -1.2924
   67MOL   H20721459   8.912  -2.151   5.727 -0.0265  1.0502 -1.0354
   67MOL   H20821460   9.025  -1.811   5.743  0.2338  1.3335  1.2385
   67MOL   H20921461   9.268  -1.741   5.762 -2.8219  0.0479 -0.2231
   67MOL   C21021462   8.866  -2.082   5.932  0.4250 -0.1514  0.2177
   67MOL   C21121463   8.721  -2.042   5.941  0.7349  0.4399  0.3306
   67MOL   C21221464   8.686  -1.921   5.999  0.4567  0.1426 -0.8695
   67MOL   C21321465   8.557  -1.862   5.986 -0.1990  0.0710 -0.2804
   67MOL   C21421466   8.454  -1.936   5.927  0.4053 -0.4085 -0.0590
   67MOL   C21521467   8.316  -1.871   5.909  0.2301 -0.8972 -0.0483
   67MOL   C21621468   8.480  -2.061   5.871 -0.0996  0.3910  0.0027
   67MOL   C21721469   8.613  -2.114   5.877  0.0424 -0.0652  0.1578
   67MOL   H21821470   8.928  -2.019   5.996 -0.3249 -0.2010  1.0021
   67MOL   H21921471   8.891  -2.182   5.966 -1.1540 -0.9285 -0.8644
   67MOL   H22021472   8.771  -1.863   6.032 -2.9916  4.2642  1.2949
   67MOL   H22121473   8.545  -1.765   6.031  0.5147  0.3632 -0.7244
   67MOL   H22221474   8.331  -1.767   5.880 -0.7553 -1.2475 -1.8871
   67MOL   H22321475   8.255  -1.922   5.835  0.6544  0.2482 -1.2212
   67MOL   H22421476   8.402  -2.111   5.816 -1.2953  0.4764  1.6086
   67MOL   H22521477   8.639  -2.208   5.831  1.1070  0.1848  0.2324
   67MOL   C22621478   8.241  -1.853   6.042  0.3045 -0.4639 -0.6173
   67MOL   C22721479   8.098  -1.791   6.046  0.0889  0.6156  0.2323
   67MOL   C22821480   7.995  -1.851   6.127 -0.3481 -0.9015  0.5653
   67MOL   C22921481   7.874  -1.791   6.150 -0.1728  0.4148  0.8058
   67MOL   C23021482   7.850  -1.666   6.087  0.1685 -0.0568 -0.0729
   67MOL   C23121483   7.728  -1.588   6.116 -0.7468 -0.1784  0.3892
   67MOL   C23221484   7.941  -1.608   6.000 -0.7611  0.6559  0.4742
   67MOL   C23321485   8.069  -1.673   5.979 -0.4412  0.4904 -0.1082
   67MOL   H23421486   8.296  -1.788   6.109 -1.1592 -0.6935  0.8566
   67MOL   H23521487   8.244  -1.952   6.089  3.5623 -0.0053  0.2365
   67MOL   H23621488   8.018  -1.948   6.169  0.7674 -1.2504 -0.7987
   67MOL   H23721489   7.795  -1.842   6.203 -2.2505  3.1693  0.5080
   67MOL   H23821490   7.695  -1.533   6.028  0.0189 -3.3160 -1.9433
   67MOL   H23921491   7.651  -1.661   6.141 -1.2815  0.7828  1.6263
   67MOL   H24021492   7.916  -1.515   5.950  0.6816  0.8314  0.0563
   67MOL   H24121493   8.133  -1.622   5.908 -1.1698  3.5191  1.3162
   67MOL   C24221494   7.746  -1.497   6.247  0.1770 -0.2417 -0.7401
   67MOL   C24321495   7.620  -1.425   6.292  0.3388  0.7937  0.5011
   67MOL   C24421496   7.598  -1.292   6.254 -0.2230  0.2294  0.2109
   67MOL   C24521497   7.478  -1.228   6.283 -0.3216  0.1607  0.1626
   67MOL   C24621498   7.381  -1.294   6.364  0.0622  0.3448 -0.1162
   67MOL   C24721499   7.237  -1.240   6.381 -0.3468  0.4955 -0.4775
   67MOL   C24821500   7.408  -1.423   6.417 -0.2565 -0.0391  0.8625
   67MOL   C24921501   7.525  -1.493   6.371  1.3690 -0.1917 -0.5251
   67MOL   H25021502   7.784  -1.554   6.331 -0.1060 -1.7425 -1.6141
   67MOL   H25121503   7.820  -1.419   6.227  3.3204 -2.8790  0.2217
   67MOL   H25221504   7.672  -1.236   6.199  2.2590 -1.7764  1.3806
   67MOL   H25321505   7.466  -1.126   6.249 -1.3191  0.6056  1.7868
   67MOL   H25421506   7.233  -1.157   6.310  4.2499 -0.1979 -1.7083
   67MOL   H25521507   7.159  -1.313   6.356 -0.3780 -0.0711  1.1969
   67MOL   H25621508   7.329  -1.472   6.472  0.3693  0.7082  2.4482
   67MOL   H25721509   7.530  -1.596   6.403 -0.0395 -0.5879 -1.5281
   67MOL   C25821510   7.207  -1.181   6.517 -0.0841 -0.2525 -0.0844
   67MOL   C25921511   7.065  -1.137   6.527  0.2513 -0.5963 -0.2661
   67MOL   C26021512   7.015  -1.026   6.457  0.2277  0.0755  0.3373
   67MOL   C26121513   6.881  -0.982   6.470  0.3174  0.3838  0.1509
   67MOL   C26221514   6.791  -1.059   6.545  0.3766  0.2830 -0.6217
   67MOL   C26321515   6.647  -1.015   6.561  0.3079  0.1268  0.2157
   67MOL   C26421516   6.843  -1.178   6.607  0.4999 -0.9969  0.2414
   67MOL   C26521517   6.978  -1.220   6.602 -0.0267 -0.7994 -0.5415
   67MOL   H26621518   7.273  -1.096   6.536  0.1926 -0.5465  0.2714
   67MOL   H26721519   7.224  -1.256   6.594  0.7505  1.0011  0.9740
   67MOL   H26821520   7.080  -0.968   6.394 -1.9549  0.9348 -1.1651
   67MOL   H26921521   6.851  -0.904   6.401  2.0688  0.0442 -1.0338
   67MOL   H27021522   6.623  -0.951   6.476  0.4879  1.3451  1.0749
   67MOL   H27121523   6.596  -1.110   6.542 -0.3624  0.2539  1.3275
   67MOL   H27221524   6.785  -1.240   6.674 -1.0177  2.1857  1.9663
   67MOL   H27321525   7.007  -1.310   6.654 -0.7867 -0.4815  0.4536
   67MOL   C27421526   6.610  -0.955   6.697  0.2563 -0.3992 -0.2076
   67MOL   C27521527   6.463  -0.910   6.713  0.4991 -1.1046 -0.3540
   67MOL   C27621528   6.368  -1.001   6.764  0.1632 -0.3780  0.1103
   67MOL   C27721529   6.233  -0.966   6.782 -0.3499 -0.0768  0.4222
   67MOL   C27821530   6.186  -0.838   6.737 -0.6513 -0.1637 -0.0569
   67MOL   C27921531   6.047  -0.797   6.764 -0.4825 -0.0857 -0.0205
   67MOL   C28021532   6.284  -0.754   6.679  0.1283 -0.1351 -0.4101
   67MOL   C28121533   6.419  -0.789   6.666  0.1680 -0.4189 -0.2305
   67MOL   H28221534   6.631  -1.027   6.776  0.9753  0.5022  0.4322
   67MOL   H28321535   6.672  -0.866   6.706  1.1644 -0.6978 -3.0844
   67MOL   H28421536   6.391  -1.100   6.800 -1.6477 -1.8469 -2.6014
   67MOL   H28521537   6.159  -1.025   6.834 -2.3363  3.1680  1.4602
   67MOL   H28621538   6.023  -0.712   6.700 -2.4979  1.1495  2.2718
   67MOL   H28721539   5.986  -0.886   6.750 -0.1254 -0.7743  2.5056
   67MOL   H28821540   6.255  -0.658   6.639 -0.5223  0.8894  2.3916
   67MOL   H28921541   6.489  -0.722   6.620  0.3586 -0.7571 -0.4330
   67MOL   C29021542   6.032  -0.743   6.906 -0.0793 -0.0512  0.4599
   67MOL   C29121543   5.889  -0.703   6.932  0.4684  0.1296  0.0623
   67MOL   C29221544   5.793  -0.798   6.984  0.1816 -0.2131 -0.5020
   67MOL   C29321545   5.659  -0.748   7.000  0.2341  0.2229 -0.7470
   67MOL   C29421546   5.616  -0.616   6.964 -0.2891  0.1842  0.1465
   67MOL   C29521547   5.471  -0.576   6.967 -0.6239 -0.4069 -0.1131
   67MOL   C29621548   5.721  -0.523   6.938  0.5960  0.3022 -0.0489
   67MOL   C29721549   5.849  -0.564   6.914 -0.5736  0.9706  0.0139
   67MOL   H29821550   6.092  -0.655   6.932  1.2262 -0.6968 -0.3163
   67MOL   H29921551   6.058  -0.817   6.982 -1.6975 -2.2110 -1.0568
   67MOL   H30021552   5.809  -0.902   7.009 -0.1195 -0.4215 -1.1777
   67MOL   H30121553   5.582  -0.810   7.042  2.1915 -1.3551  0.6476
   67MOL   H30221554   5.458  -0.493   6.898 -0.8618  0.3525  0.8290
   67MOL   H30321555   5.412  -0.655   6.921 -1.3406 -1.3569  2.3622
   67MOL   H30421556   5.697  -0.423   6.905  2.5951  0.9109  0.2784
   67MOL   H30521557   5.922  -0.488   6.891  0.4520 -0.4734 -1.5888
   67MOL   C30621558   5.409  -0.573   7.103  0.5093 -0.7593 -0.6328
   67MOL   C30721559   5.261  -0.524   7.108 -0.2524  0.3525  0.6111
   67MOL   C30821560   5.233  -0.396   7.055 -0.0057 -0.4547  0.1612
   67MOL   C30921561   5.100  -0.345   7.070 -0.1591 -0.4793  0.0969
   67MOL   C31021562   4.999  -0.425   7.131  0.0565  0.3921 -0.5591
   67MOL   C31121563   4.866  -0.353   7.152  0.3013  0.0359 -0.6231
   67MOL   C31221564   5.024  -0.560   7.168 -0.4359 -0.2611 -0.0514
   67MOL   C31321565   5.158  -0.600   7.163 -0.4199  1.0643  0.2223
   67MOL   H31421566   5.467  -0.517   7.176  0.4378 -1.5206  0.0153
   67MOL   H31521567   5.404  -0.677   7.136  0.3959 -0.8095 -0.8106
   67MOL   H31621568   5.316  -0.336   7.021  1.2547 -0.7619  2.5943
   67MOL   H31721569   5.080  -0.243   7.039 -1.9235  0.2502  3.4679
   67MOL   H31821570   4.816  -0.325   7.059 -0.6397  0.1722 -0.0785
   67MOL   H31921571   4.793  -0.402   7.216 -0.6249 -0.6105 -2.1389
   67MOL   H32021572   4.954  -0.628   7.216 -0.1545  0.3077  1.1984
   67MOL   H32121573   5.176  -0.695   7.211 -2.9256  0.8833  0.8863
   67MOL   H32221574   4.896  -0.262   7.205 -1.1896  0.5318 -0.6156
   68MOL     C121575   5.558   5.551   4.626  0.3027  0.5105  0.2551
   68MOL     C221576   5.420   5.498   4.657 -0.4390 -0.4300  0.4133
   68MOL     C321577   5.387   5.444   4.777 -0.2697  0.4509 -0.1433
   68MOL     C421578   5.255   5.391   4.795 -0.1829  0.5171  0.5517
   68MOL     C521579   5.149   5.415   4.707 -0.5054  0.0091  0.2759
   68MOL     C621580   5.004   5.359   4.730  0.4546  0.1509  0.3801
   68MOL     C721581   5.181   5.476   4.583  0.4630  0.3154  0.1703
   68MOL     C821582   5.319   5.511   4.559  0.2986 -0.0043  0.0763
   68MOL     H921583   5.556   5.654   4.592  0.0810  0.3677 -0.1618
   68MOL    H1021584   5.624   5.552   4.712 -0.9447  1.5674  1.2134
   68MOL    H1121585   5.464   5.423   4.850  0.6078 -3.3580 -2.0453
   68MOL    H1221586   5.230   5.336   4.884  1.6015 -0.9214  0.1891
   68MOL    H1321587   4.979   5.291   4.649 -0.1248 -0.0893  0.7591
   68MOL    H1421588   5.004   5.295   4.819  0.9810 -1.1796 -0.5612
   68MOL    H1521589   5.107   5.509   4.512 -1.4381  0.3700  2.1065
   68MOL    H1621590   5.344   5.555   4.464 -0.5763 -0.2361 -0.2608
   68MOL    H1721591   5.608   5.491   4.550 -2.3073  0.0656 -1.1809
   68MOL    C1821592   4.888   5.469   4.746  0.5174 -0.6531 -0.1992
   68MOL    C1921593   4.750   5.408   4.745 -0.4109 -0.2984 -0.0569
   68MOL    C2021594   4.687   5.367   4.627  0.1657 -0.3727 -0.8265
   68MOL    C2121595   4.566   5.296   4.628  0.2798  0.1433  0.0887
   68MOL    C2221596   4.493   5.291   4.753 -1.1603  0.4731 -0.1734
   68MOL    C2321597   4.354   5.239   4.752  0.4646 -0.0312 -0.0639
   68MOL    C2421598   4.556   5.342   4.870 -0.8600  0.1748 -0.5630
   68MOL    C2521599   4.685   5.389   4.865 -0.2184  0.7409  0.1281
   68MOL    H2621600   4.896   5.528   4.837 -1.0543 -0.9746  0.1604
   68MOL    H2721601   4.890   5.538   4.661 -0.8534 -1.0657 -0.5815
   68MOL    H2821602   4.740   5.381   4.534 -0.9089 -1.5630 -1.6352
   68MOL    H2921603   4.526   5.265   4.533 -0.4720  0.5833  0.2618
   68MOL    H3021604   4.338   5.179   4.841 -2.2356  0.1473 -0.3709
   68MOL    H3121605   4.331   5.176   4.666 -1.3643 -0.4518  0.7155
   68MOL    H3221606   4.506   5.337   4.965 -0.8055 -0.3159 -0.5567
   68MOL    H3321607   4.739   5.401   4.957  1.8930  0.0846 -0.9988
   68MOL    C3421608   4.254   5.358   4.745 -0.4989  0.1033 -0.0557
   68MOL    C3521609   4.106   5.313   4.721  0.0730 -0.6321  0.0506
   68MOL    C3621610   3.999   5.348   4.806 -0.1650 -0.2803 -0.6111
   68MOL    C3721611   3.869   5.293   4.784 -0.2857  0.9512  0.0576
   68MOL    C3821612   3.843   5.233   4.661  0.0394  0.7532 -0.1435
   68MOL    C3921613   3.700   5.201   4.623  0.3123 -0.3945 -0.3454
   68MOL    C4021614   3.948   5.224   4.560  0.0289 -0.2518  0.5399
   68MOL    C4121615   4.081   5.254   4.598 -0.6362  0.0843 -0.1042
   68MOL    H4221616   4.283   5.425   4.664  0.1659  1.6940  1.4750
   68MOL    H4321617   4.258   5.411   4.840 -2.8072  0.0906  0.0928
   68MOL    H4421618   4.021   5.403   4.896  0.3763 -0.5279 -0.5906
   68MOL    H4521619   3.787   5.311   4.852 -1.3206 -0.6945 -0.7013
   68MOL    H4621620   3.683   5.133   4.539  2.3140 -1.3570 -0.0188
   68MOL    H4721621   3.658   5.143   4.705  2.9187  0.2328  1.4981
   68MOL    H4821622   3.919   5.187   4.462 -1.2135  0.5529  0.5854
   68MOL    H4921623   4.160   5.245   4.524  1.0120  0.5888  1.5655
   68MOL    C5021624   3.613   5.331   4.620 -0.0517  0.4272 -0.2727
   68MOL    C5121625   3.479   5.314   4.549  0.3633  0.4870  0.4882
   68MOL    C5221626   3.482   5.340   4.410 -0.1954 -0.3095  0.1726
   68MOL    C5321627   3.364   5.325   4.335  0.3000 -0.3640 -0.3284
   68MOL    C5421628   3.241   5.298   4.404  0.0210  0.0047  0.7666
   68MOL    C5521629   3.108   5.291   4.332 -0.3366  0.7072 -0.1128
   68MOL    C5621630   3.235   5.292   4.545  0.0837 -0.2254  0.1019
   68MOL    C5721631   3.356   5.301   4.615  0.2195 -0.5774 -0.3252
   68MOL    H5821632   3.666   5.408   4.564  0.1042  1.1453  0.8285
   68MOL    H5921633   3.598   5.376   4.718  0.0954  0.2883 -0.1856
   68MOL    H6021634   3.570   5.381   4.362  0.5006  1.1812  2.6271
   68MOL    H6121635   3.363   5.348   4.229  0.9486  0.6916 -0.1149
   68MOL    H6221636   3.118   5.282   4.224 -3.6341  1.5103 -0.5106
   68MOL    H6321637   3.054   5.198   4.351  0.3926  0.6113  1.5776
   68MOL    H6421638   3.140   5.271   4.592 -0.2195 -1.7097 -1.1569
   68MOL    H6521639   3.346   5.296   4.723 -0.7740  0.4464 -0.3541
   68MOL    C6621640   3.026   5.419   4.353 -0.8432  0.0181 -0.3337
   68MOL    C6721641   2.895   5.416   4.280  0.3538  0.6372  0.3292
   68MOL    C6821642   2.803   5.319   4.316 -0.5469 -0.2048 -0.0663
   68MOL    C6921643   2.673   5.297   4.250 -0.7293  1.1089 -0.2310
   68MOL    C7021644   2.646   5.377   4.141 -0.3027 -0.8315  0.1100
   68MOL    C7121645   2.516   5.369   4.066  0.5689 -0.2274  0.0477
   68MOL    C7221646   2.733   5.479   4.103 -0.4050 -0.0072 -0.6059
   68MOL    C7321647   2.850   5.506   4.180 -0.6424  0.4198  0.3763
   68MOL    H7421648   3.080   5.509   4.321 -2.2201  0.4477 -1.5172
   68MOL    H7521649   3.001   5.441   4.457 -1.7921 -1.3251 -0.2717
   68MOL    H7621650   2.821   5.255   4.400  0.6762  1.4218  0.9358
   68MOL    H7721651   2.606   5.220   4.284 -1.2294  1.5138 -0.2884
   68MOL    H7821652   2.493   5.270   4.026 -2.4357 -0.0008  1.1238
   68MOL    H7921653   2.524   5.433   3.978  1.9547  0.6753  0.8011
   68MOL    H8021654   2.714   5.544   4.019  1.8199  0.5711 -0.6796
   68MOL    H8121655   2.912   5.591   4.154 -0.2743  0.4121  1.2269
   68MOL    C8221656   2.394   5.425   4.152 -0.4750  0.1195 -0.3540
   68MOL    C8321657   2.258   5.439   4.087  0.2523 -1.1543  0.2334
   68MOL    C8421658   2.150   5.366   4.135 -0.3121 -0.2545  1.1962
   68MOL    C8521659   2.020   5.393   4.091 -0.5215 -0.3179 -0.3226
   68MOL    C8621660   1.996   5.486   3.985  0.0778 -0.2807 -0.7033
   68MOL    C8721661   1.856   5.518   3.941  0.8076 -0.3553 -0.3945
   68MOL    C8821662   2.106   5.559   3.936 -0.0141  0.2863  0.0935
   68MOL    C8921663   2.236   5.544   3.993 -0.3735  0.2060  0.2333
   68MOL    H9021664   2.416   5.528   4.179 -3.6917  1.0646 -1.0458
   68MOL    H9121665   2.383   5.368   4.244 -0.6963  1.9322  0.7574
   68MOL    H9221666   2.172   5.307   4.222 -1.2444 -0.1625  1.4973
   68MOL    H9321667   1.942   5.330   4.129 -1.6758  2.4463  2.0724
   68MOL    H9421668   1.790   5.445   3.989  0.8670 -0.2900 -0.2159
   68MOL    H9521669   1.833   5.496   3.836  0.6509 -1.0992 -0.2097
   68MOL    H9621670   2.091   5.638   3.863  1.1683  1.0699  0.6851
   68MOL    H9721671   2.321   5.605   3.966 -0.1989  0.0807  0.5004
   68MOL    C9821672   1.806   5.661   3.984  0.4522 -0.0612  0.2083
   68MOL    C9921673   1.664   5.704   3.951  0.2639 -0.1385  0.3865
   68MOL   C10021674   1.557   5.610   3.954 -0.0614 -0.1247  0.2408
   68MOL   C10121675   1.429   5.652   3.927 -0.4975  0.0912  0.6026
   68MOL   C10221676   1.406   5.788   3.888 -0.3378 -0.3436  0.0571
   68MOL   C10321677   1.262   5.835   3.867 -0.4898  0.2426  0.3667
   68MOL   C10421678   1.508   5.882   3.887 -0.2212 -0.7987 -0.4298
   68MOL   C10521679   1.640   5.837   3.912  0.2369  0.6222  0.0109
   68MOL   H10621680   1.878   5.717   3.924  0.4953 -2.1656 -1.7767
   68MOL   H10721681   1.822   5.685   4.089 -0.1680 -0.6333  0.4363
   68MOL   H10821682   1.571   5.509   3.987 -0.4202 -0.4653 -0.6454
   68MOL   H10921683   1.350   5.579   3.935 -2.2004  1.9137  0.8537
   68MOL   H11021684   1.267   5.936   3.826  0.1837  0.3193  0.6321
   68MOL   H11121685   1.221   5.778   3.783 -0.1057 -0.1531  0.4489
   68MOL   H11221686   1.489   5.985   3.861  0.0572 -0.4068  0.9238
   68MOL   H11321687   1.727   5.899   3.894 -0.8389  1.1555 -3.7788
   68MOL   C11421688   1.178   5.827   3.999 -0.0799  0.3505  0.5528
   68MOL   C11521689   1.026   5.832   3.977 -0.1897 -0.3872  0.0619
   68MOL   C11621690   0.963   5.957   3.993 -0.5059  0.2559  0.1590
   68MOL   C11721691   0.823   5.962   3.983  0.1153  0.3541  0.1942
   68MOL   C11821692   0.748   5.848   3.950  0.2790 -0.6711  0.4885
   68MOL   C11921693   0.591   5.866   3.929  0.0886 -0.0142 -0.2935
   68MOL   C12021694   0.808   5.723   3.941  0.2604  0.1155 -0.8036
   68MOL   C12121695   0.947   5.713   3.963 -0.8093  0.7434  0.3647
   68MOL   H12221696   1.200   5.909   4.066  2.4792  0.4564 -0.3772
   68MOL   H12321697   1.194   5.739   4.061 -0.1707  0.8669  1.3082
   68MOL   H12421698   1.024   6.045   4.007 -1.2909  0.5161  2.2490
   68MOL   H12521699   0.785   6.062   3.995  0.1594  0.4353 -0.3170
   68MOL   H12621700   0.557   5.962   3.968  0.5839  0.8241 -1.8721
   68MOL   H12721701   0.566   5.866   3.823 -1.4349 -0.1970  0.0539
   68MOL   H12821702   0.755   5.632   3.918  0.4248 -0.4796  1.1030
   68MOL   H12921703   1.008   5.629   3.932 -0.7753  1.6875 -2.2219
   68MOL   C13021704   0.504   5.753   3.992  0.5935  0.6119 -0.0974
   68MOL   C13121705   0.352   5.764   3.967  0.1810 -0.3952 -0.6030
   68MOL   C13221706   0.288   5.879   4.013  0.1355  0.3068 -0.4032
   68MOL   C13321707   0.154   5.895   3.982  0.2760  0.4198  0.7114
   68MOL   C13421708   0.083   5.802   3.907 -0.4648  0.1372 -0.3560
   68MOL   C13521709  -0.066   5.825   3.874  0.1188  0.5237  0.2176
   68MOL   C13621710   0.150   5.686   3.873 -0.6587 -0.6490 -0.4304
   68MOL   C13721711   0.280   5.663   3.906  1.2627  0.8101 -0.4646
   68MOL   H13821712   0.521   5.754   4.100  0.1127 -0.7512  0.0044
   68MOL   H13921713   0.547   5.659   3.958 -0.0190  0.6276 -0.9325
   68MOL   H14021714   0.340   5.959   4.063 -0.8287 -1.0502  2.8736
   68MOL   H14121715   0.104   5.985   4.015 -0.7669  0.0891  0.0662
   68MOL   H14221716  -0.072   5.915   3.814  1.2013  0.1943 -0.3926
   68MOL   H14321717  -0.103   5.750   3.804 -1.6689  0.8591  0.7613
   68MOL   H14421718   0.100   5.604   3.824 -1.4611 -1.2510  1.3602
   68MOL   H14521719   0.325   5.572   3.869  1.1659  0.8525 -0.6847
   68MOL   C14621720  -0.152   5.830   4.003  0.6098  0.0176 -0.0430
   68MOL   C14721721  -0.293   5.856   3.973 -0.4755  0.6812 -0.3463
   68MOL   C14821722  -0.383   5.748   3.973 -0.6342  0.3035  0.2724
   68MOL   C14921723  -0.520   5.774   3.948  0.2104  0.0099  0.2177
   68MOL   C15021724  -0.561   5.902   3.914  0.6164 -0.4109  0.2950
   68MOL   C15121725  -0.712   5.926   3.871  0.2227 -0.3415  0.1165
   68MOL   C15221726  -0.463   6.008   3.910 -0.0916  0.0907  0.0820
   68MOL   C15321727  -0.332   5.987   3.954  0.8199  0.4092  0.3194
   68MOL   H15421728  -0.104   5.900   4.071  1.1150 -1.9544  1.6912
   68MOL   H15521729  -0.149   5.726   4.036  0.0751  0.4748  1.4969
   68MOL   H15621730  -0.353   5.647   3.997 -0.9919 -0.0690 -0.7884
   68MOL   H15721731  -0.582   5.687   3.934  0.5279  0.0432 -1.5033
   68MOL   H15821732  -0.756   5.848   3.808 -2.3807 -0.4966  2.0574
   68MOL   H15921733  -0.778   5.918   3.957  1.1033  1.5235  0.9784
   68MOL   H16021734  -0.489   6.111   3.889 -2.7488 -0.6420 -0.4353
   68MOL   H16121735  -0.271   6.075   3.966  0.6412  0.3375  1.8669
   68MOL   C16221736  -0.731   6.060   3.803  0.4805 -0.3460  0.4103
   68MOL   C16321737  -0.868   6.078   3.748 -0.5996  1.0645  0.1122
   68MOL   C16421738  -0.924   5.990   3.656  0.5253  0.2031 -0.4606
   68MOL   C16521739  -1.059   6.000   3.628  0.2678 -0.0008  0.6173
   68MOL   C16621740  -1.135   6.110   3.677 -0.6148 -0.6269 -0.1428
   68MOL   C16721741  -1.273   6.137   3.637  0.5553 -0.5753 -0.1998
   68MOL   C16821742  -1.070   6.201   3.764 -0.7301 -0.1303 -0.8748
   68MOL   C16921743  -0.935   6.183   3.797  0.3738 -0.3878 -0.3876
   68MOL   H17021744  -0.665   6.082   3.719  2.2533 -2.4589  1.2138
   68MOL   H17121745  -0.703   6.137   3.875 -1.1156  1.2439 -0.6103
   68MOL   H17221746  -0.868   5.911   3.608  1.1141 -0.3270  1.0648
   68MOL   H17321747  -1.110   5.934   3.558  2.5403 -1.5185  0.3619
   68MOL   H17421748  -1.301   6.242   3.636  1.7988 -0.2435 -1.0823
   68MOL   H17521749  -1.269   6.112   3.531  3.2906  1.4341 -0.6279
   68MOL   H17621750  -1.125   6.285   3.806  1.3272  1.2185 -0.8334
   68MOL   H17721751  -0.886   6.255   3.860 -0.3742  0.3617 -0.6526
   68MOL   C17821752  -1.379   6.064   3.719 -0.1718 -0.3531 -0.1995
   68MOL   C17921753  -1.524   6.095   3.681 -0.1201 -0.4672 -0.4931
   68MOL   C18021754  -1.598   6.000   3.618 -0.1568  0.0213  0.8515
   68MOL   C18121755  -1.732   6.026   3.584 -0.5590  0.1153 -0.0366
   68MOL   C18221756  -1.781   6.155   3.595  0.3920 -0.6404  0.1941
   68MOL   C18321757  -1.912   6.191   3.520  0.4379  0.8236  0.7621
   68MOL   C18421758  -1.701   6.263   3.639  1.1907 -0.4638  0.5281
   68MOL   C18521759  -1.577   6.231   3.688 -0.4051  0.4020 -0.8335
   68MOL   H18621760  -1.364   6.079   3.826  0.8978  3.2182 -0.7730
   68MOL   H18721761  -1.377   5.959   3.692 -1.1668 -0.0924 -1.3256
   68MOL   H18821762  -1.551   5.904   3.602 -1.4473 -1.0518  3.2681
   68MOL   H18921763  -1.796   5.949   3.543  2.0312 -0.9166 -2.2632
   68MOL   H19021764  -1.940   6.295   3.503 -0.7569  0.7566  2.2752
   68MOL   H19121765  -1.902   6.154   3.418 -3.3668  3.2484 -0.6319
   68MOL   H19221766  -1.732   6.365   3.621 -0.2976 -0.9747  0.1501
   68MOL   H19321767  -1.515   6.312   3.723  0.1072 -0.3178 -0.0099
   68MOL   C19421768  -2.029   6.129   3.578  0.5297  0.2146  0.0271
   68MOL   C19521769  -2.157   6.161   3.511 -0.7336  0.3330 -0.0788
   68MOL   C19621770  -2.209   6.285   3.538 -0.1092  0.6242  0.1515
   68MOL   C19721771  -2.334   6.321   3.490  0.5440  0.8959 -0.3962
   68MOL   C19821772  -2.415   6.233   3.416  0.4551 -0.1518 -0.1443
   68MOL   C19921773  -2.550   6.281   3.361 -0.2824  0.3018  0.0760
   68MOL   C20021774  -2.361   6.107   3.383  1.3708  0.0075  0.0952
   68MOL   C20121775  -2.227   6.073   3.426 -0.1615  0.7519 -0.6292
   68MOL   H20221776  -2.047   6.154   3.682 -0.7654 -1.7694  0.3074
   68MOL   H20321777  -2.025   6.020   3.591 -0.1076 -0.2852 -3.4069
   68MOL   H20421778  -2.160   6.365   3.591  1.7238  0.8223 -1.7707
   68MOL   H20521779  -2.376   6.420   3.509 -0.8504  0.4856 -1.2800
   68MOL   H20621780  -2.547   6.375   3.306 -1.5520  0.6765  0.6439
   68MOL   H20721781  -2.599   6.208   3.297 -0.5145  0.4522  0.0832
   68MOL   H20821782  -2.418   6.028   3.335  0.0217  0.6866  0.5743
   68MOL   H20921783  -2.185   5.976   3.402 -1.5311  0.2570 -1.0562
   68MOL   C21021784  -2.641   6.294   3.488  0.6464  0.3821  0.1885
   68MOL   C21121785  -2.776   6.363   3.456  0.2603  0.0769 -1.0031
   68MOL   C21221786  -2.863   6.291   3.369  0.3305 -0.0729 -0.1794
   68MOL   C21321787  -2.980   6.361   3.322 -0.6182 -0.1182  0.2705
   68MOL   C21421788  -3.015   6.484   3.373  0.1925 -0.2301 -0.0418
   68MOL   C21521789  -3.145   6.551   3.332  1.2247  0.0078  0.0206
   68MOL   C21621790  -2.927   6.546   3.470 -0.1708  0.5065 -0.7446
   68MOL   C21721791  -2.803   6.488   3.502 -0.1063  0.0418  0.2548
   68MOL   H21821792  -2.587   6.345   3.568 -1.5268  3.4394 -0.1807
   68MOL   H21921793  -2.662   6.192   3.520  0.0369 -0.3257 -2.2861
   68MOL   H22021794  -2.831   6.200   3.321  0.4385 -0.7302  1.1084
   68MOL   H22121795  -3.039   6.315   3.245 -1.4608  2.6953 -0.7997
   68MOL   H22221796  -3.130   6.652   3.369  2.1746  0.6719 -2.0975
   68MOL   H22321797  -3.144   6.556   3.223  0.2106 -3.0073 -0.1942
   68MOL   H22421798  -2.949   6.644   3.507 -0.0358 -0.2499  1.4006
   68MOL   H22521799  -2.720   6.536   3.552  0.5489 -0.1232 -0.6628
   68MOL   C22621800  -3.270   6.480   3.386  0.0003 -0.5762 -0.8491
   68MOL   C22721801  -3.401   6.557   3.365 -0.1338  0.1055  0.1672
   68MOL   C22821802  -3.444   6.661   3.446  0.3220  0.4162 -0.3027
   68MOL   C22921803  -3.574   6.716   3.425  0.0014 -0.1118 -0.3808
   68MOL   C23021804  -3.644   6.685   3.309  0.5709 -0.2303  0.0366
   68MOL   C23121805  -3.784   6.754   3.286 -0.0239 -0.8595 -0.0066
   68MOL   C23221806  -3.602   6.574   3.229  0.4398  0.3657 -0.5506
   68MOL   C23321807  -3.476   6.512   3.262 -0.0473 -0.1669  0.6884
   68MOL   H23421808  -3.264   6.454   3.491 -0.1481  2.4384 -0.0509
   68MOL   H23521809  -3.263   6.382   3.338 -1.5099  0.3080 -2.9258
   68MOL   H23621810  -3.383   6.694   3.528  1.0894 -1.6719 -0.0107
   68MOL   H23721811  -3.600   6.804   3.483  0.2957 -1.1231  1.3458
   68MOL   H23821812  -3.778   6.838   3.355 -0.3846 -0.6151 -0.2790
   68MOL   H23921813  -3.767   6.786   3.183 -2.4275 -0.3830 -0.2826
   68MOL   H24021814  -3.657   6.545   3.141 -1.8824  0.1199  0.9456
   68MOL   H24121815  -3.460   6.419   3.209 -1.4321 -1.9715  3.3457
   68MOL   C24221816  -3.906   6.665   3.323  0.0585  0.7616  0.4957
   68MOL   C24321817  -4.040   6.736   3.317  0.7706 -1.0166  0.3704
   68MOL   C24421818  -4.071   6.861   3.380 -0.5617  0.1310  0.4010
   68MOL   C24521819  -4.193   6.922   3.348  0.3831 -0.2659  0.9798
   68MOL   C24621820  -4.290   6.856   3.266 -0.6137 -0.6796 -0.2068
   68MOL   C24721821  -4.431   6.916   3.244 -0.3610  0.1231 -0.0630
   68MOL   C24821822  -4.264   6.734   3.210  0.3478  0.6011 -0.7717
   68MOL   C24921823  -4.139   6.679   3.237  0.4105  0.6177  0.2835
   68MOL   H25021824  -3.905   6.575   3.262 -1.4126  0.7724  0.4331
   68MOL   H25121825  -3.888   6.623   3.423 -0.4006 -0.0873  0.2281
   68MOL   H25221826  -3.999   6.903   3.450 -1.6413  0.8852  1.0755
   68MOL   H25321827  -4.213   7.020   3.389  1.5644  1.4535 -2.3802
   68MOL   H25421828  -4.416   7.022   3.262  1.5709  0.0531 -1.1150
   68MOL   H25521829  -4.471   6.910   3.143 -2.4309 -2.0202  0.8349
   68MOL   H25621830  -4.334   6.677   3.151  1.2126 -0.7338 -0.5567
   68MOL   H25721831  -4.119   6.584   3.190  1.7856  0.7067  0.6747
   68MOL   C25821832  -4.526   6.858   3.354 -0.2815  0.0913 -0.7268
   68MOL   C25921833  -4.670   6.910   3.341 -0.4489 -0.0210  0.2762
   68MOL   C26021834  -4.753   6.857   3.239 -0.2558 -0.2831 -0.4440
   68MOL   C26121835  -4.884   6.906   3.225 -0.2530 -0.3035 -0.3148
   68MOL   C26221836  -4.930   7.017   3.301 -0.8523  0.2463 -0.0318
   68MOL   C26321837  -5.063   7.074   3.273  0.9124 -0.0700 -0.4651
   68MOL   C26421838  -4.846   7.070   3.398  0.0825 -0.9184 -0.8062
   68MOL   C26521839  -4.716   7.020   3.417 -0.2973 -0.7521  0.3124
   68MOL   H26621840  -4.497   6.871   3.459 -1.8355 -1.3027 -0.0947
   68MOL   H26721841  -4.520   6.750   3.342  0.7981 -0.1011  1.2116
   68MOL   H26821842  -4.719   6.778   3.173 -0.1332 -0.5322 -0.0860
   68MOL   H26921843  -4.945   6.869   3.143  0.9811 -0.1890 -1.3135
   68MOL   H27021844  -5.054   7.182   3.285 -0.8616 -0.1026  1.3603
   68MOL   H27121845  -5.088   7.044   3.171  0.9109 -1.9648  0.0757
   68MOL   H27221846  -4.888   7.155   3.449 -0.2068 -2.1023  1.0117
   68MOL   H27321847  -4.639   7.065   3.478  0.2475  2.7868 -2.8436
   68MOL   C27421848  -5.181   7.024   3.366 -0.1829 -0.1735  0.5160
   68MOL   C27521849  -5.316   7.076   3.332 -0.6252  0.0865 -0.1834
   68MOL   C27621850  -5.414   6.995   3.280 -0.2585  0.0231  0.5854
   68MOL   C27721851  -5.538   7.056   3.251  0.3336 -0.2404  1.1832
   68MOL   C27821852  -5.563   7.192   3.260  0.3218  0.6537  0.0351
   68MOL   C27921853  -5.696   7.256   3.223  0.0731  0.3478  0.0451
   68MOL   C28021854  -5.454   7.268   3.309  0.6407  0.9690  0.0448
   68MOL   C28121855  -5.331   7.216   3.338  0.8803  0.0277 -0.4768
   68MOL   H28221856  -5.181   6.915   3.363 -1.0295 -0.1554 -0.4072
   68MOL   H28321857  -5.175   7.040   3.473 -2.2014  0.9729  0.4753
   68MOL   H28421858  -5.388   6.890   3.277  1.9020  0.5637 -1.1876
   68MOL   H28521859  -5.610   6.985   3.213  0.5028  1.2982 -2.1859
   68MOL   H28621860  -5.687   7.360   3.190 -0.4044  1.2834  2.7409
   68MOL   H28721861  -5.741   7.200   3.141  1.2017 -1.8880  0.9274
   68MOL   H28821862  -5.467   7.374   3.326 -1.5244  1.0172 -1.6410
   68MOL   H28921863  -5.254   7.282   3.376 -0.5627  0.9901  0.7972
   68MOL   C29021864  -5.790   7.247   3.350  0.4229 -0.2121  0.1920
   68MOL   C29121865  -5.922   7.314   3.318  0.6828 -0.6683  0.4572
   68MOL   C29221866  -5.937   7.460   3.322  0.3603  1.1125 -0.1786
   68MOL   C29321867  -6.059   7.523   3.286  0.1662  0.0735  0.7660
   68MOL   C29421868  -6.169   7.449   3.240  0.2086 -0.5262 -0.1170
   68MOL   C29521869  -6.304   7.511   3.211 -0.2895 -0.5076 -0.1792
   68MOL   C29621870  -6.154   7.308   3.231  0.1019 -0.1176  0.6615
   68MOL   C29721871  -6.035   7.247   3.271 -0.0313 -0.3557 -0.4140
   68MOL   H29821872  -5.738   7.299   3.431  0.5071 -0.8740  0.5624
   68MOL   H29921873  -5.817   7.144   3.375 -1.1591  0.6245  2.1193
   68MOL   H30021874  -5.856   7.516   3.365  2.2833 -0.7436 -1.3076
   68MOL   H30121875  -6.068   7.628   3.309  0.8400  0.6507 -1.5304
   68MOL   H30221876  -6.290   7.592   3.140  1.2285 -0.3644  0.2569
   68MOL   H30321877  -6.361   7.435   3.158 -0.7522  0.0772 -0.5181
   68MOL   H30421878  -6.245   7.256   3.204  0.5369 -0.3393 -0.3859
   68MOL   H30521879  -6.018   7.142   3.254 -0.5892 -0.8017  1.6866
   68MOL   C30621880  -6.380   7.561   3.337  0.5385  1.2118  0.3282
   68MOL   C30721881  -6.515   7.626   3.312 -1.3999 -0.2296  0.6101
   68MOL   C30821882  -6.526   7.722   3.207  0.4404 -0.5913  0.1822
   68MOL   C30921883  -6.657   7.778   3.185  0.2573  0.1399 -0.6169
   68MOL   C31021884  -6.770   7.731   3.260  0.1258 -0.7542 -0.4241
   68MOL   C31121885  -6.901   7.799   3.226  0.2379 -0.3892 -0.4638
   68MOL   C31221886  -6.753   7.650   3.372 -0.1376 -0.1563  0.0270
   68MOL   C31321887  -6.627   7.591   3.388 -0.1908  0.5643 -0.4847
   68MOL   H31421888  -6.327   7.641   3.390  1.4536 -1.0836  3.0054
   68MOL   H31521889  -6.380   7.480   3.409 -0.1621  0.6014 -0.3660
   68MOL   H31621890  -6.439   7.750   3.150 -0.8471  0.2798 -1.3996
   68MOL   H31721891  -6.669   7.852   3.107 -2.3358  0.5154  0.1218
   68MOL   H31821892  -6.889   7.906   3.240  0.9208 -0.5233 -0.0058
   68MOL   H31921893  -6.922   7.774   3.122  0.1933 -1.6460 -0.1678
   68MOL   H32021894  -6.836   7.636   3.439 -0.7034 -0.3559 -0.7071
   68MOL   H32121895  -6.616   7.520   3.469 -1.2140 -0.5280 -1.2924
   68MOL   H32221896  -6.993   7.761   3.271  0.2445 -2.3823 -2.0567
   69MOL     C121897   2.965   4.255   6.750  0.3092 -0.0478 -0.3144
   69MOL     C221898   2.837   4.292   6.824 -0.2908 -0.3033  0.4130
   69MOL     C321899   2.789   4.418   6.807 -0.0244  0.3309 -0.3326
   69MOL     C421900   2.678   4.468   6.878 -0.3546  0.4783 -0.0983
   69MOL     C521901   2.615   4.382   6.969  0.3974  0.5900 -0.3310
   69MOL     C621902   2.499   4.437   7.056  0.2429  0.2753  0.1785
   69MOL     C721903   2.659   4.247   6.980 -0.0711  0.2879  0.3902
   69MOL     C821904   2.771   4.201   6.908 -0.0272 -0.9520  0.1293
   69MOL     H921905   3.058   4.262   6.806  0.0719 -3.8573  0.6704
   69MOL    H1021906   2.961   4.155   6.708  1.0211  0.4433 -1.5757
   69MOL    H1121907   2.853   4.492   6.760 -0.3389  0.6188 -0.3076
   69MOL    H1221908   2.660   4.573   6.859 -4.5439 -0.3413 -1.1506
   69MOL    H1321909   2.515   4.388   7.152  3.9134  1.7745  0.4175
   69MOL    H1421910   2.514   4.544   7.066  0.1190  0.4171 -1.0644
   69MOL    H1521911   2.614   4.183   7.055  2.7024 -0.3318  1.6099
   69MOL    H1621912   2.799   4.097   6.912 -0.7921 -1.1334  0.8835
   69MOL    H1721913   2.975   4.324   6.666  1.7419  0.1507  0.0182
   69MOL    C1821914   2.370   4.412   6.971 -0.0807 -0.0406 -0.5263
   69MOL    C1921915   2.238   4.457   7.040 -0.2938  0.4013 -0.6644
   69MOL    C2021916   2.197   4.595   7.031  0.0127 -0.2096  0.0523
   69MOL    C2121917   2.081   4.642   7.102 -0.4462 -0.3513 -0.3411
   69MOL    C2221918   2.017   4.559   7.193  0.4935 -0.5045 -0.3048
   69MOL    C2321919   1.901   4.617   7.266  0.3247 -0.0896  0.3838
   69MOL    C2421920   2.062   4.424   7.210  0.1450  0.2260  0.2929
   69MOL    C2521921   2.173   4.373   7.134  0.3494  0.6887 -1.1597
   69MOL    H2621922   2.387   4.454   6.872  1.4854 -1.2207 -0.7857
   69MOL    H2721923   2.357   4.304   6.962 -0.1468 -0.1297  0.5704
   69MOL    H2821924   2.256   4.660   6.969 -1.2415 -0.2106 -1.1762
   69MOL    H2921925   2.050   4.745   7.090  1.0887  0.2748  0.8783
   69MOL    H3021926   1.941   4.687   7.340 -1.2308  0.7360  0.4795
   69MOL    H3121927   1.870   4.531   7.325  1.8750 -1.6796 -1.0977
   69MOL    H3221928   2.011   4.353   7.274 -1.8492  0.5642 -0.8766
   69MOL    H3321929   2.202   4.271   7.148 -0.9118  0.4183 -0.4240
   69MOL    C3421930   1.784   4.673   7.184 -0.2354  0.0709 -0.2732
   69MOL    C3521931   1.664   4.703   7.279  0.3075  0.3682  0.6133
   69MOL    C3621932   1.622   4.837   7.301 -0.1383 -0.2663 -0.2171
   69MOL    C3721933   1.509   4.856   7.385  0.3381  0.2726 -0.8183
   69MOL    C3821934   1.426   4.744   7.434 -0.3493 -1.2330  0.1919
   69MOL    C3921935   1.293   4.765   7.508  0.2797 -0.1922 -0.5199
   69MOL    C4021936   1.466   4.615   7.414  0.2752  0.7357  0.4501
   69MOL    C4121937   1.591   4.599   7.342 -0.2799  0.0750  0.0337
   69MOL    H4221938   1.759   4.594   7.114 -1.5783  1.1392 -1.0200
   69MOL    H4321939   1.820   4.762   7.131  0.2606  1.0259  1.6137
   69MOL    H4421940   1.676   4.925   7.268  0.9259 -0.7851  0.1471
   69MOL    H4521941   1.471   4.953   7.413 -0.5555  0.8297 -3.7905
   69MOL    H4621942   1.261   4.671   7.553  1.1281 -1.0395 -1.6526
   69MOL    H4721943   1.298   4.839   7.588  2.2402 -0.1676 -0.6365
   69MOL    H4821944   1.399   4.535   7.441 -1.1708  2.2552  1.4907
   69MOL    H4921945   1.616   4.495   7.326 -0.9820  0.2231 -2.2194
   69MOL    C5021946   1.178   4.809   7.404 -0.4464  0.4969  0.4744
   69MOL    C5121947   1.048   4.842   7.468  0.5471 -0.9091 -0.1038
   69MOL    C5221948   1.006   4.975   7.460 -0.6314  0.4059 -0.6146
   69MOL    C5321949   0.881   5.015   7.516 -0.2169  0.0183  0.3868
   69MOL    C5421950   0.797   4.920   7.575  0.3032 -0.0408  0.3480
   69MOL    C5521951   0.659   4.955   7.637  0.6178  0.2400  0.1415
   69MOL    C5621952   0.839   4.785   7.576 -0.3782 -0.2913 -0.0332
   69MOL    C5721953   0.967   4.749   7.532  0.4175  0.4050 -0.0048
   69MOL    H5821954   1.167   4.722   7.340  0.5015  2.0545 -1.8593
   69MOL    H5921955   1.212   4.894   7.345  1.5574 -0.2215  0.5863
   69MOL    H6021956   1.078   5.042   7.415 -1.0626 -0.3454 -2.4800
   69MOL    H6121957   0.855   5.119   7.508  1.5033  0.5436  1.2385
   69MOL    H6221958   0.644   4.909   7.734  1.4352  1.1635  0.7258
   69MOL    H6321959   0.659   5.061   7.665 -0.8968  0.7335 -1.6418
   69MOL    H6421960   0.775   4.725   7.639  0.2388  0.4761  1.3657
   69MOL    H6521961   0.987   4.643   7.535  1.9650  0.6779 -0.3712
   69MOL    C6621962   0.547   4.940   7.537 -0.3965  0.5833  0.4991
   69MOL    C6721963   0.412   4.989   7.597  0.1335 -0.7131  0.4325
   69MOL    C6821964   0.323   4.904   7.663  0.1224 -0.3831  0.5891
   69MOL    C6921965   0.200   4.959   7.710 -0.1162 -0.0468  0.7050
   69MOL    C7021966   0.166   5.095   7.690 -0.3860  0.1022 -0.6724
   69MOL    C7121967   0.028   5.144   7.738  0.1500 -0.1681 -0.4403
   69MOL    C7221968   0.259   5.176   7.623 -0.0686  0.4513  0.1321
   69MOL    C7321969   0.375   5.122   7.569 -0.1295  0.4133  0.3082
   69MOL    H7421970   0.531   4.839   7.498 -2.6327  1.8086 -1.8822
   69MOL    H7521971   0.569   4.993   7.444 -3.0481  1.0952  0.1366
   69MOL    H7621972   0.356   4.803   7.680  0.4470 -0.3859 -0.0297
   69MOL    H7721973   0.126   4.903   7.767  0.1816  0.1012  1.2435
   69MOL    H7821974   0.034   5.250   7.762  0.1779 -0.2914  0.1028
   69MOL    H7921975   0.001   5.090   7.829  1.8022 -1.5010 -0.7137
   69MOL    H8021976   0.231   5.277   7.597  1.3963  0.2225 -2.5540
   69MOL    H8121977   0.435   5.190   7.510  1.4640 -0.7833  0.5140
   69MOL    C8221978  -0.088   5.143   7.638  0.4112 -0.2148  0.2801
   69MOL    C8321979  -0.217   5.178   7.699 -0.2200  0.5575 -0.2151
   69MOL    C8421980  -0.279   5.085   7.778 -0.8285  0.3832 -0.4969
   69MOL    C8521981  -0.400   5.104   7.846  0.1119  0.2383  0.2136
   69MOL    C8621982  -0.457   5.233   7.828 -0.4177  0.8659 -0.0537
   69MOL    C8721983  -0.576   5.272   7.909  0.5381 -0.9937 -0.0697
   69MOL    C8821984  -0.398   5.331   7.750  0.7567 -0.0355  0.0814
   69MOL    C8921985  -0.279   5.302   7.689 -0.5391  0.1670  0.4829
   69MOL    H9021986  -0.103   5.051   7.582  0.2579 -0.5172  0.8133
   69MOL    H9121987  -0.062   5.216   7.561 -0.0032  0.9974  1.2698
   69MOL    H9221988  -0.223   4.996   7.807 -2.3850 -0.1071  1.1243
   69MOL    H9321989  -0.421   5.029   7.921  1.9509 -0.8723 -0.3494
   69MOL    H9421990  -0.551   5.356   7.973 -0.1320 -0.2890 -0.7160
   69MOL    H9521991  -0.607   5.188   7.972 -0.5173  0.1114  0.8868
   69MOL    H9621992  -0.431   5.433   7.760 -0.0914 -0.4103  1.1316
   69MOL    H9721993  -0.244   5.380   7.623 -0.4770  1.6749  2.2477
   69MOL    C9821994  -0.692   5.310   7.814 -0.6790  0.1149 -0.4885
   69MOL    C9921995  -0.814   5.339   7.903  0.3975  0.0645  0.2544
   69MOL   C10021996  -0.910   5.247   7.945  0.1501  0.0257  0.1607
   69MOL   C10121997  -1.016   5.284   8.026  0.3265 -0.4561 -0.0782
   69MOL   C10221998  -1.040   5.421   8.062 -0.0085 -0.2117  0.0632
   69MOL   C10321999  -1.160   5.465   8.148 -0.1159  0.6131 -0.1025
   69MOL   C10422000  -0.944   5.514   8.019  0.1467 -0.3078 -0.0794
   69MOL   C10522001  -0.837   5.476   7.937 -0.2648 -0.2095 -0.1420
   69MOL   H10622002  -0.716   5.227   7.748 -0.2269  1.2299 -2.0891
   69MOL   H10722003  -0.670   5.401   7.759 -1.0948  0.2705 -0.4031
   69MOL   H10822004  -0.899   5.141   7.932 -2.9680 -0.3010 -0.1984
   69MOL   H10922005  -1.083   5.210   8.066 -0.7587  0.7006  0.2880
   69MOL   H11022006  -1.176   5.403   8.237 -2.4987  1.8176  0.3605
   69MOL   H11122007  -1.140   5.561   8.194  0.1845 -0.0583  1.2113
   69MOL   H11222008  -0.952   5.619   8.041 -0.6453 -0.4913  0.5254
   69MOL   H11322009  -0.764   5.552   7.914 -1.0906  0.7579  0.4068
   69MOL   C11422010  -1.294   5.452   8.071 -0.4305  0.0531 -0.2250
   69MOL   C11522011  -1.408   5.518   8.148 -0.4468 -0.2865  0.9782
   69MOL   C11622012  -1.388   5.656   8.184  0.1464 -0.1252 -0.6455
   69MOL   C11722013  -1.495   5.728   8.238  0.5638  0.1958 -0.1759
   69MOL   C11822014  -1.629   5.665   8.253 -0.0397  0.5701  0.4093
   69MOL   C11922015  -1.745   5.744   8.315  0.0862 -0.5218 -0.5092
   69MOL   C12022016  -1.637   5.529   8.222 -0.1930 -0.2657 -0.2156
   69MOL   C12122017  -1.532   5.459   8.161 -0.3379 -0.3680 -0.1561
   69MOL   H12222018  -1.317   5.347   8.053 -1.6268  0.1872  0.4378
   69MOL   H12322019  -1.292   5.505   7.976 -1.1008  0.0078 -0.2682
   69MOL   H12422020  -1.292   5.704   8.172  0.0291  0.2210 -0.2369
   69MOL   H12522021  -1.485   5.836   8.247  3.3624  0.0013 -0.5764
   69MOL   H12622022  -1.817   5.686   8.373 -2.1818  0.7583 -1.9684
   69MOL   H12722023  -1.710   5.803   8.400  0.3912  0.0295 -1.0135
   69MOL   H12822024  -1.728   5.474   8.243  0.6363 -0.6019  2.8656
   69MOL   H12922025  -1.550   5.359   8.126 -0.2650 -0.5275  0.2596
   69MOL   C13022026  -1.815   5.822   8.206  0.5271 -0.3633  0.5133
   69MOL   C13122027  -1.919   5.922   8.259 -0.5802 -0.7624  0.4953
   69MOL   C13222028  -1.919   6.055   8.206 -0.6132 -0.2446  0.4667
   69MOL   C13322029  -2.013   6.149   8.254 -0.0928 -0.2291 -0.3943
   69MOL   C13422030  -2.103   6.116   8.360  0.3610  0.4611 -0.2400
   69MOL   C13522031  -2.226   6.198   8.401 -0.0108  0.0112  0.4867
   69MOL   C13622032  -2.103   5.983   8.409  0.1469 -0.2639 -0.5866
   69MOL   C13722033  -2.015   5.887   8.356 -0.6771  0.4942 -0.2118
   69MOL   H13822034  -1.857   5.750   8.135  2.3972 -1.4597  0.4716
   69MOL   H13922035  -1.740   5.878   8.148 -0.7152 -0.6770 -1.4416
   69MOL   H14022036  -1.839   6.076   8.136  0.6740  0.9837  2.2654
   69MOL   H14122037  -2.014   6.252   8.221  0.0130 -0.8685 -2.4845
   69MOL   H14222038  -2.235   6.211   8.509 -0.8114 -0.3657  0.4693
   69MOL   H14322039  -2.208   6.301   8.370 -0.6354 -0.5668 -1.8671
   69MOL   H14422040  -2.176   5.948   8.480  0.1408 -0.1705 -0.5460
   69MOL   H14522041  -2.027   5.794   8.411  2.8382  0.9298  1.4410
   69MOL   C14622042  -2.358   6.158   8.330 -0.3392  0.2915 -0.2450
   69MOL   C14722043  -2.467   6.264   8.360 -0.4166 -0.3641 -0.8494
   69MOL   C14822044  -2.457   6.386   8.294 -0.1126  0.5636  0.3642
   69MOL   C14922045  -2.556   6.480   8.307  0.2885 -0.4089  1.0751
   69MOL   C15022046  -2.669   6.452   8.386 -0.5903  0.7039 -0.1871
   69MOL   C15122047  -2.785   6.551   8.382  0.0333  0.0327  0.2147
   69MOL   C15222048  -2.673   6.331   8.459  0.0473 -0.7177  0.3236
   69MOL   C15322049  -2.565   6.238   8.451  0.1716  0.6446 -0.3936
   69MOL   H15422050  -2.382   6.056   8.360  0.2446  0.4024  0.6330
   69MOL   H15522051  -2.339   6.148   8.223  1.4907  2.3088 -0.1529
   69MOL   H15622052  -2.377   6.403   8.224  0.0481 -0.9894  0.1569
   69MOL   H15722053  -2.551   6.571   8.250 -2.8672  1.5403  3.7645
   69MOL   H15822054  -2.805   6.573   8.277  2.5163  0.5041 -0.1802
   69MOL   H15922055  -2.874   6.514   8.434  0.1991  0.1246  0.5676
   69MOL   H16022056  -2.764   6.316   8.515  0.9401  1.1159  2.3252
   69MOL   H16122057  -2.560   6.155   8.520 -0.5303  1.3384  0.5038
   69MOL   C16222058  -2.744   6.686   8.439  0.9642 -0.0323 -0.3943
   69MOL   C16322059  -2.863   6.781   8.453  0.2910  0.3985  0.3006
   69MOL   C16422060  -2.953   6.779   8.559 -0.2406 -0.2215  0.4204
   69MOL   C16522061  -3.057   6.875   8.565  0.7452 -1.0032  0.5817
   69MOL   C16622062  -3.073   6.967   8.456  0.2332 -0.3291 -0.1985
   69MOL   C16722063  -3.187   7.070   8.457 -0.2631  0.2427 -0.5783
   69MOL   C16822064  -2.982   6.973   8.344  0.5468 -0.2424  0.4554
   69MOL   C16922065  -2.881   6.875   8.348 -0.8280 -0.2425 -0.2595
   69MOL   H17022066  -2.662   6.727   8.381 -2.3900  2.1638 -3.8359
   69MOL   H17122067  -2.715   6.670   8.543 -0.9113  0.7828  0.2838
   69MOL   H17222068  -2.934   6.698   8.628 -1.3445 -2.3600 -1.7133
   69MOL   H17322069  -3.122   6.878   8.651  0.7925 -3.6532  0.7610
   69MOL   H17422070  -3.242   7.077   8.363  0.2174 -0.3782 -0.9082
   69MOL   H17522071  -3.260   7.028   8.526  0.4677 -0.4175 -0.2104
   69MOL   H17622072  -2.991   7.046   8.265  0.7731 -2.1824 -1.4139
   69MOL   H17722073  -2.813   6.868   8.265 -0.5833 -0.7154 -0.0205
   69MOL   C17822074  -3.158   7.197   8.531 -0.1096 -0.4234 -0.1987
   69MOL   C17922075  -3.279   7.287   8.565 -0.8384  0.3813 -0.4913
   69MOL   C18022076  -3.273   7.389   8.661 -0.1301  0.5256  0.1830
   69MOL   C18122077  -3.385   7.469   8.682  1.2006  0.0405 -1.0267
   69MOL   C18222078  -3.505   7.450   8.620  0.0205  0.3091  0.3498
   69MOL   C18322079  -3.627   7.538   8.658 -0.3149 -0.2274 -0.2409
   69MOL   C18422080  -3.522   7.349   8.523 -0.4746  0.5306  1.0517
   69MOL   C18522081  -3.406   7.271   8.497  0.5704  0.0701 -0.5146
   69MOL   H18622082  -3.088   7.251   8.467 -0.5830  1.5234  0.8804
   69MOL   H18722083  -3.101   7.183   8.623 -0.6867 -2.0245 -0.0761
   69MOL   H18822084  -3.181   7.411   8.712  0.0652 -0.6689  0.3400
   69MOL   H18922085  -3.365   7.555   8.744  0.1039  0.6236 -1.4734
   69MOL   H19022086  -3.722   7.491   8.632 -0.6293 -0.4126  1.1697
   69MOL   H19122087  -3.619   7.541   8.767  1.1128 -1.1726 -0.3172
   69MOL   H19222088  -3.617   7.327   8.476  1.3854 -0.3824 -2.4212
   69MOL   H19322089  -3.417   7.193   8.423  0.0527  2.3815 -2.9475
   69MOL   C19422090  -3.613   7.683   8.595 -0.1484 -0.6834  0.5351
   69MOL   C19522091  -3.724   7.785   8.613  0.6599  0.0410 -0.6612
   69MOL   C19622092  -3.741   7.837   8.739  0.0184 -1.0121  0.3220
   69MOL   C19722093  -3.847   7.925   8.762  0.5169 -0.2315 -0.4701
   69MOL   C19822094  -3.937   7.962   8.656  0.4214 -0.1872 -0.8771
   69MOL   C19922095  -4.052   8.057   8.676  0.6260 -0.3279  0.5014
   69MOL   C20022096  -3.918   7.909   8.529  0.2414  0.7365  0.0473
   69MOL   C20122097  -3.805   7.826   8.505 -0.2413 -0.0017  0.4008
   69MOL   H20222098  -3.603   7.674   8.487 -1.6925 -0.4535  0.3595
   69MOL   H20322099  -3.520   7.731   8.625 -0.6223  0.2848  0.4928
   69MOL   H20422100  -3.686   7.812   8.829 -0.0893 -1.4498  0.2660
   69MOL   H20522101  -3.875   7.972   8.855 -1.3168  0.0325 -1.1231
   69MOL   H20622102  -4.030   8.152   8.724  0.4541 -0.0157 -0.0287
   69MOL   H20722103  -4.095   8.084   8.579 -0.5958 -0.4870  1.0006
   69MOL   H20822104  -3.983   7.944   8.450 -0.6386 -0.1617  0.3607
   69MOL   H20922105  -3.781   7.798   8.404  0.7295 -0.4048  0.7303
   69MOL   C21022106  -4.162   8.003   8.763  0.5784  0.1952  0.0488
   69MOL   C21122107  -4.292   8.077   8.750  0.8982 -0.2280  0.2953
   69MOL   C21222108  -4.385   8.041   8.653 -0.4206 -0.2318 -0.2111
   69MOL   C21322109  -4.496   8.119   8.630 -0.4566 -0.3221  1.0280
   69MOL   C21422110  -4.524   8.228   8.712 -0.7246  0.0282  0.8955
   69MOL   C21522111  -4.646   8.313   8.687  0.1325 -0.1103  0.4110
   69MOL   C21622112  -4.432   8.268   8.813 -0.1339 -0.6884 -0.0724
   69MOL   C21722113  -4.317   8.185   8.836  0.3133 -0.1680  0.5180
   69MOL   H21822114  -4.128   8.004   8.867 -0.1175  0.6118  0.2740
   69MOL   H21922115  -4.167   7.896   8.742 -3.3767  0.3175  0.1289
   69MOL   H22022116  -4.364   7.965   8.580 -0.8072  1.2703 -1.9214
   69MOL   H22122117  -4.563   8.104   8.547  2.2540 -0.1954 -1.2894
   69MOL   H22222118  -4.634   8.422   8.693 -0.7068 -0.0950  1.9963
   69MOL   H22322119  -4.669   8.300   8.581  0.8900  0.4072  0.1772
   69MOL   H22422120  -4.450   8.354   8.875  2.3623 -1.6547  2.0835
   69MOL   H22522121  -4.241   8.231   8.896 -0.7100  4.2125 -1.3458
   69MOL   C22622122  -4.751   8.263   8.784 -0.3086  0.2656  0.9177
   69MOL   C22722123  -4.882   8.336   8.768 -0.6688 -0.2849 -0.4783
   69MOL   C22822124  -4.991   8.272   8.705 -0.6629 -0.2220  0.6207
   69MOL   C22922125  -5.118   8.333   8.695 -0.5403 -0.4841  0.3993
   69MOL   C23022126  -5.124   8.464   8.744 -0.3769  0.3937 -0.0932
   69MOL   C23122127  -5.249   8.541   8.730 -0.9267 -0.0777 -0.2521
   69MOL   C23222128  -5.019   8.532   8.804  0.4530 -0.3612 -0.3829
   69MOL   C23322129  -4.897   8.466   8.818 -0.1831 -0.1027  0.6296
   69MOL   H23422130  -4.704   8.284   8.880  0.3197 -1.6680  1.0658
   69MOL   H23522131  -4.761   8.155   8.770  0.5313  0.6040 -2.8443
   69MOL   H23622132  -4.979   8.168   8.679 -0.5270  0.0932 -0.6289
   69MOL   H23722133  -5.198   8.290   8.637 -0.3696 -2.7710  1.8401
   69MOL   H23822134  -5.226   8.647   8.714 -1.7052  0.1241 -0.0671
   69MOL   H23922135  -5.311   8.501   8.650  2.4257 -0.4727 -2.7034
   69MOL   H24022136  -5.032   8.635   8.834 -3.2580 -0.1524 -2.4178
   69MOL   H24122137  -4.813   8.512   8.868 -0.4383 -0.6922  1.6060
   69MOL   C24222138  -5.327   8.553   8.866 -0.6796  0.2862 -0.2653
   69MOL   C24322139  -5.454   8.626   8.870  0.6509  0.5535  0.0707
   69MOL   C24422140  -5.566   8.576   8.808  0.7535  0.5438 -0.0808
   69MOL   C24522141  -5.686   8.647   8.819  0.0854 -0.6727 -0.6010
   69MOL   C24622142  -5.693   8.770   8.884  0.0624  0.1287  0.1094
   69MOL   C24722143  -5.825   8.841   8.888  0.7678 -0.2977 -0.4179
   69MOL   C24822144  -5.588   8.818   8.956 -0.2380  0.3989 -0.7887
   69MOL   C24922145  -5.468   8.744   8.948  0.9549  0.3097  0.4596
   69MOL   H25022146  -5.356   8.459   8.912 -0.0224  0.2744  0.1254
   69MOL   H25122147  -5.257   8.603   8.933 -1.0628 -0.7072  0.8908
   69MOL   H25222148  -5.566   8.475   8.771 -0.7827  0.9042 -1.0768
   69MOL   H25322149  -5.772   8.605   8.769  0.9622 -0.2303 -2.5523
   69MOL   H25422150  -5.809   8.947   8.909 -0.9009 -0.6280  2.8501
   69MOL   H25522151  -5.870   8.839   8.789 -0.1580 -0.7499  0.0058
   69MOL   H25622152  -5.604   8.903   9.021  2.8997  0.6436 -0.2147
   69MOL   H25722153  -5.378   8.773   9.000 -0.1797  1.4464  1.8232
   69MOL   C25822154  -5.914   8.790   8.993  0.8246  0.1378  0.2882
   69MOL   C25922155  -6.062   8.841   8.982 -0.1827 -0.3577 -0.4377
   69MOL   C26022156  -6.170   8.750   8.975 -0.0477 -0.0894 -0.4632
   69MOL   C26122157  -6.308   8.791   8.967 -0.2764  0.8418 -0.6580
   69MOL   C26222158  -6.332   8.930   8.975 -0.4664  0.6601 -0.0898
   69MOL   C26322159  -6.466   8.988   8.958 -0.0927 -0.2934 -0.2186
   69MOL   C26422160  -6.227   9.020   8.986  0.2554 -0.2850  0.1657
   69MOL   C26522161  -6.097   8.980   8.990 -0.2552 -0.3379  0.1574
   69MOL   H26622162  -5.877   8.818   9.091  0.1733  1.2818  0.2147
   69MOL   H26722163  -5.906   8.682   8.981 -0.9566  0.1248 -0.9740
   69MOL   H26822164  -6.156   8.643   8.983 -2.9599 -0.4347  0.4926
   69MOL   H26922165  -6.385   8.715   8.968  1.5255 -1.0297  0.1017
   69MOL   H27022166  -6.457   9.076   8.895 -0.4070 -1.0973 -1.3989
   69MOL   H27122167  -6.522   8.916   8.898 -1.4010  0.0919  0.5105
   69MOL   H27222168  -6.257   9.124   8.990 -1.3303 -0.6593 -1.2841
   69MOL   H27322169  -6.014   9.049   9.004 -0.1864 -0.5366  0.7218
   69MOL   C27422170  -6.530   9.015   9.095 -0.7303 -0.0344  0.0871
   69MOL   C27522171  -6.673   9.063   9.099 -0.5703 -0.3344  0.2459
   69MOL   C27622172  -6.785   8.977   9.071 -0.7815  0.1510 -0.7784
   69MOL   C27722173  -6.916   9.022   9.092 -0.4708 -0.2973 -0.3321
   69MOL   C27822174  -6.935   9.150   9.149 -0.0885  0.7158 -0.2341
   69MOL   C27922175  -7.072   9.196   9.184  0.4052 -0.7862 -0.0244
   69MOL   C28022176  -6.829   9.235   9.175  0.3178  0.0033  0.2773
   69MOL   C28122177  -6.697   9.195   9.143 -0.2133  0.1869  0.5849
   69MOL   H28222178  -6.535   8.925   9.156 -4.4428 -0.7802 -1.1889
   69MOL   H28322179  -6.464   9.086   9.145 -1.8390  1.8956 -1.1427
   69MOL   H28422180  -6.766   8.879   9.031  0.5395  0.2555 -0.4309
   69MOL   H28522181  -7.007   8.968   9.071 -0.9599  0.1976  0.5077
   69MOL   H28622182  -7.085   9.302   9.158  0.2436 -1.2346 -1.8622
   69MOL   H28722183  -7.145   9.144   9.121 -2.1063  1.0655  1.2503
   69MOL   H28822184  -6.846   9.337   9.207  0.4892  0.2826 -0.5235
   69MOL   H28922185  -6.624   9.266   9.179 -0.3149  1.5146 -1.7612
   69MOL   C29022186  -7.105   9.181   9.333 -0.1990 -0.0601  0.1579
   69MOL   C29122187  -7.243   9.226   9.361  0.4338  0.4617 -0.3679
   69MOL   C29222188  -7.339   9.137   9.410 -0.0159 -0.3212 -0.7364
   69MOL   C29322189  -7.468   9.175   9.450  0.6940 -0.2142  0.1671
   69MOL   C29422190  -7.505   9.310   9.430 -0.7173 -0.6324  0.1298
   69MOL   C29522191  -7.642   9.360   9.454  0.5475  0.4487 -0.0417
   69MOL   C29622192  -7.411   9.410   9.393 -0.8093 -0.3908  0.2469
   69MOL   C29722193  -7.281   9.363   9.363 -0.3001  0.3315  0.9127
   69MOL   H29822194  -7.035   9.237   9.396 -0.9321  2.1497 -0.9309
   69MOL   H29922195  -7.095   9.074   9.346 -0.1837 -0.5350 -3.2640
   69MOL   H30022196  -7.324   9.031   9.425 -0.8670 -0.3987 -0.4331
   69MOL   H30122197  -7.533   9.105   9.501  1.3711 -1.9177 -1.2961
   69MOL   H30222198  -7.694   9.278   9.505 -0.3732  1.9503  1.4990
   69MOL   H30322199  -7.630   9.443   9.523  0.3276 -0.3655  0.9785
   69MOL   H30422200  -7.432   9.516   9.386  1.4435  0.1075  0.7384
   69MOL   H30522201  -7.213   9.442   9.336 -1.2550  0.5185 -1.0734
   69MOL   C30622202  -7.723   9.414   9.340 -0.8578 -0.5978  0.7081
   69MOL   C30722203  -7.863   9.459   9.378 -0.1570 -0.4695  0.0145
   69MOL   C30822204  -7.886   9.581   9.430 -0.0941  0.2127  1.3525
   69MOL   C30922205  -8.012   9.628   9.459 -0.3985 -0.2131  0.3137
   69MOL   C31022206  -8.123   9.545   9.431 -0.1878  0.0143  0.1901
   69MOL   C31122207  -8.260   9.593   9.456  0.1705  0.2370 -0.4898
   69MOL   C31222208  -8.102   9.420   9.365  0.2534  0.2292 -0.2149
   69MOL   C31322209  -7.969   9.378   9.334  0.5767  1.3574 -0.2839
   69MOL   H31422210  -7.738   9.334   9.267  0.0018  0.7888 -1.0310
   69MOL   H31522211  -7.675   9.497   9.287 -2.2655 -1.4872 -2.0911
   69MOL   H31622212  -7.806   9.651   9.445 -0.2705  0.1473  2.6339
   69MOL   H31722213  -8.023   9.733   9.485 -0.1047 -0.1931  0.3545
   69MOL   H31822214  -8.269   9.623   9.561  0.9127 -0.9517 -0.0764
   69MOL   H31922215  -8.284   9.673   9.386 -0.7262 -0.1643 -0.6449
   69MOL   H32022216  -8.182   9.354   9.334 -0.2893  1.2531 -1.0516
   69MOL   H32122217  -7.953   9.278   9.296 -0.3668  0.7458  0.8945
   69MOL   H32222218  -8.331   9.512   9.441  0.8096 -0.5150  0.4622
   70MOL     C122219   6.516   1.869   2.628 -0.4414  0.1603  0.4522
   70MOL     C222220   6.382   1.942   2.641 -0.8247 -0.2761 -0.3962
   70MOL     C322221   6.325   2.000   2.522  0.1154 -0.5028 -0.8120
   70MOL     C422222   6.210   2.073   2.530 -0.1801  0.2030 -0.0716
   70MOL     C522223   6.150   2.093   2.653  0.2467  0.1990 -0.3020
   70MOL     C622224   6.027   2.182   2.661  0.8738 -0.1365 -0.4480
   70MOL     C722225   6.203   2.032   2.764  0.2155 -0.4470 -0.4370
   70MOL     C822226   6.324   1.966   2.765  0.9349  0.7174 -0.6175
   70MOL     H922227   6.580   1.940   2.576  0.2449 -0.3428  0.5949
   70MOL    H1022228   6.563   1.831   2.719 -1.2464 -2.9510 -0.3606
   70MOL    H1122229   6.372   1.990   2.425 -0.6307  1.0576 -1.3463
   70MOL    H1222230   6.173   2.121   2.441  1.7036  0.6667 -0.6345
   70MOL    H1322231   6.040   2.243   2.751  2.9892 -1.8543  0.4528
   70MOL    H1422232   6.044   2.254   2.582 -0.8151  1.5399  0.6718
   70MOL    H1522233   6.150   2.037   2.859 -3.3284  1.2942 -2.3795
   70MOL    H1622234   6.368   1.932   2.858  1.1614  0.8848 -0.6635
   70MOL    H1722235   6.509   1.783   2.561  0.0334 -0.2881  0.9660
   70MOL    C1822236   5.892   2.108   2.645  0.1252  0.0297  0.3538
   70MOL    C1922237   5.773   2.202   2.658  0.0206  0.0985 -1.0318
   70MOL    C2022238   5.704   2.206   2.779 -0.1156 -1.3354 -0.4973
   70MOL    C2122239   5.599   2.298   2.799 -0.2879 -0.0126 -0.0190
   70MOL    C2222240   5.559   2.382   2.690 -0.6401 -0.4155  0.1026
   70MOL    C2322241   5.452   2.480   2.702  0.2293  0.0439 -0.1515
   70MOL    C2422242   5.629   2.383   2.570  0.2211 -0.2008  0.3867
   70MOL    C2522243   5.735   2.295   2.558 -0.4076  0.0061  0.1851
   70MOL    H2622244   5.898   2.049   2.554 -0.0402  1.1919 -0.4252
   70MOL    H2722245   5.891   2.029   2.720 -0.2574 -0.2869  0.0114
   70MOL    H2822246   5.732   2.148   2.865  2.0788  1.6148  0.8900
   70MOL    H2922247   5.541   2.298   2.891 -2.2105 -1.0133 -1.1917
   70MOL    H3022248   5.458   2.569   2.641  0.8432 -0.5234 -0.9268
   70MOL    H3122249   5.450   2.525   2.802  1.1817 -2.7404  1.1921
   70MOL    H3222250   5.614   2.455   2.491 -1.6251  0.4174  1.2793
   70MOL    H3322251   5.794   2.296   2.468  1.0496 -0.8587  1.1032
   70MOL    C3422252   5.318   2.412   2.686 -0.8533  0.3244  0.1589
   70MOL    C3522253   5.200   2.504   2.709  0.4879  0.0352  0.5537
   70MOL    C3622254   5.140   2.559   2.590  0.9598  0.6007  0.8035
   70MOL    C3722255   5.028   2.643   2.596  0.1149 -0.3986  0.5084
   70MOL    C3822256   4.975   2.676   2.725  0.8546  0.6372 -0.2674
   70MOL    C3922257   4.850   2.765   2.741 -0.6243  0.0929 -0.3006
   70MOL    C4022258   5.023   2.605   2.838 -0.0591 -0.3083 -0.2625
   70MOL    C4122259   5.135   2.524   2.834  0.1115 -0.0891 -0.5026
   70MOL    H4222260   5.319   2.331   2.759  0.1565 -1.7115 -2.0366
   70MOL    H4322261   5.310   2.360   2.590  2.5587  1.0358 -0.5788
   70MOL    H4422262   5.187   2.549   2.493 -0.7389 -0.6380  0.0755
   70MOL    H4522263   4.989   2.690   2.507  1.3193 -0.1528  0.0985
   70MOL    H4622264   4.820   2.771   2.846 -0.7856  0.0999 -0.3467
   70MOL    H4722265   4.871   2.866   2.707 -1.4768  0.2587 -0.3506
   70MOL    H4822266   4.972   2.624   2.932  2.7104  0.1388  1.2087
   70MOL    H4922267   5.173   2.479   2.924 -0.8610  1.4763  0.7221
   70MOL    C5022268   4.726   2.717   2.667  0.9994  0.6074  0.4757
   70MOL    C5122269   4.606   2.808   2.661  0.0434 -0.0705  0.0629
   70MOL    C5222270   4.509   2.822   2.758  0.1231  0.6881 -0.1131
   70MOL    C5322271   4.408   2.920   2.743  0.3362  0.2655 -0.7888
   70MOL    C5422272   4.394   2.999   2.629  0.3840 -0.7292  0.2636
   70MOL    C5522273   4.286   3.111   2.626 -0.4888 -0.4454 -0.2387
   70MOL    C5622274   4.491   2.980   2.525  0.3180 -0.4441  0.3522
   70MOL    C5722275   4.590   2.880   2.541 -0.6194  0.1181 -0.3329
   70MOL    H5822276   4.698   2.629   2.726  1.0140  0.7515  0.6983
   70MOL    H5922277   4.751   2.683   2.567  2.0831  3.0473 -0.1129
   70MOL    H6022278   4.511   2.770   2.853  0.4578 -0.9382 -0.9953
   70MOL    H6122279   4.323   2.935   2.807 -0.2603 -0.8420 -1.3035
   70MOL    H6222280   4.276   3.145   2.523 -2.5767  0.1872  0.1503
   70MOL    H6322281   4.186   3.071   2.642 -1.1004  1.2154  0.2348
   70MOL    H6422282   4.480   3.038   2.435  0.5780  2.0882  1.8978
   70MOL    H6522283   4.658   2.870   2.457 -1.7611 -0.6725 -1.1661
   70MOL    C6622284   4.308   3.233   2.719  0.2641  0.8517  0.3304
   70MOL    C6722285   4.204   3.337   2.706  0.1754  0.0626 -0.4378
   70MOL    C6822286   4.186   3.382   2.574  0.1855  0.1437 -0.3922
   70MOL    C6922287   4.085   3.476   2.538  0.0598 -0.1660  0.6593
   70MOL    C7022288   4.008   3.525   2.641 -0.2006  0.1062  0.3227
   70MOL    C7122289   3.891   3.617   2.608 -0.0855  0.8223  0.2039
   70MOL    C7222290   4.030   3.487   2.774  0.3034 -0.1018 -0.2931
   70MOL    C7322291   4.123   3.391   2.804 -0.5812 -0.7695 -0.1488
   70MOL    H7422292   4.405   3.274   2.692  1.1417 -0.2053  1.7788
   70MOL    H7522293   4.314   3.193   2.820 -0.4635  0.8909  0.3935
   70MOL    H7622294   4.256   3.345   2.500  1.8826  1.7707  0.3550
   70MOL    H7722295   4.081   3.506   2.434 -0.1345 -0.8410  0.4710
   70MOL    H7822296   3.894   3.674   2.516  0.5504  1.6645  0.7375
   70MOL    H7922297   3.897   3.689   2.690 -0.1895 -0.8814  1.7426
   70MOL    H8022298   3.970   3.521   2.858  0.5411 -1.3671  0.3900
   70MOL    H8122299   4.121   3.358   2.907 -0.2977  0.0693  0.1315
   70MOL    C8222300   3.760   3.538   2.600 -0.2725 -0.7337  0.0846
   70MOL    C8322301   3.635   3.614   2.558  0.4146 -0.4839 -0.5554
   70MOL    C8422302   3.562   3.596   2.432 -0.9045  0.3713  0.8694
   70MOL    C8522303   3.452   3.677   2.398  0.2090  0.3037 -0.1572
   70MOL    C8622304   3.415   3.786   2.479  0.0356  0.2391  0.6626
   70MOL    C8722305   3.295   3.867   2.445  0.3155 -0.0610  0.0208
   70MOL    C8822306   3.482   3.807   2.601  0.1431  0.3050 -0.2355
   70MOL    C8922307   3.594   3.726   2.633  0.2921 -0.1121 -0.1929
   70MOL    H9022308   3.745   3.483   2.693 -0.1578  0.4309  0.7891
   70MOL    H9122309   3.783   3.464   2.523 -2.3743  0.7177 -1.9948
   70MOL    H9222310   3.589   3.513   2.369 -0.1955  1.8176 -0.7903
   70MOL    H9322311   3.397   3.662   2.307 -0.2509 -0.4963  0.2503
   70MOL    H9422312   3.305   3.910   2.345  0.4616  0.7615  0.3844
   70MOL    H9522313   3.282   3.942   2.523 -1.0329  2.5262 -2.5712
   70MOL    H9622314   3.449   3.876   2.677  0.4113  0.6311 -0.4150
   70MOL    H9722315   3.648   3.747   2.724 -0.2209 -1.6425  0.4743
   70MOL    C9822316   3.173   3.777   2.458 -0.0362  0.7354  0.0791
   70MOL    C9922317   3.046   3.850   2.421 -0.2602  0.9706  0.4712
   70MOL   C10022318   2.964   3.903   2.521 -0.0968  0.2594  0.6345
   70MOL   C10122319   2.852   3.979   2.492  0.0155 -0.3443 -0.4815
   70MOL   C10222320   2.827   4.015   2.358 -0.4318  0.7433 -0.0471
   70MOL   C10322321   2.716   4.106   2.322 -0.8066 -0.1259  0.5693
   70MOL   C10422322   2.913   3.972   2.252 -0.1948  0.2774  0.0416
   70MOL   C10522323   3.021   3.890   2.284  0.0177 -1.0842 -0.5973
   70MOL   H10622324   3.163   3.720   2.550  1.2646  2.4413  1.2990
   70MOL   H10722325   3.184   3.697   2.384  0.2055  2.2947 -1.5987
   70MOL   H10822326   2.989   3.892   2.625 -0.0040  0.5091  0.6389
   70MOL   H10922327   2.788   4.013   2.572  1.6110 -0.5036  0.8876
   70MOL   H11022328   2.688   4.150   2.418  0.6574  0.6862  0.6303
   70MOL   H11122329   2.760   4.182   2.257  0.0286  0.6862  2.0641
   70MOL   H11222330   2.891   3.988   2.148  1.8092  0.0904 -0.4177
   70MOL   H11322331   3.082   3.847   2.206 -0.3238 -0.2344 -1.3343
   70MOL   C11422332   2.616   4.037   2.238 -0.7309 -0.5927 -0.3347
   70MOL   C11522333   2.490   4.125   2.231  0.2876  0.6637  0.0552
   70MOL   C11622334   2.480   4.236   2.140 -0.1680 -0.5699 -0.3557
   70MOL   C11722335   2.356   4.304   2.129  0.2594 -0.4788 -0.9088
   70MOL   C11822336   2.249   4.260   2.213  0.6098 -0.8409  0.5080
   70MOL   C11922337   2.112   4.330   2.199 -0.2417  0.3535 -0.8282
   70MOL   C12022338   2.263   4.158   2.306  0.5271  0.0873 -0.2144
   70MOL   C12122339   2.384   4.082   2.312  0.9128  0.3110  0.5824
   70MOL   H12222340   2.598   3.942   2.290  2.8888 -1.0746  0.1976
   70MOL   H12322341   2.655   4.002   2.142  0.1240 -2.1608  0.5625
   70MOL   H12422342   2.567   4.269   2.085  2.4470 -0.8478  3.4618
   70MOL   H12522343   2.353   4.396   2.074 -0.1501  0.8552  1.2809
   70MOL   H12622344   2.100   4.379   2.102  0.0574  0.8564 -0.6105
   70MOL   H12722345   2.051   4.240   2.189 -0.8999  0.7304 -0.2192
   70MOL   H12822346   2.174   4.141   2.364 -0.6302  1.5139 -1.5245
   70MOL   H12922347   2.394   4.001   2.384  0.3522  0.2321  0.5763
   70MOL   C13022348   2.073   4.431   2.315 -0.9624  0.0925  0.0232
   70MOL   C13122349   1.928   4.482   2.303 -0.1144  0.2580  0.1491
   70MOL   C13222350   1.825   4.393   2.285 -0.2791 -0.4460  0.3323
   70MOL   C13322351   1.694   4.440   2.272  0.3441  0.0881 -0.2864
   70MOL   C13422352   1.670   4.581   2.270 -0.0090 -0.2042 -0.0511
   70MOL   C13522353   1.524   4.619   2.265 -0.2072 -0.3123  0.1291
   70MOL   C13622354   1.777   4.669   2.288  0.4925  0.1215  0.0872
   70MOL   C13722355   1.906   4.623   2.295  0.6129 -0.2111 -0.3554
   70MOL   H13822356   2.137   4.518   2.305  0.5402 -1.1069 -1.0060
   70MOL   H13922357   2.097   4.387   2.412  1.0490  1.4870  0.1880
   70MOL   H14022358   1.852   4.290   2.301  1.3549 -0.3992 -1.8545
   70MOL   H14122359   1.615   4.367   2.276  0.6435 -0.1830  0.5910
   70MOL   H14222360   1.529   4.726   2.241  0.0803 -0.1478  0.9057
   70MOL   H14322361   1.483   4.568   2.178 -1.6616  0.3656  0.4092
   70MOL   H14422362   1.759   4.776   2.295  0.4215  0.0508  1.1068
   70MOL   H14522363   1.981   4.699   2.316 -1.1645  1.5554 -0.2654
   70MOL   C14622364   1.440   4.585   2.394  0.5090  0.1880  0.8773
   70MOL   C14722365   1.300   4.640   2.382  0.1991 -0.3683  0.3805
   70MOL   C14822366   1.198   4.543   2.375  0.0334 -0.2830 -0.0290
   70MOL   C14922367   1.069   4.583   2.351 -0.4142  0.0904 -0.1960
   70MOL   C15022368   1.035   4.718   2.334 -0.2300  0.1790  0.6263
   70MOL   C15122369   0.892   4.758   2.313 -0.0243 -0.0055  0.3277
   70MOL   C15222370   1.135   4.814   2.347  0.0853  0.0133 -0.5248
   70MOL   C15322371   1.270   4.777   2.370  0.4962  0.3422 -0.3181
   70MOL   H15422372   1.481   4.640   2.479 -2.0303  2.4060  0.7308
   70MOL   H15522373   1.437   4.477   2.403  0.4803  0.1307  0.2010
   70MOL   H15622374   1.224   4.438   2.382  1.3787 -0.0390 -1.0621
   70MOL   H15722375   1.003   4.499   2.334  0.2612 -0.4233 -0.2959
   70MOL   H15822376   0.866   4.815   2.403 -0.7331  3.2781 -1.8657
   70MOL   H15922377   0.897   4.839   2.240 -1.6403  0.0002  0.1987
   70MOL   H16022378   1.113   4.920   2.339 -0.5213 -0.1237 -0.6805
   70MOL   H16122379   1.350   4.849   2.368  1.1122 -0.2633 -4.9134
   70MOL   C16222380   0.793   4.658   2.256  0.2048  0.2244  0.6338
   70MOL   C16322381   0.647   4.703   2.264 -0.3287  0.3501  0.3551
   70MOL   C16422382   0.555   4.616   2.206 -0.3140  0.1746  0.7539
   70MOL   C16522383   0.419   4.636   2.200  0.2511 -0.2965  0.1146
   70MOL   C16622384   0.366   4.743   2.269  0.6315  0.2048  0.1102
   70MOL   C16722385   0.215   4.766   2.284  0.2459  0.0726 -0.3687
   70MOL   C16822386   0.457   4.839   2.315  0.1598 -0.3174  1.0513
   70MOL   C16922387   0.597   4.825   2.310 -0.3380  0.5145  0.2276
   70MOL   H17022388   0.799   4.558   2.298  0.5901  0.7342  1.8250
   70MOL   H17122389   0.822   4.642   2.152  1.3132 -2.0119  1.2557
   70MOL   H17222390   0.600   4.523   2.177 -1.0730 -1.2091  3.8086
   70MOL   H17322391   0.366   4.554   2.154 -0.4134  2.3001 -4.0361
   70MOL   H17422392   0.196   4.863   2.328 -0.2081 -1.1276  2.1327
   70MOL   H17522393   0.167   4.774   2.186  0.8631  0.0441 -0.6791
   70MOL   H17622394   0.414   4.933   2.343  3.1765  0.6284  2.7644
   70MOL   H17722395   0.666   4.903   2.340 -1.0519  0.6873  1.4439
   70MOL   C17822396   0.138   4.662   2.373 -0.0902 -0.0780  0.3693
   70MOL   C17922397   0.216   4.613   2.489  0.3052  0.6293 -0.1452
   70MOL   C18022398   0.268   4.697   2.591  1.1325 -0.2145 -0.2933
   70MOL   C18122399   0.368   4.651   2.673 -0.4447  0.6699  0.3573
   70MOL   C18222400   0.412   4.519   2.675  0.5109 -0.2063  0.9560
   70MOL   C18322401   0.545   4.476   2.750 -0.0408  0.1864 -0.3023
   70MOL   C18422402   0.355   4.428   2.586 -0.1805 -0.2781  0.5810
   70MOL   C18522403   0.259   4.475   2.491  0.5083  0.0481  0.1446
   70MOL   H18622404   0.123   4.576   2.307 -0.0059  2.3521 -2.9250
   70MOL   H18722405   0.037   4.699   2.395 -0.9572 -3.9127  3.4132
   70MOL   H18822406   0.249   4.803   2.588 -2.2521 -0.7147  1.4441
   70MOL   H18922407   0.417   4.713   2.747 -1.3128  1.5060  0.2303
   70MOL   H19022408   0.531   4.520   2.849 -1.6832  1.1976 -0.9726
   70MOL   H19122409   0.567   4.369   2.746  2.2766  0.6330 -0.4924
   70MOL   H19222410   0.376   4.322   2.585  0.0877 -0.2356 -1.0614
   70MOL   H19322411   0.212   4.408   2.420  1.2754  0.7022 -1.0194
   70MOL   C19422412   0.660   4.540   2.671 -0.1040  0.6023 -0.5750
   70MOL   C19522413   0.797   4.498   2.710 -0.1534 -0.0722  0.3623
   70MOL   C19622414   0.832   4.366   2.748 -0.7781 -0.5974 -0.1785
   70MOL   C19722415   0.967   4.339   2.785 -0.2185  0.1873  0.3847
   70MOL   C19822416   1.062   4.442   2.775 -0.7132  0.0405  0.0246
   70MOL   C19922417   1.208   4.401   2.804  0.2904 -0.8171  0.4028
   70MOL   C20022418   1.034   4.572   2.729 -0.5180 -0.0726  0.1102
   70MOL   C20122419   0.900   4.594   2.699 -0.5737  0.0989  0.1351
   70MOL   H20222420   0.657   4.649   2.681 -1.2032  0.3877  1.9515
   70MOL   H20322421   0.645   4.524   2.564  0.1268 -0.7723 -0.4113
   70MOL   H20422422   0.770   4.279   2.728 -2.5818  0.8407 -0.9319
   70MOL   H20522423   0.986   4.236   2.813  0.7737 -0.5875 -2.9597
   70MOL   H20622424   1.240   4.484   2.867  2.0533  0.3457 -1.9508
   70MOL   H20722425   1.220   4.309   2.861  3.1814 -0.6318  0.1589
   70MOL   H20822426   1.102   4.653   2.710  0.1622 -0.6374  0.0960
   70MOL   H20922427   0.871   4.692   2.663  1.6497  0.3304 -1.0857
   70MOL   C21022428   1.294   4.402   2.680  0.3565  0.8289 -0.4979
   70MOL   C21122429   1.441   4.366   2.705  0.0232 -0.0049 -0.1711
   70MOL   C21222430   1.483   4.231   2.710  1.0340  0.1873 -0.7024
   70MOL   C21322431   1.619   4.205   2.728  0.7775 -0.2365 -0.2772
   70MOL   C21422432   1.712   4.307   2.726 -1.0999 -0.5085  0.3456
   70MOL   C21522433   1.857   4.290   2.750  0.5710 -0.0634  0.3268
   70MOL   C21622434   1.671   4.439   2.702 -0.1794  0.4062 -0.0131
   70MOL   C21722435   1.536   4.474   2.708  0.1493 -0.8189  0.0035
   70MOL   H21822436   1.292   4.491   2.617  0.4641  0.3705 -1.1579
   70MOL   H21922437   1.247   4.324   2.621 -0.1904 -0.6159  1.7836
   70MOL   H22022438   1.414   4.147   2.708  2.2293 -0.8219 -0.4356
   70MOL   H22122439   1.648   4.101   2.740  0.7646 -0.1542  0.4437
   70MOL   H22222440   1.905   4.387   2.761 -0.9859  0.8569 -0.8861
   70MOL   H22322441   1.866   4.232   2.843 -0.3374  0.5622  0.8061
   70MOL   H22422442   1.746   4.515   2.687  1.0919 -0.7903  0.1542
   70MOL   H22522443   1.495   4.574   2.708 -1.2810 -1.3971  0.2295
   70MOL   C22622444   1.922   4.209   2.627  0.2355  0.2075 -0.1798
   70MOL   C22722445   2.074   4.198   2.635  0.7179 -0.0268 -0.3397
   70MOL   C22822446   2.139   4.070   2.643 -0.0188 -0.4599 -0.2806
   70MOL   C22922447   2.279   4.074   2.651 -0.6372  0.2167 -0.2368
   70MOL   C23022448   2.351   4.194   2.673 -0.3749  0.0147  0.4046
   70MOL   C23122449   2.500   4.195   2.681  0.0587  0.1831 -0.0251
   70MOL   C23222450   2.287   4.318   2.664  0.9070 -0.0202 -0.0033
   70MOL   C23322451   2.147   4.316   2.640  0.0656 -0.1342 -0.4693
   70MOL   H23422452   1.891   4.275   2.546 -0.8158  1.3627  1.1343
   70MOL   H23522453   1.881   4.110   2.608 -0.8565  0.8120 -1.0684
   70MOL   H23622454   2.079   3.980   2.632 -0.4889 -0.3034  0.9316
   70MOL   H23722455   2.332   3.980   2.644 -1.0923  0.0044 -0.8029
   70MOL   H23822456   2.541   4.095   2.670  0.8529  0.4363  0.6342
   70MOL   H23922457   2.535   4.262   2.602 -1.8145  2.1235  0.7549
   70MOL   H24022458   2.333   4.415   2.671 -0.9135  0.8285  0.1727
   70MOL   H24122459   2.091   4.408   2.626 -0.5523 -0.5514 -0.7686
   70MOL   C24222460   2.542   4.244   2.820 -0.2685  0.9602 -0.2683
   70MOL   C24322461   2.685   4.195   2.850  0.9055  0.0207 -0.7019
   70MOL   C24422462   2.710   4.075   2.921 -0.2230  0.7536  0.2907
   70MOL   C24522463   2.841   4.032   2.937  0.7131  0.2427  0.2882
   70MOL   C24622464   2.953   4.108   2.898 -0.1409 -0.0387 -0.1884
   70MOL   C24722465   3.094   4.060   2.925  0.1664 -0.7953  0.0418
   70MOL   C24822466   2.930   4.229   2.831 -0.4585  0.3107  0.0117
   70MOL   C24922467   2.792   4.273   2.811 -0.5625  0.1383  0.6437
   70MOL   H25022468   2.538   4.351   2.838  3.2477  1.1788 -0.4027
   70MOL   H25122469   2.481   4.185   2.889  0.7476 -0.8227 -0.8507
   70MOL   H25222470   2.623   4.021   2.956  0.7658 -0.5608  0.7824
   70MOL   H25322471   2.856   3.940   2.992 -2.2294  0.6157  1.8638
   70MOL   H25422472   3.096   3.981   3.000  3.2096 -2.0899 -1.2898
   70MOL   H25522473   3.130   4.030   2.826  0.7541  2.9941 -0.9800
   70MOL   H25622474   3.013   4.291   2.799 -0.0897  0.8096  1.8736
   70MOL   H25722475   2.773   4.363   2.755 -2.0513  0.2988  1.3591
   70MOL   C25822476   3.177   4.166   2.998 -0.1612 -0.0661  0.0279
   70MOL   C25922477   3.323   4.138   3.003 -0.3371 -0.0477  0.2316
   70MOL   C26022478   3.384   4.088   3.118 -0.2639  1.0952  0.7051
   70MOL   C26122479   3.516   4.050   3.121  0.3243 -0.0943  0.2618
   70MOL   C26222480   3.597   4.084   3.009  0.4558  0.2048  0.4697
   70MOL   C26322481   3.746   4.066   3.016  0.7692 -1.1135 -0.1836
   70MOL   C26422482   3.544   4.139   2.891 -0.1853  0.2779  0.4346
   70MOL   C26522483   3.405   4.158   2.886  0.7577  0.3397 -0.6422
   70MOL   H26622484   3.129   4.180   3.095 -3.0967  0.9292 -1.4771
   70MOL   H26722485   3.166   4.254   2.934 -2.6189 -0.0980  0.3512
   70MOL   H26822486   3.334   4.063   3.211 -0.5028 -5.1840 -0.8501
   70MOL   H26922487   3.566   4.008   3.207  1.7389  0.0919 -0.4551
   70MOL   H27022488   3.789   4.096   2.921 -2.7451  2.2203 -0.7981
   70MOL   H27122489   3.798   4.116   3.097 -0.7177  1.0117 -0.5207
   70MOL   H27222490   3.607   4.176   2.811 -0.0639  0.6405  0.6971
   70MOL   H27322491   3.355   4.179   2.793 -2.0144  0.1265  0.7354
   70MOL   C27422492   3.784   3.918   3.018 -0.1362  0.1483  0.4005
   70MOL   C27522493   3.931   3.885   3.023 -0.0984 -0.1629  0.3506
   70MOL   C27622494   4.011   3.881   2.909  0.1260 -0.1117 -0.5265
   70MOL   C27722495   4.152   3.873   2.928 -0.5160 -0.1043 -0.1385
   70MOL   C27822496   4.213   3.862   3.056 -0.5288 -0.1686  0.1586
   70MOL   C27922497   4.352   3.837   3.068 -0.3940 -0.4195 -0.1462
   70MOL   C28022498   4.125   3.856   3.165 -0.3281  0.2001  0.1532
   70MOL   C28122499   3.989   3.870   3.147  0.3966 -0.0638 -0.8613
   70MOL   H28222500   3.726   3.875   3.100  0.2136  1.1717  1.1945
   70MOL   H28322501   3.744   3.875   2.926 -1.7967  0.8122  0.8040
   70MOL   H28422502   3.970   3.896   2.810  0.4267 -1.8399 -0.9255
   70MOL   H28522503   4.215   3.865   2.841  0.9033  0.5731  0.7843
   70MOL   H28622504   4.400   3.897   2.990  0.6194  0.1014  0.8591
   70MOL   H28722505   4.383   3.880   3.163 -1.7370  2.5638 -1.0031
   70MOL   H28822506   4.160   3.849   3.267  1.8807 -2.6575 -0.7262
   70MOL   H28922507   3.923   3.879   3.233  0.7628  3.0411 -0.8599
   70MOL   C29022508   4.383   3.689   3.032 -0.0766  0.2280  0.2118
   70MOL   C29122509   4.529   3.648   3.050  0.1237 -0.3810  0.9113
   70MOL   C29222510   4.621   3.735   3.110  0.3341 -0.6806 -0.6478
   70MOL   C29322511   4.750   3.692   3.129  0.3239  0.6764 -0.2474
   70MOL   C29422512   4.793   3.562   3.098  0.5118 -0.2657  0.4777
   70MOL   C29522513   4.938   3.518   3.139 -0.1615  0.0692  0.0326
   70MOL   C29622514   4.701   3.475   3.037  0.2259  0.2922 -0.0752
   70MOL   C29722515   4.571   3.521   3.016 -1.0499 -0.3069  0.3610
   70MOL   H29822516   4.359   3.683   2.926 -1.4689 -1.2786  0.6009
   70MOL   H29922517   4.318   3.628   3.095  0.6507  0.1517  0.9073
   70MOL   H30022518   4.600   3.837   3.141  1.2128 -0.1554 -1.7366
   70MOL   H30122519   4.815   3.755   3.188 -1.2394  0.9083  1.2923
   70MOL   H30222520   5.005   3.594   3.098 -1.5814  0.7332 -1.1105
   70MOL   H30322521   4.945   3.538   3.246 -1.1532 -0.5413  0.2164
   70MOL   H30422522   4.731   3.374   3.014 -1.1727  0.0648 -0.9058
   70MOL   H30522523   4.500   3.456   2.967 -0.6193 -1.0264  0.6860
   70MOL   C30622524   4.985   3.374   3.104  0.0960  0.2614  0.0291
   70MOL   C30722525   5.122   3.338   3.166  0.7920 -0.2351  0.4094
   70MOL   C30822526   5.225   3.283   3.087 -0.6289  0.2949 -0.4189
   70MOL   C30922527   5.350   3.272   3.142  0.1972  0.6799 -0.7631
   70MOL   C31022528   5.376   3.293   3.286  0.0981 -0.3998  0.3033
   70MOL   C31122529   5.510   3.266   3.352 -0.5113  0.0512 -0.1388
   70MOL   C31222530   5.269   3.337   3.366  0.3917 -0.3366 -0.2671
   70MOL   C31322531   5.146   3.361   3.302 -0.0126  0.8197 -0.2304
   70MOL   H31422532   4.992   3.347   2.998 -1.9941 -1.4350  0.2766
   70MOL   H31522533   4.903   3.311   3.138 -0.9457  0.5803 -1.8011
   70MOL   H31622534   5.213   3.259   2.983 -0.1574 -1.3385 -0.1095
   70MOL   H31722535   5.433   3.236   3.083  2.3702 -0.8067  3.0215
   70MOL   H31822536   5.556   3.171   3.324 -2.4695 -0.6229 -1.1452
   70MOL   H31922537   5.569   3.357   3.356  0.1829 -0.2848 -2.2247
   70MOL   H32022538   5.277   3.358   3.471  0.3452  0.7590 -0.4777
   70MOL   H32122539   5.068   3.393   3.369 -0.4421 -1.0876  0.1928
   70MOL   H32222540   5.485   3.247   3.457  0.4368  1.4150  0.3479
   71MOL     C122541   6.933   5.701   4.666 -0.8828  0.2900 -0.0739
   71MOL     C222542   7.085   5.688   4.645 -0.2689 -0.1191 -0.2565
   71MOL     C322543   7.156   5.789   4.582 -0.2358 -0.2593  0.3272
   71MOL     C422544   7.298   5.781   4.567  0.0756  0.3682 -0.1214
   71MOL     C522545   7.365   5.669   4.611 -0.5645  1.4967  0.3306
   71MOL     C622546   7.520   5.661   4.595  0.0693 -0.1108 -0.8560
   71MOL     C722547   7.293   5.561   4.669  0.4135  0.3166  0.6095
   71MOL     C822548   7.154   5.570   4.684 -0.1849 -0.0108 -0.4533
   71MOL     H922549   6.886   5.633   4.595 -1.8989  0.7256  0.1674
   71MOL    H1022550   6.907   5.670   4.767  1.4066 -2.2961 -0.2469
   71MOL    H1122551   7.107   5.881   4.554  0.1050  0.1472  1.0530
   71MOL    H1222552   7.361   5.860   4.529 -0.3063  0.3522 -0.7989
   71MOL    H1322553   7.565   5.742   4.651  2.0474 -1.8062  0.0908
   71MOL    H1422554   7.556   5.568   4.640  1.7607 -0.2293 -2.3806
   71MOL    H1522555   7.339   5.475   4.716  0.1169 -0.8945 -1.2427
   71MOL    H1622556   7.096   5.493   4.733 -2.0586 -0.1609 -2.8150
   71MOL    H1722557   6.904   5.804   4.643  1.6657  1.1267  0.3132
   71MOL    C1822558   7.569   5.656   4.456  0.0156  0.0394  0.1729
   71MOL    C1922559   7.717   5.678   4.437  0.0168  0.1831 -0.2334
   71MOL    C2022560   7.783   5.794   4.460 -0.1910  0.6898 -0.5566
   71MOL    C2122561   7.919   5.796   4.428 -0.0699 -0.6287  1.7163
   71MOL    C2222562   7.985   5.688   4.363 -0.4340 -0.8647  0.0216
   71MOL    C2322563   8.131   5.702   4.313 -0.1837  0.1460 -0.3037
   71MOL    C2422564   7.920   5.567   4.358  0.0005  0.3359  0.6669
   71MOL    C2522565   7.787   5.558   4.402  0.3950 -0.3820  0.3132
   71MOL    H2622566   7.537   5.561   4.415  0.6334  0.1227 -0.5017
   71MOL    H2722567   7.520   5.735   4.400  0.3451  1.1883  1.4767
   71MOL    H2822568   7.740   5.882   4.503  0.6079  0.0699  1.5714
   71MOL    H2922569   7.971   5.889   4.447  4.1424 -2.3039 -0.9428
   71MOL    H3022570   8.159   5.791   4.257  2.6085  1.8503  3.5531
   71MOL    H3122571   8.150   5.615   4.249 -4.4628 -0.3313 -1.0608
   71MOL    H3222572   7.973   5.478   4.328  0.3951  1.3643 -1.8204
   71MOL    H3322573   7.745   5.459   4.390 -0.5434 -0.0377  0.7012
   71MOL    C3422574   8.225   5.709   4.439 -0.7211  0.1879 -0.6376
   71MOL    C3522575   8.364   5.734   4.395  0.0370 -0.3531  0.1428
   71MOL    C3622576   8.417   5.861   4.416 -0.1759 -0.5330  0.4944
   71MOL    C3722577   8.558   5.886   4.392 -0.6085 -0.7849  0.4035
   71MOL    C3822578   8.635   5.781   4.340  0.5492  0.5583 -0.2364
   71MOL    C3922579   8.780   5.803   4.320  0.4001  0.5281  0.8022
   71MOL    C4022580   8.578   5.652   4.321 -0.1222  0.5387 -0.6394
   71MOL    C4122581   8.443   5.629   4.350  0.3459  0.4141  0.6126
   71MOL    H4222582   8.221   5.608   4.479 -0.7253 -0.3369 -1.9392
   71MOL    H4322583   8.198   5.787   4.510 -2.1658 -0.6532 -0.2403
   71MOL    H4422584   8.359   5.940   4.461 -1.1997 -0.3574 -1.1057
   71MOL    H4522585   8.596   5.982   4.424 -0.7535 -0.0833 -1.4943
   71MOL    H4622586   8.803   5.775   4.217  1.5662  1.7313  0.7178
   71MOL    H4722587   8.797   5.911   4.317 -2.5245  0.9767 -2.1236
   71MOL    H4822588   8.639   5.571   4.284 -0.5400  0.5508 -1.3595
   71MOL    H4922589   8.403   5.531   4.333  0.7251  0.4912 -0.7849
   71MOL    C5022590   8.873   5.740   4.421  0.2553 -0.4595  0.0335
   71MOL    C5122591   9.024   5.748   4.378 -1.0947  0.4820 -0.3582
   71MOL    C5222592   9.100   5.633   4.348  0.4739 -0.6251  0.9999
   71MOL    C5322593   9.232   5.643   4.307  0.0634 -0.0436 -0.0336
   71MOL    C5422594   9.301   5.763   4.306  0.3348 -0.1042 -0.0392
   71MOL    C5522595   9.453   5.760   4.290  0.4295  0.0181 -0.6439
   71MOL    C5622596   9.232   5.884   4.337 -0.2449 -0.0139 -0.0786
   71MOL    C5722597   9.090   5.866   4.362 -0.5155  0.2286  0.1456
   71MOL    H5822598   8.832   5.643   4.448 -1.9950  0.9049  1.7074
   71MOL    H5922599   8.855   5.805   4.507 -0.1422  2.0070 -1.8767
   71MOL    H6022600   9.047   5.540   4.359 -0.8347 -0.4021 -2.5162
   71MOL    H6122601   9.292   5.554   4.294  2.3499  1.5980 -1.1079
   71MOL    H6222602   9.482   5.692   4.211 -1.2620 -1.2628 -0.1962
   71MOL    H6322603   9.471   5.865   4.267  0.7090  0.3873  1.1312
   71MOL    H6422604   9.275   5.982   4.324  0.3101  0.1268  2.5342
   71MOL    H6522605   9.035   5.956   4.383 -0.5698 -0.0052  1.0159
   71MOL    C6622606   9.527   5.724   4.417  0.0099  0.0087 -0.3782
   71MOL    C6722607   9.681   5.736   4.402  0.0953 -0.3362  0.8324
   71MOL    C6822608   9.751   5.853   4.410 -1.2954 -0.8184 -0.3340
   71MOL    C6922609   9.894   5.861   4.402  0.1746 -0.2928  0.1389
   71MOL    C7022610   9.960   5.743   4.365  0.8589 -0.1546  0.4277
   71MOL    C7122611  10.107   5.743   4.333  0.1059 -0.2109 -0.3535
   71MOL    C7222612   9.891   5.619   4.353  0.1207 -0.2514 -0.2108
   71MOL    C7322613   9.750   5.618   4.370 -0.2975  0.6075  0.5931
   71MOL    H7422614   9.504   5.623   4.452 -0.1099 -0.7984 -2.7238
   71MOL    H7522615   9.504   5.796   4.495 -1.6180 -2.3887  1.4441
   71MOL    H7622616   9.698   5.944   4.434  1.4163  0.8090 -0.2491
   71MOL    H7722617   9.956   5.950   4.405  0.6046 -0.6043  0.5471
   71MOL    H7822618  10.112   5.817   4.253 -0.1623 -0.2552 -0.4137
   71MOL    H7922619  10.136   5.648   4.289  0.1767 -1.0045  1.3721
   71MOL    H8022620   9.956   5.538   4.324 -1.9349 -1.5171 -1.3274
   71MOL    H8122621   9.698   5.525   4.350 -0.6928  0.4955  2.0436
   71MOL    C8222622  10.198   5.780   4.443 -0.0796 -0.2003 -0.6268
   71MOL    C8322623  10.345   5.802   4.416  1.0546  0.0945  0.7758
   71MOL    C8422624  10.424   5.687   4.395  0.4931 -0.2821 -0.8331
   71MOL    C8522625  10.562   5.702   4.367 -0.7513 -0.0392 -0.9321
   71MOL    C8622626  10.614   5.834   4.374  0.3144  0.1974 -0.2563
   71MOL    C8722627  10.763   5.857   4.360  0.4145 -0.4413 -0.1557
   71MOL    C8822628  10.529   5.946   4.401 -0.2548  0.2158 -0.6981
   71MOL    C8922629  10.394   5.934   4.424  0.0471 -0.3402  0.1716
   71MOL    H9022630  10.184   5.709   4.525 -0.8441  0.0192 -0.5609
   71MOL    H9122631  10.167   5.874   4.488 -0.0219 -0.5675  0.1844
   71MOL    H9222632  10.388   5.586   4.402  1.2815 -0.5389 -0.4285
   71MOL    H9322633  10.631   5.619   4.361 -1.2045 -0.4011 -1.1283
   71MOL    H9422634  10.763   5.951   4.305  0.6820 -0.7385 -0.6655
   71MOL    H9522635  10.798   5.773   4.300 -0.6221  1.0166 -2.8945
   71MOL    H9622636  10.573   6.043   4.420  0.2116 -0.6893  3.4529
   71MOL    H9722637  10.339   6.019   4.460  0.1481 -1.2173  2.4868
   71MOL    C9822638  10.849   5.894   4.484 -0.4972 -0.4234 -0.6373
   71MOL    C9922639  10.862   5.772   4.574 -0.4133  0.6384  0.4811
   71MOL   C10022640  10.754   5.740   4.666  0.0950  0.2764 -0.2772
   71MOL   C10122641  10.768   5.635   4.756 -0.4759 -0.1021  0.2800
   71MOL   C10222642  10.888   5.551   4.749  0.9697 -0.0035 -0.3737
   71MOL   C10322643  10.895   5.424   4.835 -0.6690 -0.0992 -0.1051
   71MOL   C10422644  10.987   5.584   4.661 -0.2054 -0.4849  0.3303
   71MOL   C10522645  10.974   5.688   4.567  0.0762 -0.1245 -0.3343
   71MOL   H10622646  10.810   5.978   4.542 -0.0263 -1.3656  1.0722
   71MOL   H10722647  10.947   5.928   4.448 -0.4259 -1.1842 -1.1677
   71MOL   H10822648  10.672   5.810   4.675 -0.3140 -0.1069 -1.0400
   71MOL   H10922649  10.691   5.619   4.830 -1.0718 -0.3036 -0.3730
   71MOL   H11022650  10.999   5.398   4.856 -1.4843 -1.6641  2.1946
   71MOL   H11122651  10.858   5.438   4.936  0.3392  1.8646  0.0308
   71MOL   H11222652  11.077   5.524   4.661 -0.3990 -0.7914 -0.6495
   71MOL   H11322653  11.056   5.705   4.499 -1.0451  0.0953 -1.6377
   71MOL   C11422654  10.816   5.302   4.776  0.8732 -0.4745  0.3901
   71MOL   C11522655  10.666   5.295   4.784  0.2956 -0.1058 -0.0388
   71MOL   C11622656  10.594   5.331   4.669 -0.5132  0.6337 -0.2558
   71MOL   C11722657  10.457   5.328   4.675 -0.7742 -0.4039  0.3781
   71MOL   C11822658  10.387   5.289   4.788  1.0176 -0.2193  0.4543
   71MOL   C11922659  10.234   5.289   4.791 -0.6108  0.1360  0.4780
   71MOL   C12022660  10.457   5.263   4.904  0.6175 -0.1284 -0.4028
   71MOL   C12122661  10.596   5.257   4.903  1.2126 -0.3310 -0.1844
   71MOL   H12222662  10.849   5.212   4.828  0.1420 -0.2093  1.3162
   71MOL   H12322663  10.846   5.288   4.672 -2.3061  1.0511 -0.7924
   71MOL   H12422664  10.648   5.360   4.580 -1.1566  0.7368 -0.6135
   71MOL   H12522665  10.402   5.343   4.583 -0.9004  0.0088  0.5195
   71MOL   H12622666  10.202   5.240   4.883 -0.8078  1.0923  0.9221
   71MOL   H12722667  10.213   5.396   4.793 -1.5938 -0.0681  2.2564
   71MOL   H12822668  10.412   5.243   5.001  0.6905  0.5715 -0.2144
   71MOL   H12922669  10.660   5.235   4.987  2.0905  1.4537 -0.3446
   71MOL   C13022670  10.168   5.219   4.674 -0.4869 -0.6830 -0.2989
   71MOL   C13122671  10.022   5.219   4.698 -0.3795 -0.1512  0.2233
   71MOL   C13222672   9.959   5.128   4.778  0.5350  0.4653 -0.3549
   71MOL   C13322673   9.817   5.122   4.789  0.6380  0.3088 -0.1771
   71MOL   C13422674   9.736   5.219   4.728 -0.3067 -0.3343  1.1124
   71MOL   C13522675   9.588   5.217   4.751  0.1884  0.5540 -0.5756
   71MOL   C13622676   9.802   5.320   4.651  0.5826  0.2485  0.3179
   71MOL   C13722677   9.939   5.316   4.630  0.2611  0.8908  0.1002
   71MOL   H13822678  10.201   5.117   4.656 -0.0111 -0.3431 -1.3910
   71MOL   H13922679  10.176   5.277   4.582  0.6357 -0.8743 -0.3307
   71MOL   H14022680  10.022   5.061   4.835 -0.5192  0.2138  0.5450
   71MOL   H14122681   9.789   5.047   4.862  1.7693  0.6799  0.6633
   71MOL   H14222682   9.543   5.312   4.722 -1.7298  0.1341  0.9670
   71MOL   H14322683   9.552   5.141   4.682  2.2539 -0.8091 -0.1998
   71MOL   H14422684   9.755   5.409   4.612  1.5732  1.1680  1.1824
   71MOL   H14522685   9.999   5.378   4.565 -0.3649  0.9159 -0.4571
   71MOL   C14622686   9.549   5.190   4.895 -0.4340 -0.1926  0.1855
   71MOL   C14722687   9.400   5.212   4.918  0.5399  0.3794  0.6777
   71MOL   C14822688   9.344   5.336   4.908 -0.1222  0.7508  0.0127
   71MOL   C14922689   9.207   5.363   4.930  0.4712  0.0561 -0.5192
   71MOL   C15022690   9.120   5.255   4.959 -0.2261  0.4160 -0.0043
   71MOL   C15122691   8.976   5.288   4.989 -0.8446  0.4037 -0.2242
   71MOL   C15222692   9.172   5.128   4.960 -0.2358 -0.0955  0.2165
   71MOL   C15322693   9.311   5.106   4.944 -0.5196 -0.4008  0.1412
   71MOL   H15422694   9.600   5.251   4.970 -0.8246  0.2652  0.0824
   71MOL   H15522695   9.566   5.088   4.929  0.6171 -0.1566 -0.2214
   71MOL   H15622696   9.400   5.423   4.877  1.3653 -0.6255 -1.2936
   71MOL   H15722697   9.159   5.458   4.913 -2.3574 -1.0032  1.2452
   71MOL   H15822698   8.970   5.358   5.072  0.7993  0.4286 -0.0977
   71MOL   H15922699   8.950   5.331   4.893 -0.7686  1.0929  0.0662
   71MOL   H16022700   9.109   5.046   4.993 -1.7393  0.2583 -1.6793
   71MOL   H16122701   9.353   5.007   4.961  0.9297 -0.3313 -2.7193
   71MOL   C16222702   8.890   5.162   5.014 -0.0968  0.0051 -0.1729
   71MOL   C16322703   8.741   5.192   5.038 -0.4529 -0.2969 -0.3084
   71MOL   C16422704   8.677   5.303   4.975  0.1159  0.3471 -1.0072
   71MOL   C16522705   8.543   5.329   5.014 -0.0552 -0.5172  0.1447
   71MOL   C16622706   8.474   5.247   5.104  0.3310 -0.0768 -0.4630
   71MOL   C16722707   8.330   5.266   5.141 -0.1792  0.0530 -0.2813
   71MOL   C16822708   8.540   5.147   5.170 -0.4873  0.1856  0.0176
   71MOL   C16922709   8.671   5.121   5.138  0.1395 -0.1414  0.9131
   71MOL   H17022710   8.921   5.117   5.108 -0.1307  0.2404 -0.0517
   71MOL   H17122711   8.904   5.097   4.927 -0.7838 -0.0657 -0.2289
   71MOL   H17222712   8.735   5.361   4.904 -0.9058  0.5328 -1.7088
   71MOL   H17322713   8.487   5.404   4.960  1.4145  2.0473  2.1472
   71MOL   H17422714   8.307   5.238   5.243 -0.7776  0.7785 -0.2132
   71MOL   H17522715   8.322   5.374   5.125  4.1815  0.5347  0.2223
   71MOL   H17622716   8.496   5.082   5.244  1.8333  0.1412  1.4082
   71MOL   H17722717   8.721   5.047   5.200  0.9537 -0.2843  0.0983
   71MOL   C17822718   8.244   5.192   5.036  0.2099  0.1269 -0.5592
   71MOL   C17922719   8.098   5.197   5.069 -0.5986  0.5289 -0.3499
   71MOL   C18022720   8.032   5.104   5.150 -0.0589 -0.3625 -0.0747
   71MOL   C18122721   7.897   5.133   5.182  0.8489 -0.6801 -0.7778
   71MOL   C18222722   7.830   5.247   5.134 -0.2045  0.3908 -0.1560
   71MOL   C18322723   7.683   5.259   5.184 -0.1435 -0.4721 -0.0883
   71MOL   C18422724   7.894   5.342   5.051  0.0340 -0.1649 -0.4839
   71MOL   C18522725   8.028   5.307   5.014 -0.4966 -0.4101 -0.3625
   71MOL   H18622726   8.272   5.086   5.037  0.9294  0.3159  0.5318
   71MOL   H18722727   8.275   5.238   4.942 -1.5374 -0.8133 -1.6340
   71MOL   H18822728   8.082   5.015   5.184  0.5290  0.3600  1.0126
   71MOL   H18922729   7.847   5.066   5.251 -0.5724  1.1430  0.0308
   71MOL   H19022730   7.670   5.255   5.292  1.3127 -0.6993  0.0842
   71MOL   H19122731   7.664   5.364   5.159  1.3776  0.4239  2.3484
   71MOL   H19222732   7.862   5.441   5.022 -0.0077  0.1010  0.4446
   71MOL   H19322733   8.086   5.378   4.957 -1.1686  0.6776  0.2879
   71MOL   C19422734   7.572   5.187   5.090  0.4459  0.8204 -0.1531
   71MOL   C19522735   7.428   5.247   5.102  0.0666 -0.6134 -0.5615
   71MOL   C19622736   7.407   5.375   5.050  0.3204 -0.1022 -0.9415
   71MOL   C19722737   7.275   5.424   5.042  0.1364 -0.1871  0.0424
   71MOL   C19822738   7.168   5.354   5.091 -0.3408 -0.1267 -0.1375
   71MOL   C19922739   7.026   5.411   5.082 -0.6172 -0.2225  0.1745
   71MOL   C20022740   7.199   5.223   5.150 -0.1786 -0.4647 -0.3974
   71MOL   C20122741   7.324   5.163   5.146 -0.2845 -0.7699  0.3541
   71MOL   H20222742   7.566   5.087   5.132  1.3220 -0.7309 -3.5691
   71MOL   H20322743   7.589   5.179   4.983 -1.0943  0.1670 -0.3731
   71MOL   H20422744   7.488   5.429   5.003  0.4584 -1.8107 -2.7058
   71MOL   H20522745   7.261   5.522   5.000 -2.7080  0.3506  2.0847
   71MOL   H20622746   6.990   5.446   5.179  0.5699  3.9710 -0.7577
   71MOL   H20722747   7.020   5.508   5.032 -2.0506 -1.2328 -1.6605
   71MOL   H20822748   7.116   5.159   5.178  0.3863 -0.6347  0.9355
   71MOL   H20922749   7.333   5.063   5.186 -0.2292 -2.3210 -3.3168
   71MOL   C21022750   6.932   5.318   5.013  0.3266 -0.3263 -0.2699
   71MOL   C21122751   6.788   5.349   5.034  0.5670 -0.3109  0.2585
   71MOL   C21222752   6.708   5.261   5.107  0.7919  0.1517  0.1163
   71MOL   C21322753   6.571   5.288   5.123  0.7082 -0.0924  0.4731
   71MOL   C21422754   6.511   5.399   5.062  0.2203 -0.0130  0.0313
   71MOL   C21522755   6.371   5.438   5.093  0.2897 -0.5140  0.4897
   71MOL   C21622756   6.587   5.477   4.978  0.2785 -0.2866 -0.4572
   71MOL   C21722757   6.724   5.453   4.962  0.0090  0.0481  0.1368
   71MOL   H21822758   6.949   5.218   5.053  2.1627 -0.2551 -0.8339
   71MOL   H21922759   6.948   5.308   4.906  1.0954  1.0127 -0.2953
   71MOL   H22022760   6.742   5.167   5.148 -0.3461  0.5083  1.9477
   71MOL   H22122761   6.513   5.221   5.185 -1.2027  0.0630 -1.1091
   71MOL   H22222762   6.336   5.509   5.018 -1.8469 -1.4423  0.5779
   71MOL   H22322763   6.303   5.353   5.086 -2.8545  2.1010 -2.3046
   71MOL   H22422764   6.540   5.559   4.926  0.4874 -0.5997 -1.1430
   71MOL   H22522765   6.782   5.511   4.892 -0.6522  0.6019  0.0457
   71MOL   C22622766   6.359   5.486   5.234 -1.0040 -0.3624  0.1399
   71MOL   C22722767   6.219   5.536   5.277 -0.1911  0.1599 -0.0934
   71MOL   C22822768   6.202   5.660   5.347  0.2667  0.8332  0.1492
   71MOL   C22922769   6.078   5.708   5.399  0.0052 -0.2345 -0.1869
   71MOL   C23022770   5.969   5.618   5.387 -0.6517  0.0467 -0.1871
   71MOL   C23122771   5.839   5.650   5.457  0.0523  0.7821  0.0493
   71MOL   C23222772   5.981   5.494   5.323  0.0803 -0.5207  0.7639
   71MOL   C23322773   6.105   5.453   5.271  0.3834  0.1144  0.1516
   71MOL   H23422774   6.434   5.562   5.255 -1.4048 -0.0419  0.4165
   71MOL   H23522775   6.388   5.401   5.296 -2.0551 -0.2821  0.7629
   71MOL   H23622776   6.290   5.717   5.374  0.9622 -0.1573 -0.0042
   71MOL   H23722777   6.072   5.797   5.459  0.0197 -2.3965  3.1919
   71MOL   H23822778   5.771   5.568   5.434  0.4208  0.2554  0.8022
   71MOL   H23922779   5.836   5.660   5.566  0.0751  0.8220  0.0467
   71MOL   H24022780   5.899   5.425   5.308 -0.9237  1.3427 -2.6503
   71MOL   H24122781   6.101   5.355   5.227 -0.1908  0.8434 -1.4556
   71MOL   C24222782   5.779   5.779   5.407  0.2570 -0.3454 -0.0008
   71MOL   C24322783   5.628   5.794   5.439 -0.1158  0.5718 -0.0720
   71MOL   C24422784   5.562   5.704   5.529 -0.0436  0.2650  0.3220
   71MOL   C24522785   5.422   5.716   5.551  0.0753 -0.0446 -0.5323
   71MOL   C24622786   5.353   5.824   5.499  1.1001 -0.0792  0.0472
   71MOL   C24722787   5.206   5.841   5.524 -0.0341 -0.9520 -0.1181
   71MOL   C24822788   5.417   5.909   5.408 -0.0962  0.0711  0.1971
   71MOL   C24922789   5.550   5.896   5.380 -0.0002 -0.1328  0.4290
   71MOL   H25022790   5.840   5.862   5.441  0.4583 -0.6300  0.3357
   71MOL   H25122791   5.792   5.777   5.298  0.7930  0.4008  0.0469
   71MOL   H25222792   5.620   5.633   5.585  1.1262 -0.1341 -1.3811
   71MOL   H25322793   5.368   5.656   5.622  1.4686 -0.8714 -0.1515
   71MOL   H25422794   5.202   5.819   5.631  0.0634 -0.4598 -0.0131
   71MOL   H25522795   5.168   5.938   5.492  1.0270 -0.3157  0.5264
   71MOL   H25622796   5.373   5.993   5.358  0.4281  0.2071 -0.0387
   71MOL   H25722797   5.591   5.969   5.311  2.3486 -0.7611  1.1452
   71MOL   C25822798   5.134   5.747   5.432 -0.6538 -0.2652  0.3393
   71MOL   C25922799   4.984   5.763   5.457 -0.0682  0.1715  0.1313
   71MOL   C26022800   4.932   5.720   5.580  0.0181  0.6332  0.5356
   71MOL   C26122801   4.796   5.736   5.608  0.0840 -0.1953  0.1956
   71MOL   C26222802   4.713   5.794   5.507 -0.2993  0.2368 -0.6501
   71MOL   C26322803   4.572   5.813   5.528 -0.2631  0.7082 -0.2053
   71MOL   C26422804   4.766   5.827   5.382 -0.2742  0.3482 -0.5222
   71MOL   C26522805   4.906   5.810   5.352 -0.1485 -0.2776 -0.3981
   71MOL   H26622806   5.166   5.643   5.435  0.1312 -0.0100  0.9986
   71MOL   H26722807   5.152   5.778   5.329  1.9481  0.8802  1.1058
   71MOL   H26822808   5.002   5.679   5.651  1.1084  0.7983 -0.4343
   71MOL   H26922809   4.764   5.714   5.708 -2.5393 -0.1268 -0.5929
   71MOL   H27022810   4.527   5.817   5.429  0.7818  0.1771 -0.7092
   71MOL   H27122811   4.530   5.726   5.578  2.4802 -0.3406  0.3611
   71MOL   H27222812   4.700   5.870   5.308 -0.1323 -0.0172 -0.8675
   71MOL   H27322813   4.961   5.837   5.264  1.3013 -2.1518 -0.0985
   71MOL   C27422814   4.541   5.947   5.599 -0.1374 -0.3139  1.2084
   71MOL   C27522815   4.399   5.969   5.626 -0.4088 -0.4564 -0.2967
   71MOL   C27622816   4.334   6.062   5.543 -0.3730  0.1258  0.7317
   71MOL   C27722817   4.202   6.100   5.560  0.4251  0.1810  0.6141
   71MOL   C27822818   4.126   6.041   5.657 -0.0005  0.1128 -0.7214
   71MOL   C27922819   3.977   6.079   5.671  0.2457 -0.0856  0.7533
   71MOL   C28022820   4.184   5.951   5.741  0.1082 -0.1700 -0.4718
   71MOL   C28122821   4.322   5.917   5.733  0.4787 -0.6485 -0.4715
   71MOL   H28222822   4.594   5.948   5.694  0.5636  1.9920  0.8423
   71MOL   H28322823   4.586   6.032   5.547 -3.1233 -0.3242 -1.5160
   71MOL   H28422824   4.395   6.111   5.468  0.4041 -0.0988  1.2106
   71MOL   H28522825   4.147   6.160   5.490 -1.9806 -1.4289  1.0770
   71MOL   H28622826   3.944   6.046   5.573  2.1710 -1.4941  0.5491
   71MOL   H28722827   3.918   6.007   5.727 -2.1758 -0.3149 -2.0013
   71MOL   H28822828   4.127   5.895   5.815  1.1284  0.6252  0.9403
   71MOL   H28922829   4.359   5.839   5.798 -0.7350  0.7006  1.8657
   71MOL   C29022830   3.944   6.224   5.698  0.3159  0.7215 -0.2786
   71MOL   C29122831   3.796   6.235   5.708  0.4731 -0.9098 -0.7801
   71MOL   C29222832   3.719   6.181   5.814 -0.5174  0.4418  0.2120
   71MOL   C29322833   3.583   6.205   5.821 -0.1843  0.3774 -0.4574
   71MOL   C29422834   3.510   6.279   5.723  0.0845 -0.0390  0.0971
   71MOL   C29522835   3.365   6.307   5.737 -0.5653  0.3973  0.2289
   71MOL   C29622836   3.586   6.321   5.614  0.0569 -0.5288 -0.0041
   71MOL   C29722837   3.731   6.305   5.604  0.2842  0.3140 -0.4674
   71MOL   H29822838   3.991   6.300   5.636  0.7688  0.2023 -0.5776
   71MOL   H29922839   3.980   6.248   5.797  1.5797  1.3410 -0.8781
   71MOL   H30022840   3.781   6.153   5.899  0.1761  0.7495 -0.1821
   71MOL   H30122841   3.523   6.168   5.903 -0.1477  0.1247 -0.5422
   71MOL   H30222842   3.323   6.365   5.654  0.7337  1.9110  0.5918
   71MOL   H30322843   3.320   6.209   5.723  0.5812  0.0656 -1.2099
   71MOL   H30422844   3.527   6.379   5.544 -1.8998 -1.2591  0.9881
   71MOL   H30522845   3.779   6.350   5.518 -0.2613  1.6500 -0.0804
   71MOL   C30622846   3.328   6.361   5.871  0.0052  0.8445 -0.2466
   71MOL   C30722847   3.173   6.384   5.879 -0.6406  0.2681  0.3479
   71MOL   C30822848   3.130   6.493   5.956  0.5936  0.5196 -0.3317
   71MOL   C30922849   2.993   6.505   5.986 -0.4564  0.6856  0.3601
   71MOL   C31022850   2.906   6.416   5.930 -0.0989  0.5474  0.0543
   71MOL   C31122851   2.757   6.446   5.952 -0.0599 -0.3951  0.4871
   71MOL   C31222852   2.949   6.305   5.855 -0.5894  0.7474  0.1004
   71MOL   C31322853   3.084   6.288   5.824 -0.4534 -0.4786  0.0844
   71MOL   H31422854   3.390   6.447   5.897  0.4142  0.2932  0.6478
   71MOL   H31522855   3.338   6.284   5.948 -1.4916  3.3937  2.6060
   71MOL   H31622856   3.198   6.567   5.995  1.3267  0.4815 -1.5195
   71MOL   H31722857   2.954   6.593   6.035 -1.6115  1.6454 -2.1955
   71MOL   H31822858   2.691   6.381   5.894 -0.3017  1.7739 -1.7484
   71MOL   H31922859   2.728   6.441   6.057 -0.2824 -2.9943  0.3300
   71MOL   H32022860   2.878   6.233   5.817 -0.5896  1.0216 -0.4300
   71MOL   H32122861   3.122   6.197   5.780 -0.5880  0.4140 -1.9288
   71MOL   H32222862   2.738   6.544   5.908 -0.8402 -1.9806 -2.8798
   72MOL     C122863   5.010   7.423   3.213 -0.0061 -0.1993 -0.1255
   72MOL     C222864   5.148   7.366   3.188  0.2714 -0.0827  0.1978
   72MOL     C322865   5.171   7.237   3.139  0.0080  0.0192  0.2303
   72MOL     C422866   5.303   7.193   3.112 -0.7906 -0.6095  0.2854
   72MOL     C522867   5.410   7.285   3.130  0.1084 -0.2659 -0.1434
   72MOL     C622868   5.549   7.245   3.083  0.2015 -0.1153 -0.0103
   72MOL     C722869   5.391   7.408   3.189  0.2518  0.1883  0.1783
   72MOL     C822870   5.260   7.452   3.213  0.2719  0.4133 -0.7428
   72MOL     H922871   4.991   7.425   3.320 -1.1743 -2.1775 -0.2675
   72MOL    H1022872   5.006   7.525   3.173  1.8925 -0.3491 -0.7215
   72MOL    H1122873   5.091   7.167   3.118  0.4929 -0.5874  0.4061
   72MOL    H1222874   5.324   7.091   3.084 -0.3740 -0.4734  0.0953
   72MOL    H1322875   5.533   7.175   3.001 -1.5535  0.2299  0.0247
   72MOL    H1422876   5.597   7.321   3.021 -0.5395 -1.5452 -2.4155
   72MOL    H1522877   5.472   7.478   3.201  0.3560  0.1969 -0.5326
   72MOL    H1622878   5.234   7.555   3.233 -0.6928 -0.0833  0.6037
   72MOL    H1722879   4.937   7.359   3.163 -0.5368 -0.3525  0.8429
   72MOL    C1822880   5.633   7.196   3.199 -0.4591  0.5782 -0.2510
   72MOL    C1922881   5.767   7.134   3.157  0.1260 -0.8826  0.2247
   72MOL    C2022882   5.768   7.032   3.058 -0.1832  0.3950 -0.0930
   72MOL    C2122883   5.898   6.984   3.014  0.4074  0.1750  0.1949
   72MOL    C2222884   6.012   7.034   3.077  0.0541 -0.1593  0.6856
   72MOL    C2322885   6.141   6.978   3.035 -0.8453  0.0780  0.4343
   72MOL    C2422886   6.009   7.138   3.177  0.3608  1.0498 -0.3476
   72MOL    C2522887   5.884   7.191   3.212 -0.8131 -0.3070  0.0835
   72MOL    H2622888   5.651   7.280   3.266  0.5658 -0.1054  0.3590
   72MOL    H2722889   5.577   7.123   3.258  0.8950 -1.2127 -1.1388
   72MOL    H2822890   5.677   6.995   3.012  0.6705  0.5492 -1.9874
   72MOL    H2922891   5.904   6.895   2.952  3.3642  1.1933 -1.1220
   72MOL    H3022892   6.199   7.070   3.032  1.3658 -1.2643  0.2445
   72MOL    H3122893   6.139   6.955   2.928 -0.1268  0.6318  0.3005
   72MOL    H3222894   6.102   7.173   3.218  0.6946 -0.6312  0.3878
   72MOL    H3322895   5.881   7.271   3.285  0.0464 -0.0431 -0.1597
   72MOL    C3422896   6.205   6.867   3.113  0.3622 -0.8766 -0.7768
   72MOL    C3522897   6.358   6.852   3.091 -0.5592 -0.2975  0.3750
   72MOL    C3622898   6.447   6.956   3.142 -0.2404  0.2438  0.4524
   72MOL    C3722899   6.591   6.948   3.127 -0.1612 -0.8268 -0.9067
   72MOL    C3822900   6.646   6.832   3.086  0.4210  0.0211 -0.0067
   72MOL    C3922901   6.799   6.820   3.075  0.4637 -0.3881 -0.2967
   72MOL    C4022902   6.560   6.723   3.051  0.1141  1.0831  0.6423
   72MOL    C4122903   6.419   6.736   3.058  0.0098  0.5944 -0.9315
   72MOL    H4222904   6.153   6.772   3.105  1.2300 -1.1710 -3.1533
   72MOL    H4322905   6.195   6.885   3.221  0.8282 -0.5022 -0.7920
   72MOL    H4422906   6.413   7.044   3.195 -1.1785  0.7642 -0.9688
   72MOL    H4522907   6.649   7.030   3.168  2.5735 -3.0205 -0.2800
   72MOL    H4622908   6.818   6.773   2.978 -2.0955 -0.4974 -0.7973
   72MOL    H4722909   6.846   6.918   3.077  0.6334 -0.4890  1.9451
   72MOL    H4822910   6.605   6.638   3.003 -1.4993 -0.0543  1.1171
   72MOL    H4922911   6.358   6.655   3.020  0.6136 -0.2167 -0.1992
   72MOL    C5022912   6.849   6.736   3.183 -0.9376  0.0175  0.6750
   72MOL    C5122913   6.997   6.725   3.164 -0.1733 -0.1614  0.0829
   72MOL    C5222914   7.082   6.819   3.226  0.3821  0.4045 -0.2199
   72MOL    C5322915   7.220   6.812   3.197  0.1301 -0.2528  0.2591
   72MOL    C5422916   7.271   6.714   3.113 -0.1518  0.2563 -0.0039
   72MOL    C5522917   7.413   6.706   3.072  1.0606  0.0661  0.6440
   72MOL    C5622918   7.190   6.614   3.065  0.3491  0.2276 -0.2469
   72MOL    C5722919   7.049   6.622   3.082 -0.7425 -0.2945 -0.0670
   72MOL    H5822920   6.800   6.639   3.180 -0.1562 -0.3797  0.7652
   72MOL    H5922921   6.827   6.775   3.283 -2.0966  2.5549 -0.5212
   72MOL    H6022922   7.044   6.891   3.297  2.2585 -0.1849  1.4108
   72MOL    H6122923   7.277   6.892   3.242  1.4555 -1.0099 -0.0482
   72MOL    H6222924   7.422   6.641   2.985 -2.8521 -0.9710  0.9167
   72MOL    H6322925   7.448   6.806   3.046 -0.6538  1.3088  2.9018
   72MOL    H6422926   7.231   6.535   3.005 -0.3220 -1.4071  1.4134
   72MOL    H6522927   6.985   6.553   3.031 -2.0832  0.9554 -0.1048
   72MOL    C6622928   7.504   6.647   3.177  0.2772 -0.3233  0.4350
   72MOL    C6722929   7.639   6.594   3.124  1.2212  0.0956 -0.0121
   72MOL    C6822930   7.758   6.639   3.185  0.2035 -0.4934 -0.0406
   72MOL    C6922931   7.881   6.591   3.140 -0.1394 -0.6868 -0.6976
   72MOL    C7022932   7.897   6.486   3.050  0.0595 -0.3064  0.0656
   72MOL    C7122933   8.037   6.437   3.021  0.0464 -0.4330 -0.5046
   72MOL    C7222934   7.774   6.439   2.984  0.5121  0.0069 -0.5278
   72MOL    C7322935   7.647   6.496   3.023  0.3135  0.0789  0.1440
   72MOL    H7422936   7.457   6.559   3.221  0.9608 -1.0506 -0.2881
   72MOL    H7522937   7.520   6.714   3.262  0.3330  1.2090 -0.7501
   72MOL    H7622938   7.745   6.712   3.265  1.4291 -0.7805  0.4275
   72MOL    H7722939   7.968   6.632   3.187  1.3124 -2.6447 -1.6181
   72MOL    H7822940   8.060   6.341   3.069 -1.0018 -0.9562 -1.0368
   72MOL    H7922941   8.109   6.510   3.058 -0.9032 -0.5002  1.5585
   72MOL    H8022942   7.764   6.359   2.912 -0.5519 -0.4052  0.0614
   72MOL    H8122943   7.552   6.462   2.983 -0.1472  1.9984 -0.4341
   72MOL    C8222944   8.052   6.407   2.869  0.3120 -0.2009 -0.4704
   72MOL    C8322945   8.194   6.372   2.832  0.2308  0.3104 -0.4428
   72MOL    C8422946   8.297   6.364   2.922  0.3088  0.8631  0.2918
   72MOL    C8522947   8.423   6.313   2.881  0.8712 -0.1991  0.4016
   72MOL    C8622948   8.446   6.276   2.750 -0.0968  0.0870  1.0352
   72MOL    C8722949   8.587   6.229   2.716 -0.0011  0.4523  0.4468
   72MOL    C8822950   8.342   6.290   2.648 -0.7121  0.2911 -0.4893
   72MOL    C8922951   8.212   6.327   2.697  0.1603  0.1278 -0.0486
   72MOL    H9022952   8.022   6.493   2.808 -3.4676 -2.0691 -1.3690
   72MOL    H9122953   7.986   6.330   2.831  1.3652 -1.9780  1.2353
   72MOL    H9222954   8.285   6.386   3.027  1.4263 -0.3101  0.6885
   72MOL    H9322955   8.502   6.296   2.953  1.4420  0.6044 -0.0251
   72MOL    H9422956   8.659   6.292   2.768 -1.7830  1.3086  1.9040
   72MOL    H9522957   8.608   6.245   2.610 -0.7928  1.0982  0.3804
   72MOL    H9622958   8.362   6.267   2.544 -1.8448 -0.6738 -0.5142
   72MOL    H9722959   8.131   6.337   2.626 -0.2602  2.5797  0.7154
   72MOL    C9822960   8.619   6.083   2.752  0.3332  0.4202  0.6047
   72MOL    C9922961   8.754   6.025   2.719  0.5617 -0.0632  0.0531
   72MOL   C10022962   8.869   6.041   2.803 -0.9764  0.2050 -0.0745
   72MOL   C10122963   8.992   5.981   2.766  0.8917 -0.0776 -0.7654
   72MOL   C10222964   8.997   5.893   2.658 -0.7172 -0.0919  0.4842
   72MOL   C10322965   9.121   5.808   2.626 -0.4195 -0.9790 -0.5006
   72MOL   C10422966   8.882   5.877   2.573  0.1076 -0.0329  0.6477
   72MOL   C10522967   8.764   5.943   2.604 -0.0078  0.2378 -0.0405
   72MOL   H10622968   8.552   6.007   2.712  0.1965  1.8916 -2.1341
   72MOL   H10722969   8.605   6.079   2.860  0.0244 -1.7324  0.5110
   72MOL   H10822970   8.867   6.099   2.895  1.5049 -0.6961  0.5927
   72MOL   H10922971   9.077   6.004   2.829 -0.4455 -0.2061  1.1225
   72MOL   H11022972   9.119   5.726   2.699  0.3010 -2.1869 -1.8185
   72MOL   H11122973   9.108   5.766   2.526 -0.5979 -1.2663 -0.3590
   72MOL   H11222974   8.879   5.809   2.489 -3.1234  1.6324 -0.6851
   72MOL   H11322975   8.677   5.927   2.542  0.4850 -1.1546 -0.4119
   72MOL   C11422976   9.259   5.880   2.622  0.7165 -0.1320 -0.0609
   72MOL   C11522977   9.383   5.784   2.619 -0.1457 -0.0213  0.1175
   72MOL   C11622978   9.408   5.697   2.510  0.1269  0.0843 -0.6012
   72MOL   C11722979   9.530   5.622   2.496 -0.1522 -0.2047  0.5907
   72MOL   C11822980   9.621   5.635   2.599 -0.0813  0.3643 -0.7629
   72MOL   C11922981   9.751   5.553   2.600  1.0145 -1.1012  0.1370
   72MOL   C12022982   9.592   5.716   2.711 -1.1813  0.2314  0.3073
   72MOL   C12122983   9.475   5.790   2.718  0.3568  0.0933  0.0978
   72MOL   H12222984   9.272   5.946   2.708 -1.2620 -0.8350  0.7949
   72MOL   H12322985   9.257   5.944   2.534  1.2951  0.5257  0.3974
   72MOL   H12422986   9.332   5.687   2.433 -0.3401 -0.1434 -0.1134
   72MOL   H12522987   9.541   5.552   2.414  0.5013  0.0389  0.4610
   72MOL   H12622988   9.747   5.502   2.696 -1.0909 -0.3438  0.4809
   72MOL   H12722989   9.740   5.481   2.519  1.1135  0.1170 -0.9764
   72MOL   H12822990   9.663   5.735   2.791 -1.5400  3.1465 -0.0484
   72MOL   H12922991   9.458   5.856   2.801  1.5597  2.1024 -1.2133
   72MOL   C13022992   9.869   5.643   2.560 -0.6533 -0.1794  0.1498
   72MOL   C13122993  10.000   5.568   2.581 -0.1528  0.1970 -0.7119
   72MOL   C13222994  10.032   5.471   2.484  0.6697  0.3538  0.3850
   72MOL   C13322995  10.158   5.407   2.505 -0.1249 -0.2125 -0.2722
   72MOL   C13422996  10.248   5.426   2.608  0.0659  0.4230  0.3356
   72MOL   C13522997  10.378   5.349   2.613 -0.0671 -0.0480 -0.7755
   72MOL   C13622998  10.209   5.519   2.704  0.5070  0.6380 -1.2907
   72MOL   C13722999  10.082   5.590   2.694 -0.4749  0.6737  0.2927
   72MOL   H13823000   9.883   5.733   2.621 -1.8368  0.5701 -0.6577
   72MOL   H13923001   9.871   5.675   2.456 -1.6412  2.1695  0.8188
   72MOL   H14023002   9.968   5.450   2.399  1.1879 -0.7379  0.2585
   72MOL   H14123003  10.195   5.355   2.418 -2.4587  0.7893 -1.9414
   72MOL   H14223004  10.453   5.400   2.553  1.5551  1.0381  2.1063
   72MOL   H14323005  10.413   5.356   2.716 -1.2792  0.7409 -0.4048
   72MOL   H14423006  10.276   5.539   2.786 -1.3522 -3.7268  1.4263
   72MOL   H14523007  10.058   5.659   2.774  0.8221  2.3395 -0.7161
   72MOL   C14623008  10.361   5.209   2.573  0.0548 -0.7452  0.0924
   72MOL   C14723009  10.487   5.134   2.589 -0.1512 -1.1674  0.2967
   72MOL   C14823010  10.543   5.123   2.718  0.2912 -0.1778  0.2073
   72MOL   C14923011  10.658   5.049   2.742  0.8948  0.2137 -0.1232
   72MOL   C15023012  10.722   4.991   2.631  0.3772  0.3800 -0.7269
   72MOL   C15123013  10.857   4.923   2.658  0.5738 -0.7930  0.5054
   72MOL   C15223014  10.666   4.998   2.502  0.0181 -0.4307  0.3886
   72MOL   C15323015  10.553   5.076   2.477 -0.9200 -0.1601  0.8255
   72MOL   H15423016  10.333   5.193   2.468 -2.8948  2.6134  0.2520
   72MOL   H15523017  10.280   5.163   2.630  0.5183 -1.1746  0.4000
   72MOL   H15623018  10.494   5.168   2.803  2.8835 -0.2266  1.7529
   72MOL   H15723019  10.708   5.027   2.835  1.8227  1.4685 -0.3079
   72MOL   H15823020  10.934   4.975   2.603  0.5581 -1.0639  0.2228
   72MOL   H15923021  10.887   4.922   2.763 -2.1496  2.1562  1.3967
   72MOL   H16023022  10.714   4.926   2.437  1.0478  0.4038  0.2093
   72MOL   H16123023  10.532   5.103   2.374 -0.6368  0.5978  0.9668
   72MOL   C16223024  10.858   4.774   2.608 -0.0217 -0.8118  0.2552
   72MOL   C16323025  10.992   4.711   2.609  0.0754 -0.9859  0.0922
   72MOL   C16423026  11.011   4.596   2.683  0.3649 -0.5400  0.1660
   72MOL   C16523027  11.131   4.528   2.673  0.3369  0.2458 -0.0099
   72MOL   C16623028  11.234   4.583   2.602 -0.3521  0.4591 -0.1009
   72MOL   C16723029  11.367   4.512   2.615 -0.1533 -0.7003  0.2032
   72MOL   C16823030  11.218   4.703   2.528 -0.1960  0.2109 -0.7635
   72MOL   C16923031  11.097   4.774   2.539  0.3145  0.9220 -0.5080
   72MOL   H17023032  10.831   4.765   2.503 -0.9172  0.4969  0.3629
   72MOL   H17123033  10.781   4.727   2.669 -0.8236  1.6913  1.2025
   72MOL   H17223034  10.930   4.562   2.746 -0.8384  1.4967 -0.2163
   72MOL   H17323035  11.154   4.436   2.726  4.6426  1.6508  0.7502
   72MOL   H17423036  11.370   4.440   2.697  0.1139 -0.2968  0.5469
   72MOL   H17523037  11.397   4.472   2.518 -0.8973 -0.0675 -0.2964
   72MOL   H17623038  11.301   4.753   2.479  2.6278  0.0916  3.6092
   72MOL   H17723039  11.092   4.869   2.489 -0.1955 -0.7836 -3.8566
   72MOL   C17823040  11.474   4.613   2.669  0.5967 -0.1447  0.0949
   72MOL   C17923041  11.598   4.537   2.714  0.4098  0.2090 -0.0591
   72MOL   C18023042  11.592   4.471   2.840  0.5321 -0.6186  0.6357
   72MOL   C18123043  11.709   4.409   2.887 -0.6627 -0.5371 -0.5729
   72MOL   C18223044  11.823   4.399   2.806  0.1422  0.0358 -0.0832
   72MOL   C18323045  11.948   4.324   2.858 -0.9798  0.4000 -0.6782
   72MOL   C18423046  11.825   4.454   2.677 -0.8206  0.2025  0.2515
   72MOL   C18523047  11.711   4.524   2.629 -0.2821  0.0508  0.7707
   72MOL   H18623048  11.438   4.673   2.753  1.1876 -3.2678  2.6513
   72MOL   H18723049  11.486   4.680   2.583 -0.7923  1.3556  1.0421
   72MOL   H18823050  11.512   4.474   2.911 -0.5844 -2.5976 -0.4907
   72MOL   H18923051  11.701   4.356   2.981  4.0897 -0.8273 -0.2252
   72MOL   H19023052  11.923   4.303   2.962  1.0613 -1.0874 -0.4617
   72MOL   H19123053  11.957   4.220   2.827  1.3532  0.5596 -0.6502
   72MOL   H19223054  11.905   4.435   2.607  0.4751  1.6386  1.3002
   72MOL   H19323055  11.695   4.572   2.534 -1.5234 -0.2079  0.8507
   72MOL   C19423056  12.079   4.411   2.847  0.1734  0.8336 -0.0744
   72MOL   C19523057  12.202   4.330   2.873  0.2299  0.2755  0.6954
   72MOL   C19623058  12.241   4.302   3.011 -0.1276 -0.8923 -0.3125
   72MOL   C19723059  12.349   4.223   3.036  0.0811 -0.4229 -0.8066
   72MOL   C19823060  12.423   4.163   2.929  0.1783 -0.1964 -0.0848
   72MOL   C19923061  12.537   4.074   2.963 -0.0235 -0.2922 -0.2463
   72MOL   C20023062  12.380   4.188   2.795 -0.3417  0.0055  0.2252
   72MOL   C20123063  12.266   4.265   2.765  0.0332 -0.0557  0.0832
   72MOL   H20223064  12.079   4.478   2.933  0.6659  2.1331 -1.0644
   72MOL   H20323065  12.079   4.467   2.753  2.9334 -1.4325 -1.5010
   72MOL   H20423066  12.178   4.331   3.093 -0.3547 -2.2993  0.0291
   72MOL   H20523067  12.394   4.212   3.133  1.6691 -0.6901 -1.5445
   72MOL   H20623068  12.531   4.050   3.069 -0.1538  1.4501  0.1582
   72MOL   H20723069  12.533   3.985   2.900  0.5338 -1.1649  0.9340
   72MOL   H20823070  12.431   4.141   2.712 -0.5707  0.9889 -0.4910
   72MOL   H20923071  12.225   4.275   2.666 -1.3323 -1.5908  0.4677
   72MOL   C21023072  12.671   4.147   2.926 -0.2457  0.4912 -0.2872
   72MOL   C21123073  12.787   4.071   2.972  0.2943 -0.5621 -0.9946
   72MOL   C21223074  12.841   4.095   3.101  0.1423  0.7418 -0.2251
   72MOL   C21323075  12.963   4.038   3.140  0.5001  0.0067 -0.5139
   72MOL   C21423076  13.033   3.948   3.053  0.2889 -0.3897  0.7695
   72MOL   C21523077  13.146   3.861   3.105  0.2196  0.6181 -0.5425
   72MOL   C21623078  12.978   3.924   2.925 -0.3103  0.2225 -0.7611
   72MOL   C21723079  12.850   3.983   2.891 -0.4492  0.1818  0.2614
   72MOL   H21823080  12.675   4.244   2.976 -2.8141  1.0060 -1.0240
   72MOL   H21923081  12.680   4.165   2.819 -0.1544  1.8841 -0.0519
   72MOL   H22023082  12.790   4.147   3.180  0.9956 -0.6866  1.2841
   72MOL   H22123083  12.993   4.055   3.242  1.7323  1.2646 -1.0813
   72MOL   H22223084  13.179   3.891   3.204 -0.8192 -0.4781  0.1530
   72MOL   H22323085  13.117   3.756   3.102  0.8549  0.3526  1.8181
   72MOL   H22423086  13.029   3.866   2.849 -0.1523  0.0497 -0.5256
   72MOL   H22523087  12.796   3.964   2.800  0.1890 -0.4500  0.0102
   72MOL   C22623088  13.268   3.877   3.008 -0.3183  0.4799  0.3962
   72MOL   C22723089  13.380   3.777   3.043 -0.5349 -0.4169 -0.3400
   72MOL   C22823090  13.472   3.811   3.137  0.0520  0.0601  0.0979
   72MOL   C22923091  13.565   3.721   3.185 -0.0304 -0.1369 -0.1429
   72MOL   C23023092  13.585   3.595   3.113  0.5260 -0.2564 -0.3148
   72MOL   C23123093  13.691   3.496   3.151  0.3116 -0.3271  0.5018
   72MOL   C23223094  13.499   3.566   3.003 -0.2182 -0.2535  0.0590
   72MOL   C23323095  13.387   3.654   2.974  0.5070 -0.5415 -0.1018
   72MOL   H23423096  13.301   3.981   3.008  0.7412  0.1719 -3.0571
   72MOL   H23523097  13.248   3.863   2.902  0.8741 -0.8001  0.3261
   72MOL   H23623098  13.469   3.909   3.182  0.1603  0.9332 -1.7495
   72MOL   H23723099  13.633   3.742   3.267 -2.6282  0.9794  1.7852
   72MOL   H23823100  13.733   3.526   3.246  1.0728 -1.5447  0.5568
   72MOL   H23923101  13.646   3.399   3.174  0.8282 -1.0945 -1.5943
   72MOL   H24023102  13.512   3.474   2.949  2.1525  0.4451 -0.6210
   72MOL   H24123103  13.316   3.629   2.897  0.3812  0.3330 -0.2629
   72MOL   C24223104  13.802   3.487   3.045  0.2769 -0.6019  0.2128
   72MOL   C24323105  13.918   3.421   3.107 -0.3278 -1.1980 -0.5593
   72MOL   C24423106  13.998   3.500   3.190 -0.2854 -0.0357 -0.6171
   72MOL   C24523107  14.111   3.451   3.262  0.3786 -0.6367  0.8494
   72MOL   C24623108  14.139   3.313   3.251  0.0001 -0.7555  0.3435
   72MOL   C24723109  14.261   3.252   3.313  0.0443 -0.1929 -0.1851
   72MOL   C24823110  14.057   3.231   3.162  0.0000  0.3686 -0.8428
   72MOL   C24923111  13.947   3.285   3.090 -0.1479  0.4855 -0.2568
   72MOL   H25023112  13.785   3.440   2.948  0.0229  0.9665 -0.5338
   72MOL   H25123113  13.822   3.589   3.012 -2.2075 -0.1028  0.1285
   72MOL   H25223114  13.988   3.608   3.193  0.3504  0.0314 -0.6484
   72MOL   H25323115  14.169   3.518   3.324  0.9175  1.1169 -1.4731
   72MOL   H25423116  14.317   3.330   3.363 -1.1575  0.3796  0.2878
   72MOL   H25523117  14.232   3.177   3.387 -1.2046 -1.9138 -2.3210
   72MOL   H25623118  14.085   3.130   3.139 -1.3556  0.2781 -2.1358
   72MOL   H25723119  13.883   3.222   3.030  1.5703 -2.0141  0.3990
   72MOL   C25823120  14.372   3.201   3.219 -0.2776 -0.5565 -0.4650
   72MOL   C25923121  14.494   3.163   3.299 -0.2608  0.3891 -0.5546
   72MOL   C26023122  14.584   3.268   3.334 -0.7365 -0.2559 -0.0639
   72MOL   C26123123  14.714   3.229   3.384 -0.6988  0.1540  0.1337
   72MOL   C26223124  14.739   3.098   3.426  0.1584  0.3160 -0.0933
   72MOL   C26323125  14.873   3.076   3.482  0.4583  0.2014  0.1780
   72MOL   C26423126  14.647   2.996   3.401 -0.0115 -0.2515 -0.0083
   72MOL   C26523127  14.525   3.025   3.335 -0.4008  0.2659  0.4413
   72MOL   H26623128  14.406   3.282   3.154 -1.1953 -0.5956 -1.0022
   72MOL   H26723129  14.322   3.123   3.161 -1.7095 -0.4942  0.6539
   72MOL   H26823130  14.561   3.370   3.306 -3.0008 -1.2325 -1.9402
   72MOL   H26923131  14.782   3.313   3.395 -0.0443 -0.0737 -1.9509
   72MOL   H27023132  14.912   3.162   3.536  2.0138  0.0783 -0.7215
   72MOL   H27123133  14.886   2.991   3.549 -1.3002  0.4083  0.8209
   72MOL   H27223134  14.678   2.903   3.446  1.4055  1.3339  2.4365
   72MOL   H27323135  14.454   2.948   3.309  1.0418 -0.1239 -2.4579
   72MOL   C27423136  14.971   3.048   3.372 -0.6966  0.0648 -0.1575
   72MOL   C27523137  15.106   3.040   3.423 -0.3401  0.0790 -0.1720
   72MOL   C27623138  15.173   3.155   3.457  0.3506 -0.5451 -0.0515
   72MOL   C27723139  15.308   3.148   3.506 -0.7244 -0.3463 -0.5632
   72MOL   C27823140  15.374   3.015   3.519  0.1647 -0.2981  0.1644
   72MOL   C27923141  15.519   2.995   3.568  0.1254 -0.4483 -0.0294
   72MOL   C28023142  15.299   2.905   3.470  0.2221  1.0536  0.3365
   72MOL   C28123143  15.167   2.915   3.429 -0.0611 -0.2704  0.0262
   72MOL   H28223144  14.945   2.957   3.318  0.6453 -0.8002  0.6324
   72MOL   H28323145  14.967   3.128   3.298  0.8468  0.9069  0.6463
   72MOL   H28423146  15.120   3.248   3.443  0.8432 -0.5234 -1.8842
   72MOL   H28523147  15.359   3.239   3.533 -1.2817 -0.3270  0.4316
   72MOL   H28623148  15.561   2.898   3.539 -0.3157 -0.0247 -2.1515
   72MOL   H28723149  15.580   3.062   3.507 -0.3539 -0.0863 -0.1130
   72MOL   H28823150  15.342   2.808   3.489 -0.5744  1.1659  2.9550
   72MOL   H28923151  15.124   2.818   3.404 -3.3761  0.3826  2.8272
   72MOL   C29023152  15.526   3.019   3.723 -0.1819 -0.6693  0.4863
   72MOL   C29123153  15.661   2.989   3.779  0.0988  0.0141  0.2169
   72MOL   C29223154  15.764   3.074   3.748 -0.0540  0.1090  0.2968
   72MOL   C29323155  15.888   3.057   3.809  0.4575  0.2338  0.1202
   72MOL   C29423156  15.920   2.943   3.887 -0.3746 -0.0944 -0.0513
   72MOL   C29523157  16.052   2.918   3.937 -0.3280 -0.0984 -0.1602
   72MOL   C29623158  15.812   2.853   3.917  0.0975  0.0094 -0.1635
   72MOL   C29723159  15.682   2.879   3.862  0.0662 -0.4044 -0.4694
   72MOL   H29823160  15.456   2.953   3.773  1.5948 -1.7525  1.6045
   72MOL   H29923161  15.490   3.119   3.749 -1.1763 -0.0423 -2.9776
   72MOL   H30023162  15.751   3.151   3.674  3.5596  2.6314  2.1468
   72MOL   H30123163  15.971   3.125   3.793 -1.5358  2.5299 -0.9075
   72MOL   H30223164  16.104   3.003   3.981  1.5283 -0.9969 -0.5806
   72MOL   H30323165  16.051   2.853   4.024 -0.5048 -0.1814 -0.2219
   72MOL   H30423166  15.831   2.772   3.987 -1.7864 -2.4013 -2.3371
   72MOL   H30523167  15.602   2.811   3.887 -0.2915  0.7845  1.7432
   72MOL   C30623168  16.143   2.863   3.834 -0.8571 -0.1352 -0.3927
   72MOL   C30723169  16.285   2.856   3.886 -0.1003  0.1219  0.5167
   72MOL   C30823170  16.378   2.963   3.883  0.3327  0.1587  0.5494
   72MOL   C30923171  16.508   2.954   3.937 -0.7502 -0.2868  0.7652
   72MOL   C31023172  16.549   2.834   3.991  0.5584  0.4209  0.0183
   72MOL   C31123173  16.686   2.819   4.051 -0.1211  0.0328  0.3600
   72MOL   C31223174  16.464   2.723   4.001 -0.0264 -0.0205  0.3221
   72MOL   C31323175  16.333   2.734   3.947  0.6116 -0.3144 -0.2513
   72MOL   H31423176  16.151   2.939   3.756 -1.6968 -1.0873 -1.4260
   72MOL   H31523177  16.111   2.768   3.791 -3.0347  0.8470 -1.0342
   72MOL   H31623178  16.346   3.057   3.840  0.6798  0.7373  1.5245
   72MOL   H31723179  16.577   3.038   3.940 -1.0288  0.0797 -1.6106
   72MOL   H31823180  16.750   2.907   4.048  0.6803 -0.5895 -1.3124
   72MOL   H31923181  16.686   2.772   4.149  0.6316 -0.9569 -0.1080
   72MOL   H32023182  16.501   2.630   4.043  0.7551  0.3162  0.3813
   72MOL   H32123183  16.265   2.651   3.955  0.7257 -0.5270 -1.3993
   72MOL   H32223184  16.734   2.742   3.991  1.0744  1.6507 -0.8020
   73MOL     C123185   2.878   2.379   3.307 -0.8006 -0.2159 -0.3001
   73MOL     C223186   3.010   2.308   3.264 -0.2822  0.1387  0.5003
   73MOL     C323187   3.069   2.214   3.356 -0.1082 -0.2064 -0.8164
   73MOL     C423188   3.195   2.164   3.338 -0.5386 -0.0668  0.0505
   73MOL     C523189   3.267   2.197   3.217 -0.3876  0.1415 -0.8274
   73MOL     C623190   3.403   2.137   3.190  0.0933 -0.4788 -0.4229
   73MOL     C723191   3.202   2.277   3.119 -0.2471  0.0620 -0.2233
   73MOL     C823192   3.074   2.328   3.136 -0.0165 -0.1407 -0.0667
   73MOL     H923193   2.843   2.333   3.399 -1.2069  0.7757  0.0550
   73MOL    H1023194   2.890   2.485   3.329  0.4687 -0.5245  0.5515
   73MOL    H1123195   3.010   2.179   3.439 -2.1408  0.8237 -1.7959
   73MOL    H1223196   3.240   2.104   3.416  1.3983  0.5720 -0.5480
   73MOL    H1323197   3.393   2.029   3.180  2.7091 -0.8178  0.1880
   73MOL    H1423198   3.454   2.183   3.106  2.6723 -0.0918  1.2740
   73MOL    H1523199   3.241   2.304   3.022  0.0051  0.0839 -0.1180
   73MOL    H1623200   3.023   2.402   3.076 -0.7951 -0.4282  0.2376
   73MOL    H1723201   2.801   2.359   3.233  0.2724 -2.8732 -0.7442
   73MOL    C1823202   3.501   2.165   3.300 -0.1409  0.7213 -0.1013
   73MOL    C1923203   3.633   2.093   3.275 -0.2734 -0.2192  0.4406
   73MOL    C2023204   3.717   2.147   3.175  0.0033  1.1380  0.4701
   73MOL    C2123205   3.828   2.070   3.139 -1.0537  0.3843  0.0815
   73MOL    C2223206   3.849   1.938   3.200  0.3990  0.2395 -0.3609
   73MOL    C2323207   3.968   1.857   3.152  0.2949 -0.0868  0.2960
   73MOL    C2423208   3.771   1.891   3.304 -0.3772  0.1835 -0.4383
   73MOL    C2523209   3.658   1.970   3.342 -0.4491  0.0246 -0.2579
   73MOL    H2623210   3.532   2.270   3.298 -0.3832  0.8367  1.5288
   73MOL    H2723211   3.466   2.139   3.400 -0.1452 -0.0867 -0.3112
   73MOL    H2823212   3.692   2.240   3.127  2.2243  1.8520  0.6279
   73MOL    H2923213   3.898   2.106   3.066 -1.0758  1.3679  0.5313
   73MOL    H3023214   3.986   1.879   3.046  0.0415  0.6374  0.3974
   73MOL    H3123215   3.954   1.749   3.153  0.2100 -0.0733  0.8061
   73MOL    H3223216   3.796   1.800   3.356 -1.3757 -0.5662 -1.2359
   73MOL    H3323217   3.593   1.929   3.418 -0.6279  1.6677  0.4897
   73MOL    C3423218   4.090   1.896   3.238 -0.2558  0.3218 -0.1039
   73MOL    C3523219   4.204   1.808   3.205 -0.3336 -0.4241 -0.1377
   73MOL    C3623220   4.277   1.833   3.089 -1.3485  0.0057 -0.0154
   73MOL    C3723221   4.396   1.762   3.062 -0.0543 -0.2144  0.1668
   73MOL    C3823222   4.438   1.655   3.148 -0.2793  0.3628  0.2014
   73MOL    C3923223   4.571   1.582   3.135  0.0776 -0.7503  0.0086
   73MOL    C4023224   4.355   1.624   3.259 -0.0613 -1.3393  0.0688
   73MOL    C4123225   4.247   1.707   3.295  0.0733 -0.7559 -0.0320
   73MOL    H4223226   4.076   1.877   3.344  0.0500 -0.9669 -0.2884
   73MOL    H4323227   4.114   2.001   3.218  1.0097 -0.1705 -1.2221
   73MOL    H4423228   4.244   1.900   3.011  2.8772  2.5341  0.2304
   73MOL    H4523229   4.454   1.782   2.973  0.4824  0.0687  0.5759
   73MOL    H4623230   4.561   1.476   3.159  2.4323 -1.0383 -0.1050
   73MOL    H4723231   4.596   1.571   3.029  0.0909 -0.2049 -0.0437
   73MOL    H4823232   4.383   1.550   3.333 -0.3374 -0.8072  0.7143
   73MOL    H4923233   4.194   1.695   3.389 -0.7641 -1.8396 -0.6273
   73MOL    C5023234   4.698   1.649   3.201 -0.1651 -0.4569 -0.1479
   73MOL    C5123235   4.828   1.578   3.173 -0.2933 -0.2921 -0.3818
   73MOL    C5223236   4.899   1.599   3.052 -0.1902  0.1375  0.2353
   73MOL    C5323237   5.013   1.524   3.024  0.7046  0.5360 -0.5203
   73MOL    C5423238   5.070   1.432   3.121 -0.1507 -0.0039  0.4469
   73MOL    C5523239   5.184   1.348   3.081 -0.5365  0.6865  0.0955
   73MOL    C5623240   4.996   1.411   3.240  0.6240  0.6587  0.8993
   73MOL    C5723241   4.880   1.481   3.266  0.3814 -0.0900  0.0724
   73MOL    H5823242   4.671   1.632   3.305 -2.0079  1.0780 -0.3412
   73MOL    H5923243   4.700   1.757   3.187  0.5130 -0.2745  1.2722
   73MOL    H6023244   4.868   1.674   2.980 -0.0377 -1.7320 -1.8298
   73MOL    H6123245   5.058   1.536   2.927 -1.2864  1.5058 -1.3347
   73MOL    H6223246   5.193   1.259   3.144  1.6023  0.0345 -1.0607
   73MOL    H6323247   5.172   1.304   2.981 -0.6036  0.1006  0.3601
   73MOL    H6423248   5.033   1.346   3.318  0.5843 -0.2708  0.1542
   73MOL    H6523249   4.847   1.477   3.368 -1.9584 -0.8192 -0.6918
   73MOL    C6623250   5.308   1.424   3.074 -0.0918  0.3096 -0.2861
   73MOL    C6723251   5.429   1.326   3.064  0.3179 -0.3084  0.1795
   73MOL    C6823252   5.490   1.302   2.942  0.3605  0.7434 -0.0907
   73MOL    C6923253   5.614   1.229   2.936 -0.5360 -0.1284 -0.3147
   73MOL    C7023254   5.666   1.167   3.049  0.5071 -0.4692  0.4191
   73MOL    C7123255   5.801   1.095   3.043  0.0537 -0.0351 -0.4896
   73MOL    C7223256   5.595   1.177   3.167  0.2108 -0.0220  0.1217
   73MOL    C7323257   5.477   1.254   3.175 -0.7689  0.1431  0.9145
   73MOL    H7423258   5.318   1.493   3.158  0.3719  1.5462 -1.3528
   73MOL    H7523259   5.315   1.496   2.993  2.0527 -0.4179 -0.7815
   73MOL    H7623260   5.448   1.332   2.846  1.9100  1.9249 -0.4245
   73MOL    H7723261   5.673   1.216   2.847  3.0300 -2.2683  2.2091
   73MOL    H7823262   5.779   1.012   2.976 -1.1814  0.0743 -0.2298
   73MOL    H7923263   5.820   1.049   3.141 -0.4195  0.4358 -0.1761
   73MOL    H8023264   5.621   1.136   3.263 -2.3241  0.8388  1.2170
   73MOL    H8123265   5.427   1.267   3.269 -2.6013  3.1468 -0.4133
   73MOL    C8223266   5.912   1.187   2.999  0.8127 -0.4806  0.0286
   73MOL    C8323267   6.049   1.118   2.988 -1.1139  0.1330  0.3043
   73MOL    C8423268   6.123   1.124   2.872  0.2849  0.2942 -0.1951
   73MOL    C8523269   6.248   1.059   2.860  0.1812  0.3127 -0.7334
   73MOL    C8623270   6.303   0.986   2.973  0.1591 -0.5062  0.2759
   73MOL    C8723271   6.422   0.893   2.961  0.8518 -0.3551  0.3178
   73MOL    C8823272   6.233   0.990   3.093  0.5945 -0.3972 -0.4657
   73MOL    C8923273   6.102   1.045   3.103 -0.5843 -0.7222 -0.2747
   73MOL    H9023274   5.927   1.264   3.075  0.4315  0.1995 -0.5740
   73MOL    H9123275   5.887   1.234   2.904  0.0328  0.6464  0.7821
   73MOL    H9223276   6.076   1.173   2.788 -0.7563  1.1492  0.8826
   73MOL    H9323277   6.305   1.064   2.768  0.1500 -1.4772 -0.8699
   73MOL    H9423278   6.422   0.842   2.865 -0.7320  1.1718 -0.4982
   73MOL    H9523279   6.408   0.818   3.039 -1.0122 -0.5230 -0.1594
   73MOL    H9623280   6.265   0.936   3.181  1.0787  2.1063  0.9362
   73MOL    H9723281   6.042   1.035   3.192 -0.4320  0.5344 -0.0265
   73MOL    C9823282   6.552   0.971   2.980 -0.4078 -0.0558 -0.6339
   73MOL    C9923283   6.684   0.894   2.965 -0.3390 -0.7647  0.2464
   73MOL   C10023284   6.724   0.811   3.073 -0.0049 -0.0652 -0.6164
   73MOL   C10123285   6.842   0.729   3.067  0.0008  0.5633 -0.6890
   73MOL   C10223286   6.923   0.739   2.954  0.2533  0.4431  0.2059
   73MOL   C10323287   7.045   0.651   2.945  0.1764 -0.3416 -0.3288
   73MOL   C10423288   6.891   0.825   2.851  0.5020 -0.8077 -0.3324
   73MOL   C10523289   6.773   0.904   2.857  0.2037 -0.3945  0.2930
   73MOL   H10623290   6.564   1.027   3.073  1.3298  1.9885 -2.0295
   73MOL   H10723291   6.564   1.035   2.892  2.7181 -0.2830 -0.4207
   73MOL   H10823292   6.659   0.811   3.159  0.5990  0.4095 -0.1432
   73MOL   H10923293   6.861   0.649   3.138 -0.0439 -0.0968 -1.4130
   73MOL   H11023294   7.013   0.554   2.984 -0.8411 -0.6356 -1.8547
   73MOL   H11123295   7.072   0.639   2.840  0.8415  0.4600 -0.2550
   73MOL   H11223296   6.949   0.827   2.760  0.9992  0.4707  0.0042
   73MOL   H11323297   6.757   0.965   2.770 -0.1474 -2.2096 -0.9444
   73MOL   C11423298   7.157   0.725   3.024  0.4105  0.1941  0.0446
   73MOL   C11523299   7.268   0.628   3.054  0.1785 -0.5772  0.1625
   73MOL   C11623300   7.373   0.619   2.968 -0.2850 -0.1441  0.1936
   73MOL   C11723301   7.480   0.530   2.979 -0.2926  0.2485  0.8137
   73MOL   C11823302   7.476   0.437   3.084 -0.3233  0.7509  0.2382
   73MOL   C11923303   7.597   0.354   3.121  0.0845  0.0691  0.2570
   73MOL   C12023304   7.366   0.445   3.179  0.7639 -0.7337  0.3684
   73MOL   C12123305   7.263   0.536   3.158 -0.4035 -1.1400  0.1219
   73MOL   H12223306   7.110   0.755   3.118  3.3984 -3.6467  2.9842
   73MOL   H12323307   7.187   0.816   2.973 -1.4758  0.1881 -1.1019
   73MOL   H12423308   7.376   0.688   2.886 -3.6752 -2.0413 -1.6178
   73MOL   H12523309   7.563   0.546   2.912 -1.0378 -0.9818 -0.4177
   73MOL   H12623310   7.602   0.352   3.230 -0.0349  0.0688  0.2630
   73MOL   H12723311   7.579   0.253   3.085 -1.1794 -0.1140  1.3349
   73MOL   H12823312   7.361   0.379   3.264  0.4385  1.3733  2.0232
   73MOL   H12923313   7.175   0.519   3.218 -0.0698 -0.8468  0.7039
   73MOL   C13023314   7.733   0.406   3.078 -0.0147  0.2615  0.0175
   73MOL   C13123315   7.855   0.324   3.122 -0.4330  0.7373 -0.3083
   73MOL   C13223316   7.866   0.251   3.242  0.3242  0.0886 -0.1935
   73MOL   C13323317   7.984   0.181   3.276  0.0767  0.0370 -0.1316
   73MOL   C13423318   8.102   0.201   3.202 -0.1896  0.1208  0.2169
   73MOL   C13523319   8.238   0.147   3.234  0.1195  0.3231  0.0568
   73MOL   C13623320   8.095   0.283   3.085  0.4012 -0.5917 -0.2756
   73MOL   C13723321   7.971   0.343   3.046 -0.1605 -0.3525  0.4518
   73MOL   H13823322   7.741   0.502   3.128  0.3045  0.2455 -0.0026
   73MOL   H13923323   7.746   0.430   2.972  1.9946  1.5538  0.5226
   73MOL   H14023324   7.774   0.221   3.292 -0.3303 -0.0341 -1.4464
   73MOL   H14123325   7.987   0.113   3.360 -0.8939 -0.7158 -0.7087
   73MOL   H14223326   8.236   0.040   3.255 -0.3354  0.2858 -0.1508
   73MOL   H14323327   8.305   0.162   3.149  1.1339 -1.3188  0.5569
   73MOL   H14423328   8.175   0.294   3.014  0.7976  0.6670  0.3556
   73MOL   H14523329   7.970   0.407   2.959 -1.8404 -0.3051  0.4870
   73MOL   C14623330   8.288   0.230   3.352 -0.0990  0.2477  0.2510
   73MOL   C14723331   8.420   0.176   3.407  0.1096  0.4223  0.2602
   73MOL   C14823332   8.406   0.059   3.479 -0.0654 -0.7057  0.4810
   73MOL   C14923333   8.521  -0.003   3.522 -0.1036 -0.1082  0.2228
   73MOL   C15023334   8.651   0.045   3.488  0.2642  0.1374 -0.1762
   73MOL   C15123335   8.781  -0.029   3.525  0.4381  0.3346  0.2046
   73MOL   C15223336   8.659   0.152   3.399 -0.2172  0.6735  0.2686
   73MOL   C15323337   8.541   0.214   3.356 -0.0862 -0.1620  0.5281
   73MOL   H15423338   8.209   0.238   3.427 -2.4187  3.1113 -2.3592
   73MOL   H15523339   8.302   0.334   3.322  2.3471 -0.3978 -0.9643
   73MOL   H15623340   8.312   0.007   3.489 -1.0002  0.9997  0.7632
   73MOL   H15723341   8.518  -0.094   3.582 -0.6521  0.2041  0.6680
   73MOL   H15823342   8.783  -0.130   3.484  1.9010  0.4630 -0.0767
   73MOL   H15923343   8.856   0.036   3.479  0.7880 -1.0243 -1.1784
   73MOL   H16023344   8.752   0.185   3.356  0.1520 -0.6731  0.0113
   73MOL   H16123345   8.551   0.283   3.274  0.2401  0.0954  0.7827
   73MOL   C16223346   8.803  -0.025   3.675  0.3394 -0.5061 -0.1928
   73MOL   C16323347   8.934  -0.089   3.711  0.3689 -0.2461 -0.4870
   73MOL   C16423348   8.933  -0.215   3.774 -0.4323  0.1932 -0.1802
   73MOL   C16523349   9.057  -0.281   3.809  0.6053 -0.3958  0.6719
   73MOL   C16623350   9.175  -0.221   3.771  0.0789 -0.0722 -0.0560
   73MOL   C16723351   9.305  -0.296   3.801  0.4092 -0.4290  0.3192
   73MOL   C16823352   9.182  -0.091   3.713  0.1876  0.4853  0.2455
   73MOL   C16923353   9.057  -0.019   3.688  0.1848 -0.3429 -0.1013
   73MOL   H17023354   8.714  -0.076   3.711 -0.9386  2.4750  1.0939
   73MOL   H17123355   8.797   0.081   3.702 -0.1457 -0.3699 -0.8258
   73MOL   H17223356   8.839  -0.252   3.813  0.4259 -1.6000  0.2481
   73MOL   H17323357   9.061  -0.374   3.864 -2.8690 -1.2280 -0.3855
   73MOL   H17423358   9.280  -0.402   3.794 -0.4804 -0.2399  0.5709
   73MOL   H17523359   9.375  -0.284   3.718  1.6116 -0.2630  1.3469
   73MOL   H17623360   9.276  -0.043   3.688  0.1699  0.0417 -0.6883
   73MOL   H17723361   9.054   0.071   3.629 -0.6804 -0.4668 -0.2515
   73MOL   C17823362   9.358  -0.257   3.940  0.4201 -0.3086 -0.4956
   73MOL   C17923363   9.499  -0.307   3.975 -0.8226  0.4887 -0.2311
   73MOL   C18023364   9.553  -0.431   3.925 -0.1502  0.1710 -0.5772
   73MOL   C18123365   9.690  -0.463   3.938  0.0125 -0.0621  0.2447
   73MOL   C18223366   9.775  -0.380   4.008  0.0980  0.1093 -0.7461
   73MOL   C18323367   9.928  -0.399   4.008 -0.6904 -0.1514 -0.1872
   73MOL   C18423368   9.725  -0.258   4.065  0.1307  0.5854  0.1912
   73MOL   C18523369   9.589  -0.224   4.045  0.5963  0.1689  0.1516
   73MOL   H18623370   9.291  -0.311   4.008  2.9124 -1.8415  0.8301
   73MOL   H18723371   9.349  -0.153   3.970  0.4660 -0.2070 -0.8433
   73MOL   H18823372   9.483  -0.500   3.881 -0.2316 -0.2004  0.1298
   73MOL   H18923373   9.728  -0.553   3.893 -0.1158 -0.5883  1.1778
   73MOL   H19023374   9.955  -0.456   3.919 -1.4723 -2.6904  1.1542
   73MOL   H19123375   9.969  -0.298   4.009 -1.1058  0.0097  0.5446
   73MOL   H19223376   9.791  -0.182   4.103 -0.9527  0.8473  1.5720
   73MOL   H19323377   9.556  -0.125   4.072 -1.3968 -1.2812  3.3819
   73MOL   C19423378   9.985  -0.466   4.132 -0.2636  0.1404  0.0892
   73MOL   C19523379  10.134  -0.490   4.115  0.2189 -0.0737 -0.3458
   73MOL   C19623380  10.231  -0.412   4.183  0.3585 -0.3428  0.6999
   73MOL   C19723381  10.368  -0.438   4.156  0.2785 -0.4843 -0.2258
   73MOL   C19823382  10.412  -0.541   4.069  0.0312 -0.1169  0.4787
   73MOL   C19923383  10.562  -0.565   4.048 -0.9645 -0.5347 -0.0304
   73MOL   C20023384  10.312  -0.612   3.998  0.1844  0.1735 -0.6690
   73MOL   C20123385  10.178  -0.593   4.025 -0.1488  0.0841  0.2243
   73MOL   H20223386   9.930  -0.561   4.132  1.1879 -0.7111  0.0091
   73MOL   H20323387   9.969  -0.413   4.225  0.4307  1.3638 -0.4799
   73MOL   H20423388  10.197  -0.329   4.244  1.1398 -1.8001  3.1840
   73MOL   H20523389  10.436  -0.372   4.207  3.1523 -1.9835 -1.9739
   73MOL   H20623390  10.585  -0.613   3.953  0.4216  0.7388 -0.3591
   73MOL   H20723391  10.610  -0.467   4.042  2.5351 -2.0710  1.4679
   73MOL   H20823392  10.341  -0.688   3.926 -0.2166  0.1189 -0.7723
   73MOL   H20923393  10.097  -0.649   3.981  1.4835 -2.1557 -0.0033
   73MOL   C21023394  10.643  -0.647   4.154 -0.3827  0.3473  0.1688
   73MOL   C21123395  10.660  -0.591   4.295 -0.2693 -0.5483 -0.2170
   73MOL   C21223396  10.549  -0.584   4.378  0.4525 -1.0155 -0.1634
   73MOL   C21323397  10.565  -0.536   4.509 -0.0209  0.1018  0.6480
   73MOL   C21423398  10.685  -0.496   4.557 -0.7175  0.8007  0.9905
   73MOL   C21523399  10.697  -0.432   4.694 -0.6368  0.2810 -0.7612
   73MOL   C21623400  10.797  -0.496   4.475  0.6602  0.0405 -0.5935
   73MOL   C21723401  10.784  -0.547   4.344  0.1360 -0.6146 -0.1164
   73MOL   H21823402  10.738  -0.678   4.110 -0.0241  1.1970  0.3442
   73MOL   H21923403  10.592  -0.743   4.153  2.3653 -1.2425  2.6834
   73MOL   H22023404  10.452  -0.608   4.335  0.1485  2.3495 -1.4843
   73MOL   H22123405  10.470  -0.512   4.553  1.1497  1.4484  2.4951
   73MOL   H22223406  10.639  -0.483   4.771 -0.4558 -0.8550 -1.3539
   73MOL   H22323407  10.798  -0.451   4.732 -1.4252 -2.4132  0.1668
   73MOL   H22423408  10.892  -0.450   4.499  0.8224 -1.3962  1.6346
   73MOL   H22523409  10.872  -0.559   4.282  0.5461 -0.5050  0.4353
   73MOL   C22623410  10.674  -0.286   4.687  0.6757  0.9600 -0.1190
   73MOL   C22723411  10.534  -0.233   4.645 -0.3657  0.5139  0.3631
   73MOL   C22823412  10.513  -0.156   4.527 -0.1035 -0.4887  1.0315
   73MOL   C22923413  10.378  -0.137   4.480 -0.1934  0.4581  0.2574
   73MOL   C23023414  10.272  -0.195   4.557  0.5985 -0.2058  0.0360
   73MOL   C23123415  10.124  -0.171   4.530  0.3492  0.1802  0.5974
   73MOL   C23223416  10.291  -0.275   4.667 -0.2187  0.5222 -0.0149
   73MOL   C23323417  10.425  -0.296   4.708  0.2689  0.5187  0.0689
   73MOL   H23423418  10.737  -0.242   4.609  0.8873  1.0527  0.1044
   73MOL   H23523419  10.708  -0.240   4.780  2.7358  1.9878 -1.3295
   73MOL   H23623420  10.597  -0.104   4.484 -0.5403 -0.5108  0.1477
   73MOL   H23723421  10.339  -0.086   4.393 -2.2742  1.9889  2.0478
   73MOL   H23823422  10.088  -0.195   4.430  0.1225 -0.1218  0.7515
   73MOL   H23923423  10.065  -0.226   4.603 -1.6638  1.2717 -0.1544
   73MOL   H24023424  10.217  -0.332   4.720  0.2739 -0.7980 -0.7402
   73MOL   H24123425  10.440  -0.360   4.794  0.0854  0.7682  0.2879
   73MOL   C24223426  10.095  -0.024   4.561  0.3850 -0.7894 -0.1185
   73MOL   C24323427   9.947   0.010   4.545  0.3566  0.0559 -0.2308
   73MOL   C24423428   9.845  -0.072   4.602 -0.9821 -0.5236 -0.5307
   73MOL   C24523429   9.709  -0.046   4.572  0.4489 -0.8308 -0.9461
   73MOL   C24623430   9.673   0.069   4.511 -0.0375 -0.4835  0.2864
   73MOL   C24723431   9.534   0.105   4.481 -0.0411  0.3006  0.1553
   73MOL   C24823432   9.770   0.158   4.459 -1.2771  0.3967 -0.3091
   73MOL   C24923433   9.910   0.128   4.479  0.7573 -0.3301  0.6843
   73MOL   H25023434  10.123  -0.010   4.665 -1.4488  1.2185  0.1455
   73MOL   H25123435  10.157   0.037   4.495  0.4643 -1.4740 -0.6867
   73MOL   H25223436   9.873  -0.158   4.661  2.2144  2.4769  2.4758
   73MOL   H25323437   9.630  -0.109   4.610 -0.5813  0.2952 -1.1602
   73MOL   H25423438   9.524   0.148   4.382 -1.4993  0.5344  0.4001
   73MOL   H25523439   9.468   0.018   4.482 -0.2461  0.4256  3.5134
   73MOL   H25623440   9.740   0.250   4.412 -1.2237  1.0156  0.8602
   73MOL   H25723441   9.985   0.203   4.458  3.2276 -2.3647  1.9052
   73MOL   C25823442   9.474   0.203   4.592 -0.1108  0.4544  0.6405
   73MOL   C25923443   9.324   0.211   4.594  0.2471  0.1415 -0.2084
   73MOL   C26023444   9.269   0.273   4.706  0.1670  0.0717 -0.1518
   73MOL   C26123445   9.126   0.283   4.712 -0.0411  0.0103 -0.1421
   73MOL   C26223446   9.049   0.228   4.613 -0.3713 -0.0801  0.1975
   73MOL   C26323447   8.898   0.240   4.612 -0.1507  0.1584 -0.5476
   73MOL   C26423448   9.108   0.163   4.502  0.3715  0.3557  0.7269
   73MOL   C26523449   9.249   0.158   4.487  0.3071  0.1587  0.6330
   73MOL   H26623450   9.528   0.296   4.578  0.2010 -0.1914 -2.7909
   73MOL   H26723451   9.509   0.166   4.689 -0.1491  0.6496  0.7275
   73MOL   H26823452   9.334   0.323   4.777  0.8894 -1.4799  0.2954
   73MOL   H26923453   9.076   0.322   4.800  1.7584  0.3202  0.7627
   73MOL   H27023454   8.842   0.188   4.534 -0.6836  0.3404 -0.2948
   73MOL   H27123455   8.875   0.185   4.703  1.7632  0.2753  0.0112
   73MOL   H27223456   9.068   0.095   4.428  0.0972  1.4919 -0.1817
   73MOL   H27323457   9.293   0.107   4.403  0.2101 -0.7391  1.1229
   73MOL   C27423458   8.857   0.391   4.648 -0.0276  0.4806  0.0991
   73MOL   C27523459   8.707   0.406   4.674 -0.1164  0.4648 -0.2168
   73MOL   C27623460   8.668   0.462   4.798  0.4276  0.5707 -0.4774
   73MOL   C27723461   8.535   0.457   4.838  0.0087 -0.3781  0.3678
   73MOL   C27823462   8.437   0.420   4.741  1.1527  0.2610 -0.1541
   73MOL   C27923463   8.291   0.426   4.777 -0.0533  0.3351  0.6141
   73MOL   C28023464   8.473   0.377   4.612 -0.2377 -0.8030 -0.4244
   73MOL   C28123465   8.612   0.373   4.574  0.7676 -0.4928 -0.1244
   73MOL   H28223466   8.909   0.435   4.733 -0.1468  3.0609 -1.1109
   73MOL   H28323467   8.878   0.469   4.576 -2.1697  0.4495 -0.6073
   73MOL   H28423468   8.740   0.501   4.868 -0.5337 -2.4469  2.3002
   73MOL   H28523469   8.491   0.488   4.931 -0.5961 -0.5016  0.1285
   73MOL   H28623470   8.239   0.351   4.718  0.8902  0.1787 -0.0340
   73MOL   H28723471   8.281   0.403   4.883  0.8874 -1.7618  0.2848
   73MOL   H28823472   8.395   0.344   4.544 -0.9318  1.6054 -0.8569
   73MOL   H28923473   8.635   0.328   4.479  0.0186  1.0336 -1.0474
   73MOL   C29023474   8.230   0.561   4.736 -0.8199 -0.1336  0.4170
   73MOL   C29123475   8.094   0.579   4.781 -0.1626  0.7290 -0.7176
   73MOL   C29223476   8.000   0.481   4.752  0.5967 -0.4970 -0.1272
   73MOL   C29323477   7.867   0.502   4.792 -0.0078 -0.6668  0.6000
   73MOL   C29423478   7.830   0.603   4.878 -0.0063  1.2033  0.4367
   73MOL   C29523479   7.689   0.611   4.939 -0.6133 -0.8627  0.3513
   73MOL   C29623480   7.929   0.694   4.925  0.0825  0.6648 -0.2027
   73MOL   C29723481   8.062   0.684   4.875  0.2065 -0.2912 -0.3420
   73MOL   H29823482   8.243   0.576   4.629 -0.9815 -0.8889  0.2896
   73MOL   H29923483   8.291   0.643   4.774  0.9246 -1.5508  0.7439
   73MOL   H30023484   8.019   0.396   4.689  0.1700  0.1778 -1.1931
   73MOL   H30123485   7.784   0.438   4.764 -0.8219  1.1493 -1.2958
   73MOL   H30223486   7.678   0.520   4.998  2.7044 -1.9085 -0.5006
   73MOL   H30323487   7.684   0.699   5.002 -2.9439 -0.5614 -0.2269
   73MOL   H30423488   7.905   0.765   5.002  2.3124 -0.2717  1.3839
   73MOL   H30523489   8.132   0.757   4.912 -2.2751  1.3960  1.1881
   73MOL   C30623490   7.580   0.627   4.829  0.2660 -0.3723  0.2238
   73MOL   C30723491   7.451   0.670   4.887 -0.2416  0.6189  0.3710
   73MOL   C30823492   7.414   0.628   5.019 -0.5842  0.7523 -0.8275
   73MOL   C30923493   7.295   0.671   5.077  0.0578 -0.1990  0.0841
   73MOL   C31023494   7.203   0.751   4.998  0.0625 -0.1827 -0.5048
   73MOL   C31123495   7.073   0.783   5.060  0.0282 -0.9933  0.9122
   73MOL   C31223496   7.227   0.769   4.863  0.6290 -0.9318 -0.0702
   73MOL   C31323497   7.358   0.743   4.814  0.0381 -0.4486  1.0418
   73MOL   H31423498   7.555   0.538   4.771 -0.9065 -0.6384  1.1049
   73MOL   H31523499   7.610   0.689   4.745 -0.2219  0.1731  0.4545
   73MOL   H31623500   7.479   0.576   5.088 -1.4588 -0.5263 -0.9564
   73MOL   H31723501   7.281   0.643   5.180 -3.8424  3.2106  0.5935
   73MOL   H31823502   6.998   0.710   5.029  1.1765 -0.9683 -2.0950
   73MOL   H31923503   7.062   0.792   5.168 -0.9930  0.2480  0.7142
   73MOL   H32023504   7.145   0.810   4.804  0.8543 -2.4096 -1.4343
   73MOL   H32123505   7.383   0.782   4.717 -2.5905 -1.1963  0.0207
   73MOL   H32223506   7.053   0.881   5.015 -0.3842 -1.3876  0.2301
   74MOL     C123507   6.362   7.833   1.624 -0.0309  0.5833 -0.8941
   74MOL     C223508   6.488   7.759   1.671 -0.5953  0.2716  0.8427
   74MOL     C323509   6.594   7.839   1.725  0.2636  0.1384 -0.2746
   74MOL     C423510   6.709   7.773   1.766  0.3979  0.0863  0.3721
   74MOL     C523511   6.727   7.634   1.755  0.7199  0.5587 -0.0519
   74MOL     C623512   6.859   7.562   1.778  0.5347  0.2330  0.2836
   74MOL     C723513   6.624   7.552   1.695  0.6190 -0.2442  0.1433
   74MOL     C823514   6.503   7.615   1.660  0.2106 -0.2419 -0.5419
   74MOL     H923515   6.274   7.773   1.602 -0.5940  0.9006  0.4634
   74MOL    H1023516   6.341   7.900   1.708 -0.6723  0.9531 -1.3416
   74MOL    H1123517   6.580   7.945   1.716  1.5635  0.4359  1.1328
   74MOL    H1223518   6.787   7.827   1.816  1.7122  0.3492 -1.8863
   74MOL    H1323519   6.874   7.459   1.747  0.4731  0.1780  0.4364
   74MOL    H1423520   6.933   7.623   1.727  1.2636 -1.6160 -0.9139
   74MOL    H1523521   6.640   7.445   1.691  1.9269 -0.0669  0.3547
   74MOL    H1623522   6.412   7.565   1.633 -0.7882  0.1166  2.0960
   74MOL    H1723523   6.383   7.878   1.527 -0.7953 -1.8941 -2.2628
   74MOL    C1823524   6.879   7.553   1.930 -0.5576  0.2435  0.0426
   74MOL    C1923525   7.005   7.470   1.969 -0.5239  0.3651 -1.1930
   74MOL    C2023526   7.139   7.513   1.945  0.7740 -0.7378  0.5946
   74MOL    C2123527   7.254   7.438   1.980 -0.1413  0.4429 -0.2785
   74MOL    C2223528   7.240   7.311   2.035 -0.1459  0.3624 -0.1828
   74MOL    C2323529   7.356   7.226   2.086 -0.5626  0.0640 -0.0178
   74MOL    C2423530   7.106   7.268   2.064  0.3419 -0.2971  0.1575
   74MOL    C2523531   6.993   7.345   2.034 -0.3047  0.0881 -0.2325
   74MOL    H2623532   6.869   7.649   1.979 -0.5149  1.0099 -1.4116
   74MOL    H2723533   6.798   7.491   1.969  1.1215 -2.9934 -1.3904
   74MOL    H2823534   7.149   7.613   1.904 -0.5089 -0.6309  0.5456
   74MOL    H2923535   7.354   7.478   1.968 -0.2517  1.4952  2.0707
   74MOL    H3023536   7.338   7.203   2.191 -0.0072 -2.5299 -0.4454
   74MOL    H3123537   7.442   7.292   2.085  0.4105 -1.1620  0.4034
   74MOL    H3223538   7.082   7.173   2.109 -0.6454  1.1106  2.6435
   74MOL    H3323539   6.895   7.306   2.056  0.1819  1.0383  4.0017
   74MOL    C3423540   7.386   7.106   1.998  1.1742  0.0815  0.3516
   74MOL    C3523541   7.524   7.045   2.005 -0.6693 -0.0034 -0.2965
   74MOL    C3623542   7.640   7.116   1.963  0.2460 -0.5151 -0.4273
   74MOL    C3723543   7.766   7.054   1.969  0.3094  0.0813 -0.2048
   74MOL    C3823544   7.783   6.921   2.005 -0.3318 -0.1997 -0.1064
   74MOL    C3923545   7.915   6.851   2.013 -0.2202 -0.3454  0.1968
   74MOL    C4023546   7.666   6.855   2.054  0.0785 -0.2157 -0.0163
   74MOL    C4123547   7.541   6.912   2.049  0.2015 -0.2841 -0.0417
   74MOL    H4223548   7.368   7.134   1.894 -0.9055  1.6269  1.0884
   74MOL    H4323549   7.319   7.021   2.011 -1.0591  1.5758 -1.0091
   74MOL    H4423550   7.625   7.219   1.934 -3.4400 -0.9717 -0.3914
   74MOL    H4523551   7.843   7.121   1.932 -0.2713  1.2198  0.5957
   74MOL    H4623552   7.927   6.806   2.111  0.3686 -2.2351 -0.7066
   74MOL    H4723553   7.934   6.782   1.930  3.2191 -0.6123  1.1278
   74MOL    H4823554   7.680   6.756   2.095 -0.2847 -0.1231  0.3337
   74MOL    H4923555   7.454   6.861   2.088 -0.6065  1.2990  0.2570
   74MOL    C5023556   8.040   6.947   2.009  0.0482  0.1452 -0.2779
   74MOL    C5123557   8.172   6.873   2.012  0.2118  0.5058  0.5354
   74MOL    C5223558   8.230   6.852   2.138  0.5777  0.5456  0.1851
   74MOL    C5323559   8.355   6.780   2.154 -0.1778  0.5628 -0.5286
   74MOL    C5423560   8.418   6.731   2.039  0.4303  0.3237  0.1273
   74MOL    C5523561   8.540   6.644   2.041  0.8913  0.2962 -0.0304
   74MOL    C5623562   8.352   6.747   1.913 -0.5907 -0.7406  0.5293
   74MOL    C5723563   8.226   6.814   1.899 -1.1985 -0.6895  0.0107
   74MOL    H5823564   8.033   7.024   2.086 -0.8492  0.9184 -1.1274
   74MOL    H5923565   8.053   7.012   1.922  0.4571  2.7725  1.7033
   74MOL    H6023566   8.179   6.881   2.228  0.5594  0.1906  0.2904
   74MOL    H6123567   8.395   6.769   2.254 -0.1225  0.1588 -0.5945
   74MOL    H6223568   8.519   6.568   2.116 -1.6135  1.4861  0.5259
   74MOL    H6323569   8.547   6.585   1.950  1.9557 -0.7079  0.6829
   74MOL    H6423570   8.392   6.701   1.824  1.0984 -1.3279  1.5552
   74MOL    H6523571   8.187   6.829   1.800  0.2997  0.2638 -0.4558
   74MOL    C6623572   8.657   6.733   2.083 -0.5294 -0.1858  0.6840
   74MOL    C6723573   8.786   6.665   2.067 -0.2101  0.4808  0.9084
   74MOL    C6823574   8.867   6.652   2.181 -0.5643  0.4727  0.9288
   74MOL    C6923575   8.991   6.582   2.169 -0.0904  0.5422 -0.2670
   74MOL    C7023576   9.029   6.514   2.048  0.1980 -0.4197  0.7020
   74MOL    C7123577   9.155   6.437   2.043 -0.7557 -0.0749  0.2154
   74MOL    C7223578   8.950   6.531   1.935 -0.1914 -0.4495 -0.6343
   74MOL    C7323579   8.826   6.600   1.944  0.1351  0.7765  0.4424
   74MOL    H7423580   8.645   6.773   2.184 -2.7063 -1.3429  0.9227
   74MOL    H7523581   8.678   6.819   2.019  1.6640  0.0578  1.6910
   74MOL    H7623582   8.842   6.700   2.274 -3.3971  3.3086 -1.1769
   74MOL    H7723583   9.047   6.575   2.261 -1.9732 -1.1691  0.7967
   74MOL    H7823584   9.185   6.413   2.145  0.5470 -0.0361 -0.1577
   74MOL    H7923585   9.230   6.496   1.990 -0.0009  0.1143  1.4883
   74MOL    H8023586   8.970   6.473   1.846  2.3784  3.2996 -2.6437
   74MOL    H8123587   8.762   6.602   1.857  1.0288 -0.2657 -0.2539
   74MOL    C8223588   9.122   6.295   1.980  0.0244 -0.1385  1.0206
   74MOL    C8323589   9.228   6.188   1.989 -0.3000  0.2479 -0.2643
   74MOL    C8423590   9.233   6.112   2.107 -0.2578  0.1620 -0.3504
   74MOL    C8523591   9.321   6.003   2.112 -0.0091 -0.3323  0.2868
   74MOL    C8623592   9.412   5.973   2.008 -0.6473 -0.0868  0.4954
   74MOL    C8723593   9.502   5.851   2.019  0.1745 -0.2904  0.0978
   74MOL    C8823594   9.406   6.051   1.888 -0.1619  0.0671  0.5097
   74MOL    C8923595   9.316   6.159   1.882  0.0414 -0.0829  0.0722
   74MOL    H9023596   9.088   6.301   1.876 -2.3051  1.1274  1.8220
   74MOL    H9123597   9.028   6.261   2.022 -0.4744  1.6738  1.4170
   74MOL    H9223598   9.169   6.135   2.191  1.6169  1.0912  0.8516
   74MOL    H9323599   9.327   5.936   2.197 -0.5279 -1.5070 -0.5820
   74MOL    H9423600   9.521   5.798   1.926  0.8217  0.3258 -0.1204
   74MOL    H9523601   9.447   5.777   2.078 -0.3505  0.8969  1.0988
   74MOL    H9623602   9.463   6.019   1.801  0.1784  0.4119  0.6032
   74MOL    H9723603   9.304   6.215   1.790  1.4645 -0.2650 -0.2357
   74MOL    C9823604   9.633   5.876   2.091 -0.1689 -1.0190  0.2034
   74MOL    C9923605   9.729   5.759   2.060 -0.0707  0.5076 -0.8116
   74MOL   C10023606   9.808   5.758   1.944  0.5687  0.1645  0.0036
   74MOL   C10123607   9.905   5.665   1.918  0.5898 -0.5823  0.7017
   74MOL   C10223608   9.921   5.549   2.006  0.7717  0.6129  0.3678
   74MOL   C10323609  10.027   5.451   1.994 -0.0324 -0.9355  0.0391
   74MOL   C10423610   9.838   5.545   2.122  0.0208  0.1852 -0.1150
   74MOL   C10523611   9.742   5.646   2.150 -0.0351 -0.6899 -0.2198
   74MOL   H10623612   9.621   5.887   2.199  0.2723  3.8479 -0.1542
   74MOL   H10723613   9.680   5.966   2.051 -0.7378 -1.0219 -0.4804
   74MOL   H10823614   9.810   5.845   1.879  2.2685 -0.2589 -0.5249
   74MOL   H10923615   9.968   5.675   1.831  0.6601 -0.2603  0.7878
   74MOL   H11023616   9.994   5.348   2.001  1.3909 -1.3718  0.4694
   74MOL   H11123617  10.065   5.483   1.897  0.6925 -0.5797  0.4342
   74MOL   H11223618   9.834   5.453   2.179 -0.5656 -0.9268 -1.9268
   74MOL   H11323619   9.674   5.619   2.229 -0.4701 -0.4444 -0.5101
   74MOL   C11423620  10.155   5.480   2.089 -0.0728 -0.1341  0.6004
   74MOL   C11523621  10.263   5.378   2.064  0.3690  0.2194 -0.2198
   74MOL   C11623622  10.372   5.410   1.977 -0.4078 -0.2954 -0.0010
   74MOL   C11723623  10.484   5.326   1.959 -0.6714 -0.1547 -0.2839
   74MOL   C11823624  10.471   5.200   2.018 -0.2772 -0.4985  0.0189
   74MOL   C11923625  10.593   5.110   2.009 -0.7074 -0.3220 -0.8491
   74MOL   C12023626  10.359   5.156   2.095 -0.3041 -0.0714 -0.2315
   74MOL   C12123627  10.253   5.246   2.120 -0.0309 -0.2297 -0.6764
   74MOL   H12223628  10.111   5.470   2.188  0.2831 -1.2105  0.6582
   74MOL   H12323629  10.203   5.577   2.073 -0.2301  0.0104  1.0160
   74MOL   H12423630  10.380   5.507   1.930  0.6625  0.2886  1.3505
   74MOL   H12523631  10.565   5.370   1.903 -1.4180  0.7890 -0.6474
   74MOL   H12623632  10.569   5.008   2.038  1.0782 -0.0186  1.8636
   74MOL   H12723633  10.629   5.110   1.906  0.5603 -0.9126 -0.4126
   74MOL   H12823634  10.362   5.059   2.141 -0.4001 -0.0256 -0.1290
   74MOL   H12923635  10.169   5.222   2.185 -0.4551  0.5279 -0.9367
   74MOL   C13023636  10.714   5.148   2.095 -0.1607 -0.3972  0.2051
   74MOL   C13123637  10.836   5.061   2.095  0.2166  0.3219 -0.2597
   74MOL   C13223638  10.843   4.937   2.166  0.0315  0.2942  0.9685
   74MOL   C13323639  10.962   4.871   2.183 -0.5857  0.8968  0.2971
   74MOL   C13423640  11.072   4.906   2.102  0.0018 -0.3488 -0.5053
   74MOL   C13523641  11.203   4.826   2.102  0.2219  0.1658 -0.2324
   74MOL   C13623642  11.071   5.024   2.027  0.2881  0.5102 -0.4978
   74MOL   C13723643  10.956   5.104   2.035  0.6442  0.4325 -0.3449
   74MOL   H13823644  10.679   5.145   2.199 -0.5095 -0.0651  0.1012
   74MOL   H13923645  10.732   5.252   2.069 -0.3215 -0.2633  0.6129
   74MOL   H14023646  10.752   4.897   2.207  0.9652 -0.9612  1.8172
   74MOL   H14123647  10.960   4.781   2.243  1.6706 -0.1539 -1.1145
   74MOL   H14223648  11.178   4.724   2.131  0.2580  0.3926  0.6056
   74MOL   H14323649  11.244   4.815   2.001  0.6732 -0.9191  0.0624
   74MOL   H14423650  11.166   5.051   1.984  0.4244  0.6804 -0.0963
   74MOL   H14523651  10.955   5.194   1.976 -0.6729 -0.6308 -1.9867
   74MOL   C14623652  11.309   4.877   2.200 -0.4077  0.0781 -0.0004
   74MOL   C14723653  11.435   4.790   2.183 -0.3606 -0.0819  0.5764
   74MOL   C14823654  11.452   4.667   2.246  0.1211  0.3169  0.4764
   74MOL   C14923655  11.574   4.596   2.242  0.1189 -0.0609 -0.1175
   74MOL   C15023656  11.678   4.648   2.168  0.0965 -0.2462 -0.1245
   74MOL   C15123657  11.811   4.572   2.159  0.9767  0.0652 -0.2445
   74MOL   C15223658  11.670   4.772   2.106  0.7468  0.3298 -0.0459
   74MOL   C15323659  11.547   4.848   2.120 -0.6780 -0.3554 -0.1801
   74MOL   H15423660  11.270   4.862   2.301  2.0104  1.3671  1.1765
   74MOL   H15523661  11.344   4.978   2.180 -1.6668  0.6475  0.6113
   74MOL   H15623662  11.369   4.617   2.294 -0.5570 -0.3702 -1.3844
   74MOL   H15723663  11.571   4.500   2.290  0.5033 -0.1424 -0.2578
   74MOL   H15823664  11.794   4.470   2.195 -2.1472  0.1094 -1.4651
   74MOL   H15923665  11.865   4.565   2.065 -1.3669 -1.5958 -1.5002
   74MOL   H16023666  11.751   4.812   2.046  1.9934 -0.1671  1.2933
   74MOL   H16123667  11.540   4.941   2.065 -1.8056  0.9807  2.1381
   74MOL   C16223668  11.913   4.632   2.245 -0.7978  0.2505 -0.6612
   74MOL   C16323669  12.046   4.558   2.242  0.0579  0.0784  0.6797
   74MOL   C16423670  12.064   4.422   2.292 -0.3613 -0.5392 -0.1481
   74MOL   C16523671  12.186   4.357   2.287 -0.1567  0.5204  0.9003
   74MOL   C16623672  12.298   4.427   2.247  0.2263  0.3451 -0.3549
   74MOL   C16723673  12.432   4.352   2.253 -0.0664 -0.7884 -0.2379
   74MOL   C16823674  12.289   4.561   2.208 -0.2121  0.6595 -0.2201
   74MOL   C16923675  12.166   4.627   2.205  0.4332  0.2626 -0.2377
   74MOL   H17023676  11.885   4.658   2.347 -0.0108 -0.8195 -0.1536
   74MOL   H17123677  11.932   4.726   2.195 -2.3929  0.8926 -0.0705
   74MOL   H17223678  11.985   4.365   2.340 -0.8380  0.5254  0.3658
   74MOL   H17323679  12.200   4.254   2.314  0.0080  0.5624  0.9780
   74MOL   H17423680  12.415   4.248   2.227 -0.1827 -1.2174  1.4742
   74MOL   H17523681  12.498   4.403   2.184  1.2886 -0.6801  1.1151
   74MOL   H17623682  12.384   4.608   2.184  1.4036 -2.8751 -1.1186
   74MOL   H17723683  12.164   4.728   2.168  0.1427  0.6900  0.9363
   74MOL   C17823684  12.496   4.335   2.394 -0.5043 -0.3443  0.1812
   74MOL   C17923685  12.625   4.255   2.388 -0.0950  0.0930 -0.1487
   74MOL   C18023686  12.746   4.318   2.365 -0.0755 -0.2394 -0.2202
   74MOL   C18123687  12.863   4.245   2.381 -1.0116 -0.0305 -0.4686
   74MOL   C18223688  12.862   4.113   2.420  0.3867  0.1085 -0.6828
   74MOL   C18323689  12.994   4.037   2.436  0.3304 -1.1752  0.4834
   74MOL   C18423690  12.741   4.053   2.446 -0.3708  0.1549 -0.2915
   74MOL   C18523691  12.619   4.127   2.442 -0.1710  0.5524 -0.4548
   74MOL   H18623692  12.418   4.286   2.452 -0.0265 -0.6453  0.5847
   74MOL   H18723693  12.521   4.428   2.444  0.5931 -0.2853 -0.4628
   74MOL   H18823694  12.767   4.419   2.331  1.8043 -0.5095  0.0955
   74MOL   H18923695  12.960   4.286   2.355 -1.2685  0.6284 -0.3864
   74MOL   H19023696  12.970   3.932   2.420  1.0351 -1.4625  1.2436
   74MOL   H19123697  13.072   4.062   2.366 -1.4515 -0.6493 -1.3612
   74MOL   H19223698  12.745   3.947   2.468  2.7894  0.5181  1.1621
   74MOL   H19323699  12.526   4.081   2.472  0.0089  1.5056  1.7420
   74MOL   C19423700  13.048   4.065   2.581  0.0208 -0.5735  0.5067
   74MOL   C19523701  13.174   3.977   2.613 -0.1897 -0.4039  0.1661
   74MOL   C19623702  13.301   4.032   2.641 -0.2682 -0.3830  0.0899
   74MOL   C19723703  13.417   3.952   2.660  0.3142 -0.5872  0.0733
   74MOL   C19823704  13.409   3.816   2.647  0.6835  0.3186 -0.0240
   74MOL   C19923705  13.539   3.737   2.671  0.5613  0.1412 -0.3130
   74MOL   C20023706  13.285   3.757   2.613  0.4464  0.5280 -0.6681
   74MOL   C20123707  13.168   3.836   2.602  0.4737 -0.0468  0.3347
   74MOL   H20223708  12.966   4.037   2.647 -1.3368  1.3618 -0.3191
   74MOL   H20323709  13.084   4.165   2.607 -2.4611  0.6838 -0.8239
   74MOL   H20423710  13.314   4.140   2.639  0.5397 -0.4895 -0.7428
   74MOL   H20523711  13.513   3.996   2.684  0.9279 -2.0077  0.2696
   74MOL   H20623712  13.627   3.797   2.646  1.9052 -2.1645 -1.2376
   74MOL   H20723713  13.536   3.743   2.780  0.9405 -1.2374 -0.2266
   74MOL   H20823714  13.271   3.650   2.601 -1.6178  0.9865 -2.6436
   74MOL   H20923715  13.075   3.785   2.582  1.4919 -2.5931  1.8349
   74MOL   C21023716  13.542   3.600   2.611 -0.3455 -0.2599 -0.4457
   74MOL   C21123717  13.678   3.534   2.626 -0.1274 -0.0916  0.1973
   74MOL   C21223718  13.792   3.600   2.576 -0.6240  0.2929  0.2801
   74MOL   C21323719  13.915   3.535   2.574  0.3644 -0.1768  0.3846
   74MOL   C21423720  13.924   3.405   2.627  0.2564 -0.6953 -0.1816
   74MOL   C21523721  14.062   3.352   2.646  0.0951 -0.1514  0.1762
   74MOL   C21623722  13.807   3.338   2.680 -0.6709  0.6490  0.3115
   74MOL   C21723723  13.687   3.402   2.686 -1.0259 -0.9612 -0.2000
   74MOL   H21823724  13.521   3.600   2.504  1.4280  1.6628 -0.8071
   74MOL   H21923725  13.462   3.551   2.668 -2.0227 -0.5013 -2.9318
   74MOL   H22023726  13.778   3.697   2.530  0.3030  0.3749  0.1704
   74MOL   H22123727  14.009   3.575   2.538  2.0908 -2.1527  2.5650
   74MOL   H22223728  14.058   3.249   2.683  0.6152 -0.1382  0.2586
   74MOL   H22323729  14.111   3.344   2.549  0.0298 -0.1689  0.1441
   74MOL   H22423730  13.814   3.241   2.728  0.3488  0.4737 -0.1787
   74MOL   H22523731  13.598   3.349   2.714 -2.0352  0.4950 -0.5644
   74MOL   C22623732  14.149   3.423   2.752  0.2841  0.1370 -0.2596
   74MOL   C22723733  14.290   3.355   2.761  0.6003 -0.6971  0.3968
   74MOL   C22823734  14.305   3.234   2.831  0.2821  1.1206  0.6151
   74MOL   C22923735  14.432   3.173   2.850 -1.1261  0.3656  0.1183
   74MOL   C23023736  14.547   3.249   2.811 -0.1609 -0.2676 -0.3352
   74MOL   C23123737  14.684   3.181   2.830 -0.6082  0.5386 -0.5131
   74MOL   C23223738  14.530   3.368   2.735 -0.3125  0.2112  0.5550
   74MOL   C23323739  14.403   3.419   2.700  0.0934  0.0323 -0.5206
   74MOL   H23423740  14.090   3.425   2.845 -1.4067  0.3686 -1.3088
   74MOL   H23523741  14.153   3.526   2.717  2.3343  0.3226  0.4541
   74MOL   H23623742  14.221   3.174   2.863  0.6003  0.5900  0.4589
   74MOL   H23723743  14.443   3.080   2.903 -0.9462  1.9428  2.9257
   74MOL   H23823744  14.673   3.074   2.812 -0.8575  0.3814  0.5397
   74MOL   H23923745  14.751   3.216   2.752  0.2326  0.1616  0.0305
   74MOL   H24023746  14.613   3.423   2.694 -0.5714  0.5966  0.5472
   74MOL   H24123747  14.392   3.515   2.651 -2.0410 -0.1545 -0.4577
   74MOL   C24223748  14.753   3.205   2.965 -0.4822  0.5057 -0.1461
   74MOL   C24323749  14.903   3.163   2.961 -0.5244  0.1885 -0.3826
   74MOL   C24423750  15.000   3.266   2.947  0.2152  0.7692 -0.4519
   74MOL   C24523751  15.137   3.237   2.957  0.1646  0.7487  0.0904
   74MOL   C24623752  15.182   3.103   2.990  0.0324  0.3017 -0.2284
   74MOL   C24723753  15.330   3.065   3.003  0.0563  0.1298 -0.3577
   74MOL   C24823754  15.084   3.006   3.008  0.1472 -0.0347 -0.2650
   74MOL   C24923755  14.946   3.033   2.995  0.3033  0.8270 -0.1590
   74MOL   H25023756  14.739   3.307   3.000  1.8243 -0.7018  4.6639
   74MOL   H25123757  14.699   3.149   3.041  1.3617  1.3062  1.8093
   74MOL   H25223758  14.973   3.365   2.913  0.1318  0.7246 -0.5157
   74MOL   H25323759  15.202   3.323   2.955 -0.4451  1.2474  1.1181
   74MOL   H25423760  15.345   2.963   2.967 -1.4276 -0.2191 -0.0058
   74MOL   H25523761  15.394   3.122   2.935  0.7650  3.3321  2.8641
   74MOL   H25623762  15.109   2.910   3.051  0.2144  1.1444  2.4731
   74MOL   H25723763  14.876   2.959   3.031 -0.6807  2.8498  2.2235
   74MOL   C25823764  15.368   3.089   3.152 -0.0260 -0.0541  0.1034
   74MOL   C25923765  15.519   3.047   3.180  0.0859  0.1052 -0.0226
   74MOL   C26023766  15.545   2.923   3.245  0.6320  0.1670 -0.0434
   74MOL   C26123767  15.683   2.894   3.269 -0.0043 -0.4758  0.4473
   74MOL   C26223768  15.789   2.987   3.234 -0.3895 -0.1043  0.3327
   74MOL   C26323769  15.930   2.957   3.268  0.4615 -0.1502  0.0059
   74MOL   C26423770  15.749   3.109   3.169  0.0116 -0.1823 -1.0081
   74MOL   C26523771  15.619   3.132   3.137 -0.9743 -0.0211 -0.0156
   74MOL   H26623772  15.308   3.023   3.215  0.1242  0.3560  0.6779
   74MOL   H26723773  15.344   3.192   3.176 -2.2354 -0.0560 -1.8461
   74MOL   H26823774  15.470   2.851   3.273 -0.3938  0.8098 -1.1203
   74MOL   H26923775  15.700   2.799   3.317  2.7103 -0.9168 -1.2718
   74MOL   H27023776  15.937   2.849   3.255  2.1219  0.0737 -1.1595
   74MOL   H27123777  15.998   3.004   3.196  0.5572  0.1609  0.2964
   74MOL   H27223778  15.823   3.188   3.161  2.5149 -2.3105  0.2595
   74MOL   H27323779  15.590   3.227   3.094 -0.9829  0.9646  2.0955
   74MOL   C27423780  15.968   2.996   3.409 -0.4104 -0.2620  0.4039
   74MOL   C27523781  16.115   2.961   3.438  0.6588 -0.1287 -0.0887
   74MOL   C27623782  16.212   3.043   3.378  0.5744  0.1568 -0.2438
   74MOL   C27723783  16.347   3.012   3.384 -1.2225  0.6920 -0.3560
   74MOL   C27823784  16.386   2.893   3.455 -0.6700  0.0044  0.0765
   74MOL   C27923785  16.532   2.850   3.467  0.2243 -0.7443 -0.0393
   74MOL   C28023786  16.291   2.811   3.513 -0.4458 -0.5226 -0.3875
   74MOL   C28123787  16.153   2.838   3.496  0.3942  0.3346  0.0601
   74MOL   H28223788  15.948   3.103   3.413  0.6008 -0.1317  2.1709
   74MOL   H28323789  15.904   2.950   3.484  0.5132 -2.6152 -0.2057
   74MOL   H28423790  16.170   3.119   3.313 -1.4243 -0.6064  0.1027
   74MOL   H28523791  16.416   3.064   3.318  0.3279  0.1529  0.8053
   74MOL   H28623792  16.541   2.747   3.431 -0.3206 -1.1889  1.0470
   74MOL   H28723793  16.598   2.916   3.410  0.2273 -2.4330 -2.0573
   74MOL   H28823794  16.321   2.718   3.559  0.5147  0.3189  0.7237
   74MOL   H28923795  16.081   2.779   3.550  1.7008  0.0937  1.5568
   74MOL   C29023796  16.577   2.847   3.612  0.0548 -0.8711 -0.1876
   74MOL   C29123797  16.725   2.801   3.625 -0.1039  0.1441 -0.5414
   74MOL   C29223798  16.734   2.673   3.681  0.0569 -0.4924  0.0968
   74MOL   C29323799  16.862   2.614   3.695 -0.5653  0.2834 -0.2750
   74MOL   C29423800  16.975   2.692   3.662  0.6100 -0.0421  0.2191
   74MOL   C29523801  17.109   2.634   3.687  0.8652 -0.7973  0.3304
   74MOL   C29623802  16.963   2.827   3.612 -0.8040  0.2275 -0.4007
   74MOL   C29723803  16.837   2.877   3.586  0.4240 -0.1683  0.0436
   74MOL   H29823804  16.514   2.788   3.678  1.0463 -0.6052  1.0168
   74MOL   H29923805  16.580   2.951   3.644  0.9888 -1.5859  2.1357
   74MOL   H30023806  16.643   2.623   3.707  0.1193  0.0879  1.4547
   74MOL   H30123807  16.866   2.512   3.730 -4.1309 -0.9031 -2.9705
   74MOL   H30223808  17.170   2.724   3.695 -1.3513  0.8102 -0.1631
   74MOL   H30323809  17.103   2.588   3.785 -0.2572 -0.6572  0.3420
   74MOL   H30423810  17.049   2.889   3.595  1.2422 -2.1229  1.0735
   74MOL   H30523811  16.820   2.974   3.542  1.3545 -0.1037 -0.1775
   74MOL   C30623812  17.155   2.537   3.578  0.0556 -0.2123  0.1168
   74MOL   C30723813  17.288   2.473   3.592 -0.1633 -0.0082 -0.8466
   74MOL   C30823814  17.389   2.517   3.501 -0.3058  0.7870 -0.0493
   74MOL   C30923815  17.515   2.455   3.507 -0.1469  0.4540 -0.0540
   74MOL   C31023816  17.537   2.346   3.596  0.6932  0.3333  0.9762
   74MOL   C31123817  17.674   2.276   3.611  1.1612 -0.0323 -0.4362
   74MOL   C31223818  17.433   2.305   3.685 -0.2183 -0.4261 -0.2295
   74MOL   C31323819  17.310   2.374   3.693 -1.1739  0.2727  0.4107
   74MOL   H31423820  17.152   2.565   3.473 -0.3281 -1.1191 -0.1238
   74MOL   H31523821  17.081   2.457   3.580  0.0138 -0.1636  0.4622
   74MOL   H31623822  17.369   2.607   3.445 -1.3266 -0.9684 -2.6178
   74MOL   H31723823  17.602   2.491   3.454 -1.9647  1.7575 -2.2384
   74MOL   H31823824  17.702   2.297   3.714  0.6664  1.0746 -0.5163
   74MOL   H31923825  17.661   2.168   3.612 -0.2447  0.1072  2.2701
   74MOL   H32023826  17.438   2.217   3.747  3.2999  1.9816  3.0920
   74MOL   H32123827  17.243   2.348   3.774 -1.7980 -0.3320 -0.3026
   74MOL   H32223828  17.749   2.317   3.543 -0.6141  4.7868  0.3082
   75MOL     C123829   6.992   6.080   7.447 -0.4072 -0.5384  0.3185
   75MOL     C223830   6.854   6.093   7.522 -0.0938 -0.2345  0.3594
   75MOL     C323831   6.765   5.989   7.510 -0.2365  0.0978  0.4085
   75MOL     C423832   6.629   6.007   7.553 -0.3898  0.0881 -0.2407
   75MOL     C523833   6.600   6.130   7.614  0.3377 -0.2197  0.7777
   75MOL     C623834   6.455   6.159   7.660 -0.4408  0.4507 -0.4717
   75MOL     C723835   6.694   6.236   7.626 -0.2900 -0.3976 -0.1643
   75MOL     C823836   6.828   6.215   7.583  0.9222 -0.0816 -0.4176
   75MOL     H923837   6.997   6.137   7.354 -1.3500  0.2924  0.7638
   75MOL    H1023838   7.074   6.102   7.515  0.9088 -1.0824 -1.0756
   75MOL    H1123839   6.791   5.903   7.451 -1.0084  0.1619 -0.0293
   75MOL    H1223840   6.562   5.923   7.557 -1.0648  0.6769  1.1173
   75MOL    H1323841   6.423   6.067   7.710  1.2845 -1.6367 -3.0628
   75MOL    H1423842   6.448   6.235   7.738 -0.3523  0.0993 -0.1169
   75MOL    H1523843   6.675   6.330   7.675  2.7256 -0.7758  1.8382
   75MOL    H1623844   6.894   6.299   7.577 -0.0226  0.6538 -0.5997
   75MOL    H1723845   7.005   5.978   7.411  0.5444 -0.7247  1.1583
   75MOL    C1823846   6.359   6.177   7.545  0.4780 -0.4908  0.4996
   75MOL    C1923847   6.209   6.189   7.569  0.0566  0.4079 -0.1971
   75MOL    C2023848   6.145   6.317   7.567 -1.0674 -0.8597 -0.6864
   75MOL    C2123849   6.009   6.322   7.600 -0.3652 -0.0170 -1.1547
   75MOL    C2223850   5.939   6.206   7.633  0.5972 -0.5969  0.7458
   75MOL    C2323851   5.787   6.222   7.649 -0.1240 -0.1624 -0.2214
   75MOL    C2423852   5.995   6.074   7.615 -0.4284 -0.2927  0.6817
   75MOL    C2523853   6.133   6.068   7.579  0.2117  0.1938 -0.3572
   75MOL    H2623854   6.388   6.267   7.492 -1.9263  0.4521  0.7197
   75MOL    H2723855   6.373   6.099   7.470  0.8395 -0.3654  0.4389
   75MOL    H2823856   6.193   6.413   7.555 -0.8564 -1.0282 -1.2069
   75MOL    H2923857   5.960   6.418   7.593  0.8063  0.8752  1.7466
   75MOL    H3023858   5.737   6.125   7.651  0.2895 -0.3835 -0.6817
   75MOL    H3123859   5.747   6.261   7.556  1.7656  0.3953 -0.8196
   75MOL    H3223860   5.940   5.981   7.622 -0.0631 -0.5268  0.4316
   75MOL    H3323861   6.177   5.971   7.560 -1.8715 -0.8717  0.1662
   75MOL    C3423862   5.759   6.308   7.766 -0.1910  0.3482 -0.6073
   75MOL    C3523863   5.610   6.289   7.798  0.3197  0.2938  0.0787
   75MOL    C3623864   5.507   6.376   7.754 -0.4503  0.4382 -0.1532
   75MOL    C3723865   5.368   6.348   7.788 -0.0212  0.4679  0.3897
   75MOL    C3823866   5.340   6.240   7.876  0.7367  0.2943  0.4865
   75MOL    C3923867   5.198   6.221   7.919 -0.2512  0.1261  0.2933
   75MOL    C4023868   5.446   6.158   7.922  0.3639  0.2279  1.2439
   75MOL    C4123869   5.577   6.179   7.882 -0.2040 -0.4154  0.1044
   75MOL    H4223870   5.766   6.414   7.742  1.0410  0.8150  1.6722
   75MOL    H4323871   5.826   6.279   7.847  1.0130  1.3345 -1.2545
   75MOL    H4423872   5.528   6.462   7.692  0.3833  1.0796  1.0054
   75MOL    H4523873   5.293   6.413   7.747 -1.4293 -0.2598  1.7548
   75MOL    H4623874   5.131   6.271   7.849  1.0455 -1.0490 -1.8269
   75MOL    H4723875   5.173   6.116   7.900 -1.8288  0.7015 -0.9722
   75MOL    H4823876   5.432   6.078   7.993  1.4689  0.4391  1.7169
   75MOL    H4923877   5.645   6.101   7.916 -1.0118 -1.4681 -0.6765
   75MOL    C5023878   5.171   6.264   8.068 -0.6804  0.1031 -0.5723
   75MOL    C5123879   5.030   6.252   8.107  0.0209 -0.0853 -0.1197
   75MOL    C5223880   4.950   6.361   8.127  0.3120 -0.7969 -0.4544
   75MOL    C5323881   4.813   6.338   8.151 -0.3681  0.2200 -1.3854
   75MOL    C5423882   4.755   6.211   8.167  0.1407 -0.0718  0.3597
   75MOL    C5523883   4.603   6.193   8.200  0.2124 -0.3367 -0.8620
   75MOL    C5623884   4.843   6.095   8.152 -0.1446 -0.1044  0.1085
   75MOL    C5723885   4.980   6.121   8.130 -0.7743 -0.0218 -0.3718
   75MOL    H5823886   5.213   6.364   8.074  0.1166 -0.3735  3.6975
   75MOL    H5923887   5.238   6.207   8.132  0.6596 -0.3823 -2.3791
   75MOL    H6023888   4.990   6.460   8.109  0.7068 -0.2530  3.0253
   75MOL    H6123889   4.755   6.428   8.170  1.1427  0.6838  1.2474
   75MOL    H6223890   4.585   6.187   8.307 -1.9389  2.2373 -0.9959
   75MOL    H6323891   4.570   6.291   8.165 -0.2251 -0.4433 -0.7461
   75MOL    H6423892   4.813   5.992   8.167  1.8990 -1.0269 -1.8050
   75MOL    H6523893   5.050   6.039   8.121  0.9945  0.8737  3.9595
   75MOL    C6623894   4.521   6.082   8.113  0.6923  0.1992 -0.4654
   75MOL    C6723895   4.369   6.090   8.134 -0.0804  0.5320 -0.9097
   75MOL    C6823896   4.315   6.140   8.251  0.3014  0.3602  0.4296
   75MOL    C6923897   4.174   6.139   8.272  0.1860 -0.1088  0.6171
   75MOL    C7023898   4.093   6.104   8.161  0.4447 -0.2956 -0.5653
   75MOL    C7123899   3.939   6.116   8.176  0.3900  0.0229  0.1309
   75MOL    C7223900   4.143   6.069   8.034  1.0181 -0.3053 -0.2621
   75MOL    C7323901   4.284   6.052   8.026 -0.3286  0.1685 -0.4395
   75MOL    H7423902   4.559   5.983   8.138 -0.0299  0.3643  1.3113
   75MOL    H7523903   4.541   6.115   8.011 -0.7214  1.4735 -0.3391
   75MOL    H7623904   4.377   6.174   8.333  1.7568  1.0099 -0.9266
   75MOL    H7723905   4.142   6.167   8.371 -0.4444  1.7483 -0.0928
   75MOL    H7823906   3.906   6.092   8.277 -2.9821  1.3141 -0.6044
   75MOL    H7923907   3.895   6.035   8.118 -0.3402 -0.4290  1.3042
   75MOL    H8023908   4.081   6.048   7.948  1.1626  2.3106 -1.0754
   75MOL    H8123909   4.323   6.020   7.931 -0.7542  0.0688 -0.5830
   75MOL    C8223910   3.876   6.247   8.141  0.7248 -0.0286 -0.0188
   75MOL    C8323911   3.734   6.265   8.198 -0.2259 -0.4191  0.1178
   75MOL    C8423912   3.631   6.255   8.106 -0.1325  0.5741 -0.0830
   75MOL    C8523913   3.495   6.264   8.149  0.2448  0.4870 -0.9139
   75MOL    C8623914   3.467   6.289   8.289  0.4810 -0.1111  0.4254
   75MOL    C8723915   3.325   6.307   8.332  0.5398  0.1467 -0.2142
   75MOL    C8823916   3.575   6.299   8.377 -0.3927 -0.4758  0.1881
   75MOL    C8923917   3.710   6.294   8.332 -0.0132 -0.0923  0.6218
   75MOL    H9023918   3.872   6.261   8.033 -1.9568  1.3428  0.2021
   75MOL    H9123919   3.930   6.335   8.175 -2.6518  2.4849 -0.8711
   75MOL    H9223920   3.645   6.231   8.002 -2.0896 -1.6118  0.1045
   75MOL    H9323921   3.420   6.251   8.072 -1.2486  0.3015  0.5399
   75MOL    H9423922   3.296   6.412   8.326 -0.8924 -0.3511 -2.8475
   75MOL    H9523923   3.325   6.285   8.439  0.9635  3.2397  0.4726
   75MOL    H9623924   3.562   6.324   8.481 -0.0714  0.3718  0.0267
   75MOL    H9723925   3.788   6.319   8.403 -2.4044 -0.1769  3.4166
   75MOL    C9823926   3.225   6.236   8.244  0.3398 -0.0347 -0.2626
   75MOL    C9923927   3.086   6.250   8.300 -0.0841  0.1541  0.1450
   75MOL   C10023928   2.998   6.339   8.229  0.0419 -0.9091 -0.9943
   75MOL   C10123929   2.863   6.348   8.268  0.1624  0.2579 -0.1730
   75MOL   C10223930   2.819   6.284   8.383  0.3744 -0.9674 -0.7038
   75MOL   C10323931   2.681   6.306   8.428 -0.4758  0.5017 -0.2627
   75MOL   C10423932   2.905   6.198   8.452 -0.2007  0.5660 -1.1947
   75MOL   C10523933   3.038   6.183   8.413 -0.5184  0.2485 -0.5000
   75MOL   H10623934   3.253   6.131   8.244 -1.1645 -0.4772 -2.3388
   75MOL   H10723935   3.210   6.261   8.139  0.3186  1.3553  0.0555
   75MOL   H10823936   3.013   6.391   8.135 -0.2690 -0.8259 -0.9976
   75MOL   H10923937   2.803   6.411   8.204 -0.7240 -2.9901 -2.6896
   75MOL   H11023938   2.689   6.371   8.515  1.3210 -3.0014  2.2886
   75MOL   H11123939   2.628   6.349   8.343  1.3301 -2.1169 -2.7918
   75MOL   H11223940   2.860   6.130   8.522  0.0788  0.9791 -0.6079
   75MOL   H11323941   3.098   6.106   8.459 -1.8367 -1.1612 -1.1228
   75MOL   C11423942   2.605   6.179   8.453  0.9101  0.2228 -0.3790
   75MOL   C11523943   2.456   6.207   8.467 -0.1184  0.1556 -0.9397
   75MOL   C11623944   2.360   6.178   8.367 -0.3795  0.1573 -0.6437
   75MOL   C11723945   2.223   6.204   8.388 -0.3370  0.7020  0.2434
   75MOL   C11823946   2.181   6.261   8.512  0.0298 -0.3408  0.8810
   75MOL   C11923947   2.037   6.305   8.517  0.0912  0.7741  0.0331
   75MOL   C12023948   2.276   6.283   8.619  0.2914  0.9574  0.9859
   75MOL   C12123949   2.416   6.254   8.598 -0.1872 -0.3303  0.2182
   75MOL   H12223950   2.625   6.127   8.546 -0.9920 -2.5994 -1.4727
   75MOL   H12323951   2.623   6.114   8.367  0.3594 -0.1680 -0.2017
   75MOL   H12423952   2.401   6.155   8.270 -1.5847 -2.4775 -0.5736
   75MOL   H12523953   2.144   6.184   8.317 -0.8513  1.5606  0.5675
   75MOL   H12623954   2.015   6.367   8.430  0.1563  0.6784 -0.0526
   75MOL   H12723955   1.974   6.216   8.520  0.2737  0.6628  0.6367
   75MOL   H12823956   2.248   6.327   8.714  0.6432 -0.0716  1.5822
   75MOL   H12923957   2.484   6.281   8.677  0.2943  0.0670 -0.3216
   75MOL   C13023958   1.992   6.395   8.636 -0.1872 -0.8831 -0.6048
   75MOL   C13123959   1.844   6.427   8.636  0.0784  0.0467 -0.2871
   75MOL   C13223960   1.778   6.419   8.515  0.1904  0.2114 -0.3900
   75MOL   C13323961   1.640   6.434   8.511  0.0964  0.5420 -0.0001
   75MOL   C13423962   1.572   6.468   8.630  0.0092 -0.0030 -0.2263
   75MOL   C13523963   1.416   6.480   8.625 -0.1404  0.0464 -0.8520
   75MOL   C13623964   1.637   6.484   8.751  0.3340  0.1136  0.2759
   75MOL   C13723965   1.775   6.459   8.758  0.3274  0.8904 -0.4606
   75MOL   H13823966   2.039   6.494   8.630 -0.4814 -0.6554  0.8065
   75MOL   H13923967   2.009   6.350   8.733  1.8546 -2.5134 -1.6894
   75MOL   H14023968   1.819   6.387   8.420 -1.4417  0.6226 -1.2591
   75MOL   H14123969   1.579   6.426   8.422  0.1177 -0.0667  0.0374
   75MOL   H14223970   1.388   6.560   8.692  1.4312  1.1863 -1.5296
   75MOL   H14323971   1.391   6.515   8.524  1.8892  0.2262 -1.3198
   75MOL   H14423972   1.585   6.498   8.844  1.2398 -1.0457  0.9742
   75MOL   H14523973   1.811   6.460   8.860 -0.2041 -1.2361 -0.2405
   75MOL   C14623974   1.329   6.348   8.634  0.1435  0.0898  0.3431
   75MOL   C14723975   1.190   6.388   8.651  0.1298 -0.2386  0.3767
   75MOL   C14823976   1.115   6.415   8.535 -0.0031  0.4145  0.6226
   75MOL   C14923977   0.983   6.459   8.544  0.6147  0.1711 -0.1948
   75MOL   C15023978   0.925   6.470   8.671 -0.3315  0.5773  0.0946
   75MOL   C15123979   0.776   6.507   8.677  0.2860 -0.1225  0.3399
   75MOL   C15223980   1.001   6.444   8.784 -1.0068 -0.4894 -0.0863
   75MOL   C15323981   1.131   6.408   8.771  0.0180  0.1414 -0.2597
   75MOL   H15423982   1.355   6.287   8.721  0.1970  0.7486  0.7947
   75MOL   H15523983   1.338   6.284   8.546 -0.6934  0.0430  0.2921
   75MOL   H15623984   1.138   6.404   8.430  0.4618  1.0098  0.6544
   75MOL   H15723985   0.920   6.470   8.456 -1.1567  0.2983  1.0716
   75MOL   H15823986   0.767   6.605   8.724 -2.3329 -0.4893  0.6518
   75MOL   H15923987   0.729   6.505   8.579  0.4451 -0.4550  0.2706
   75MOL   H16023988   0.965   6.457   8.885 -0.4101  0.9190 -0.0512
   75MOL   H16123989   1.185   6.396   8.863 -0.6212 -2.3701 -0.1852
   75MOL   C16223990   0.689   6.412   8.763 -0.0297  0.0654  0.2281
   75MOL   C16323991   0.544   6.443   8.765 -0.2396 -0.5104  0.6519
   75MOL   C16423992   0.460   6.394   8.666  0.0867 -0.4515  0.0945
   75MOL   C16523993   0.324   6.418   8.668  0.4610  0.1536  0.2980
   75MOL   C16623994   0.272   6.503   8.768 -0.5730  0.2312  0.0895
   75MOL   C16723995   0.125   6.539   8.766 -0.4512 -0.2241  0.6344
   75MOL   C16823996   0.358   6.564   8.862 -0.3954 -0.3260  0.2973
   75MOL   C16923997   0.497   6.539   8.850  0.0356 -0.4812 -0.0508
   75MOL   H17023998   0.716   6.417   8.868 -1.1505  0.6370  0.4950
   75MOL   H17123999   0.706   6.306   8.740 -3.8904 -1.0075  2.0112
   75MOL   H17224000   0.498   6.321   8.596  0.3461  1.8955 -2.2815
   75MOL   H17324001   0.261   6.376   8.592 -0.7019  3.1186 -0.4355
   75MOL   H17424002   0.057   6.454   8.775  0.0506 -0.7137 -0.1253
   75MOL   H17524003   0.113   6.570   8.870 -1.1768  0.0633  0.4630
   75MOL   H17624004   0.330   6.630   8.943 -0.2019 -0.5671  0.5605
   75MOL   H17724005   0.560   6.578   8.928  0.0670  0.8177 -0.7131
   75MOL   C17824006   0.079   6.651   8.669 -0.3160  0.0769  0.0256
   75MOL   C17924007  -0.065   6.667   8.671 -0.1727 -0.7138  0.1794
   75MOL   C18024008  -0.152   6.604   8.581  0.6007 -0.2150  0.1327
   75MOL   C18124009  -0.289   6.616   8.600  0.8850 -0.6351  0.7085
   75MOL   C18224010  -0.337   6.708   8.696  0.4181  0.0302  0.9281
   75MOL   C18324011  -0.488   6.731   8.711  0.3832 -0.4543 -0.2840
   75MOL   C18424012  -0.250   6.778   8.782  0.9878  0.1901 -0.9012
   75MOL   C18524013  -0.111   6.752   8.773  0.2167  0.0322  0.0228
   75MOL   H18624014   0.111   6.631   8.566 -0.6218 -0.2642 -0.0014
   75MOL   H18724015   0.127   6.748   8.682  0.1653 -0.4212  2.0643
   75MOL   H18824016  -0.113   6.536   8.506  1.7377 -0.6436  1.1028
   75MOL   H18924017  -0.359   6.555   8.544 -1.5180  1.1060  1.7077
   75MOL   H19024018  -0.552   6.643   8.699  0.5333 -0.5346 -0.5126
   75MOL   H19124019  -0.515   6.763   8.811 -1.2569  0.2746 -0.9402
   75MOL   H19224020  -0.288   6.845   8.858  1.5396 -0.7816  0.2401
   75MOL   H19324021  -0.041   6.806   8.835 -1.2815  2.4391 -0.3117
   75MOL   C19424022  -0.540   6.835   8.609  0.6624 -0.3402 -0.9191
   75MOL   C19524023  -0.666   6.905   8.659 -0.1016  0.4641  0.4622
   75MOL   C19624024  -0.791   6.836   8.654  0.6595  0.4594 -0.0340
   75MOL   C19724025  -0.899   6.883   8.726  0.2285  0.2493 -0.2882
   75MOL   C19824026  -0.894   7.001   8.799  0.2898  0.0366  0.1044
   75MOL   C19924027  -1.013   7.046   8.880 -0.3365  0.7048  0.7511
   75MOL   C20024028  -0.776   7.080   8.787 -0.1737  0.2531 -0.0808
   75MOL   C20124029  -0.662   7.033   8.724  0.4601 -0.6101 -0.0573
   75MOL   H20224030  -0.557   6.772   8.521  0.1559 -1.7147  0.1402
   75MOL   H20324031  -0.474   6.914   8.573  2.6083 -1.3862  0.2295
   75MOL   H20424032  -0.791   6.736   8.614  0.5021 -0.1958  1.5541
   75MOL   H20524033  -0.985   6.820   8.741  0.1963  0.3576 -0.0319
   75MOL   H20624034  -1.016   7.154   8.890 -1.4993  0.6073  1.6876
   75MOL   H20724035  -1.104   7.036   8.821 -0.3430  1.6658  0.6021
   75MOL   H20824036  -0.767   7.178   8.832  1.7914 -0.2709  0.7314
   75MOL   H20924037  -0.570   7.088   8.732 -1.1967  2.1157  1.0236
   75MOL   C21024038  -1.022   6.969   9.021  0.6166 -0.2041 -0.4658
   75MOL   C21124039  -0.887   6.965   9.093  0.7145  0.2680 -0.9359
   75MOL   C21224040  -0.834   6.836   9.121  0.5189 -0.2689  1.2130
   75MOL   C21324041  -0.701   6.825   9.162 -0.4693 -0.0077  0.5327
   75MOL   C21424042  -0.627   6.944   9.182 -0.9972  0.9390  0.0289
   75MOL   C21524043  -0.481   6.935   9.231 -0.1889 -0.2009 -0.4435
   75MOL   C21624044  -0.687   7.064   9.164 -0.1809 -0.2254 -0.1132
   75MOL   C21724045  -0.818   7.080   9.120  0.0528 -0.1090 -0.3976
   75MOL   H21824046  -1.053   6.868   8.994  0.9319 -0.6382  0.7581
   75MOL   H21924047  -1.105   7.012   9.077  0.9926 -1.6596  1.2395
   75MOL   H22024048  -0.893   6.753   9.083 -1.7371  2.4945 -1.6744
   75MOL   H22124049  -0.656   6.729   9.179  2.3782  1.1893  0.0307
   75MOL   H22224050  -0.428   7.026   9.261 -0.5814 -0.4813  1.1476
   75MOL   H22324051  -0.476   6.872   9.319 -0.8715 -0.6570 -0.7249
   75MOL   H22424052  -0.634   7.155   9.190 -0.6366  0.3352 -1.1392
   75MOL   H22524053  -0.864   7.176   9.102  1.0796  0.2231 -1.3177
   75MOL   C22624054  -0.396   6.866   9.122  0.2807 -0.3044 -0.2413
   75MOL   C22724055  -0.270   6.802   9.173  0.4068 -0.0289  0.5475
   75MOL   C22824056  -0.229   6.668   9.144 -0.7725 -0.1482  0.4710
   75MOL   C22924057  -0.105   6.626   9.195  0.3317  0.4137  0.5106
   75MOL   C23024058  -0.009   6.713   9.251  0.1717 -0.1081  0.5690
   75MOL   C23124059   0.131   6.662   9.259  0.2121  0.6468  0.0509
   75MOL   C23224060  -0.051   6.843   9.274 -0.3475 -0.2498 -0.2736
   75MOL   C23324061  -0.184   6.889   9.246  0.8111  0.5843 -0.2460
   75MOL   H23424062  -0.371   6.952   9.060  0.5835 -0.3084 -0.1264
   75MOL   H23524063  -0.449   6.791   9.063 -0.0328  0.9502 -1.5733
   75MOL   H23624064  -0.296   6.597   9.098 -2.3039 -0.4827  3.1133
   75MOL   H23724065  -0.077   6.523   9.178 -2.2838 -0.0772 -1.1110
   75MOL   H23824066   0.131   6.574   9.322 -0.5756  0.5000 -0.1523
   75MOL   H23924067   0.158   6.612   9.166 -0.0736  1.3908 -0.4357
   75MOL   H24024068   0.028   6.899   9.322  0.0121 -0.2146 -0.9100
   75MOL   H24124069  -0.228   6.984   9.270  0.8005  0.8391 -1.2870
   75MOL   C24224070   0.252   6.767   9.293  0.3205  0.1672  0.6271
   75MOL   C24324071   0.378   6.689   9.330 -0.7217  0.1381 -0.2664
   75MOL   C24424072   0.412   6.649   9.460 -0.1046  1.1841 -0.3257
   75MOL   C24524073   0.530   6.575   9.490  0.0406  0.6633  0.0202
   75MOL   C24624074   0.609   6.521   9.385  0.8680 -0.3329  0.0068
   75MOL   C24724075   0.714   6.415   9.415 -0.1645 -0.2090  0.7784
   75MOL   C24824076   0.574   6.560   9.251 -0.3195  0.2874 -0.6934
   75MOL   C24924077   0.464   6.642   9.226  0.3143 -0.3919  0.1921
   75MOL   H25024078   0.264   6.831   9.206  0.0607  0.1300  0.5636
   75MOL   H25124079   0.241   6.830   9.382 -1.5556 -0.0072  0.5454
   75MOL   H25224080   0.356   6.690   9.543 -0.8912  0.8189 -0.6639
   75MOL   H25324081   0.558   6.558   9.592 -0.0085  0.3444 -0.0185
   75MOL   H25424082   0.673   6.315   9.418  0.7610 -0.6932 -1.7777
   75MOL   H25524083   0.779   6.415   9.327  0.1157  2.1120  0.9586
   75MOL   H25624084   0.631   6.533   9.163  0.0658  0.3791 -0.4719
   75MOL   H25724085   0.443   6.678   9.126 -0.6928  1.3746  1.0203
   75MOL   C25824086   0.799   6.430   9.543  0.1441  0.4653 -0.7159
   75MOL   C25924087   0.903   6.317   9.557  0.0872  0.5613  0.3200
   75MOL   C26024088   1.023   6.322   9.486 -0.0260  0.5461 -0.1405
   75MOL   C26124089   1.114   6.220   9.499 -0.1321 -0.2423 -0.3733
   75MOL   C26224090   1.091   6.108   9.579 -0.2000 -0.1253 -0.2960
   75MOL   C26324091   1.199   6.001   9.596 -0.1352  0.0798  0.6308
   75MOL   C26424092   0.971   6.096   9.654 -0.0311 -0.5564 -0.3129
   75MOL   C26524093   0.884   6.207   9.651  0.1255  0.3385 -0.0421
   75MOL   H26624094   0.749   6.402   9.636  3.8586 -1.8535  0.7025
   75MOL   H26724095   0.844   6.528   9.560 -0.0729  0.2836  1.0262
   75MOL   H26824096   1.051   6.394   9.411  3.6422 -2.3503 -1.7543
   75MOL   H26924097   1.203   6.223   9.437  1.0315 -0.1269  1.2813
   75MOL   H27024098   1.304   6.028   9.584 -0.1381 -1.0614 -2.3285
   75MOL   H27124099   1.201   5.976   9.702  0.8691  0.1487  0.6349
   75MOL   H27224100   0.943   6.006   9.706 -3.0519 -0.1531 -1.1627
   75MOL   H27324101   0.786   6.203   9.697 -0.8824  0.1468 -2.1253
   75MOL   C27424102   1.168   5.888   9.500  0.9529  0.2500 -0.0894
   75MOL   C27524103   1.303   5.815   9.461  0.8812  0.2269 -0.3999
   75MOL   C27624104   1.329   5.795   9.326 -0.1791  0.1947  0.5966
   75MOL   C27724105   1.460   5.757   9.288  0.2590  0.5042  0.1313
   75MOL   C27824106   1.561   5.741   9.383  0.5109  0.2526 -0.6523
   75MOL   C27924107   1.699   5.698   9.350  0.1528 -0.0292 -0.5771
   75MOL   C28024108   1.527   5.745   9.525 -0.6166  0.0699 -0.2696
   75MOL   C28124109   1.395   5.775   9.559 -0.2789 -0.3390  0.5577
   75MOL   H28224110   1.105   5.815   9.552  0.2720 -0.3767 -1.7480
   75MOL   H28324111   1.117   5.923   9.410  0.0517 -2.1251 -0.5462
   75MOL   H28424112   1.257   5.825   9.251  0.4369  2.9120  1.0324
   75MOL   H28524113   1.479   5.758   9.182  0.7057  1.7199  0.2126
   75MOL   H28624114   1.766   5.756   9.413  0.6200  1.2360 -2.2003
   75MOL   H28724115   1.716   5.597   9.386 -1.5201  0.1481  0.8049
   75MOL   H28824116   1.599   5.720   9.602  0.5695  3.0345 -0.3436
   75MOL   H28924117   1.379   5.776   9.666 -0.1449  3.2581  0.5999
   75MOL   C29024118   1.729   5.703   9.199 -0.0702 -0.0138  0.7763
   75MOL   C29124119   1.877   5.690   9.163 -0.0416 -0.2821 -0.9684
   75MOL   C29224120   1.950   5.582   9.217 -0.1174 -0.0710  0.2312
   75MOL   C29324121   2.087   5.573   9.193  0.4582 -0.7016  0.1237
   75MOL   C29424122   2.155   5.662   9.102  0.0164  0.2352  0.3426
   75MOL   C29524123   2.298   5.640   9.055 -0.3372  0.3387 -0.3554
   75MOL   C29624124   2.077   5.757   9.038 -0.0753  0.4003 -0.6059
   75MOL   C29724125   1.939   5.770   9.074 -0.3833  0.1884 -0.2860
   75MOL   H29824126   1.689   5.796   9.158 -0.0062  0.2893  1.3998
   75MOL   H29924127   1.671   5.625   9.149 -0.5990  0.2743  0.9297
   75MOL   H30024128   1.898   5.517   9.286  1.8750 -0.5742  1.2698
   75MOL   H30124129   2.142   5.493   9.240  0.6115 -0.0164  1.1189
   75MOL   H30224130   2.326   5.536   9.069 -3.7546 -0.4995  0.7361
   75MOL   H30324131   2.297   5.662   8.948 -1.5608  0.8242 -0.2644
   75MOL   H30424132   2.121   5.812   8.957  0.2235  1.1146  0.0416
   75MOL   H30524133   1.887   5.844   9.015  0.0543 -0.2691 -1.2630
   75MOL   C30624134   2.400   5.734   9.117 -0.5953  0.1425  0.7627
   75MOL   C30724135   2.538   5.724   9.055 -1.0111  0.3458  0.4205
   75MOL   C30824136   2.561   5.745   8.921  0.1241  0.1208 -0.4909
   75MOL   C30924137   2.691   5.744   8.869  0.0099  0.3688 -0.6182
   75MOL   C31024138   2.796   5.701   8.956  0.3773  0.2922 -0.4927
   75MOL   C31124139   2.934   5.692   8.899  0.3040 -0.1727 -0.0518
   75MOL   C31224140   2.775   5.664   9.089  0.6944 -0.3794  0.3044
   75MOL   C31324141   2.640   5.667   9.138  0.1546 -0.3387 -0.7056
   75MOL   H31424142   2.413   5.709   9.222 -0.6589 -2.2856  0.2359
   75MOL   H31524143   2.363   5.837   9.115  0.7305  0.6084 -0.1803
   75MOL   H31624144   2.478   5.767   8.855 -0.2522  0.4537  0.0830
   75MOL   H31724145   2.714   5.773   8.768 -1.5095 -0.3518 -1.1953
   75MOL   H31824146   2.929   5.681   8.790  1.7653 -0.8414 -0.0558
   75MOL   H31924147   2.979   5.791   8.909  0.3802 -0.5062  3.2532
   75MOL   H32024148   2.854   5.619   9.147  0.5044 -0.7282  0.2927
   75MOL   H32124149   2.629   5.647   9.243 -1.4612  1.8695 -0.4216
   75MOL   H32224150   2.991   5.613   8.946 -0.5083 -2.4040 -2.6168
   76MOL     C124151   1.970   6.979   0.075 -0.4592  0.4175 -0.0522
   76MOL     C224152   1.825   6.982   0.107  0.4458 -0.2493  1.0552
   76MOL     C324153   1.735   6.884   0.055 -0.2502  0.2850  0.2306
   76MOL     C424154   1.597   6.873   0.094  0.5782 -0.1627  0.3143
   76MOL     C524155   1.539   6.964   0.191  0.4513  0.1987  0.0592
   76MOL     C624156   1.390   6.951   0.224  0.1074  0.8525  0.6126
   76MOL     C724157   1.632   7.059   0.247 -0.7459 -0.5481  0.1360
   76MOL     C824158   1.770   7.065   0.206  0.3663  0.6504  0.2704
   76MOL     H924159   2.009   7.080   0.089 -0.1674 -0.0115  2.2914
   76MOL    H1024160   2.012   6.907   0.145 -1.4348 -1.1064 -0.9887
   76MOL    H1124161   1.768   6.819  -0.025  0.7177 -2.4462  2.7567
   76MOL    H1224162   1.521   6.805   0.057 -0.0603  1.2491 -1.0412
   76MOL    H1324163   1.339   6.864   0.183 -1.5087  1.4549  1.2699
   76MOL    H1424164   1.393   6.937   0.332 -1.3379  2.0905  0.8278
   76MOL    H1524165   1.596   7.134   0.316 -2.5608 -1.5384  0.2989
   76MOL    H1624166   1.828   7.146   0.249 -0.6272  0.8597  1.2582
   76MOL    H1724167   1.981   6.940  -0.027  0.5912 -3.5530  1.4987
   76MOL    C1824168   1.323   7.081   0.176 -0.6247 -1.1428  0.1879
   76MOL    C1924169   1.170   7.095   0.196  0.2273  0.0101  0.4413
   76MOL    C2024170   1.110   7.133   0.315  0.0045  0.0556  0.1191
   76MOL    C2124171   0.972   7.137   0.335 -0.1554 -0.1007  0.5228
   76MOL    C2224172   0.894   7.111   0.219 -0.4266 -1.1980  0.3817
   76MOL    C2324173   0.751   7.151   0.226 -0.0280  0.1325 -0.1799
   76MOL    C2424174   0.950   7.066   0.097 -0.6548  0.0364 -0.0860
   76MOL    C2524175   1.089   7.041   0.091  0.1980  0.2232 -0.6602
   76MOL    H2624176   1.364   7.175   0.212 -0.6274 -0.9295 -0.3574
   76MOL    H2724177   1.334   7.079   0.068 -0.9178  0.8888  0.1108
   76MOL    H2824178   1.174   7.159   0.398  1.0739 -1.8001 -0.1005
   76MOL    H2924179   0.929   7.171   0.427 -0.2728  1.0064  0.0633
   76MOL    H3024180   0.729   7.229   0.153 -0.0914  1.4287  1.1795
   76MOL    H3124181   0.721   7.178   0.328 -1.1434  2.0347 -0.9696
   76MOL    H3224182   0.885   7.059   0.011 -0.3157  1.5497 -0.4899
   76MOL    H3324183   1.129   6.995   0.002 -2.2239 -1.8714 -0.7328
   76MOL    C3424184   0.663   7.024   0.202  0.0451 -0.0154  0.2525
   76MOL    C3524185   0.516   7.048   0.235 -0.1538 -0.5189  0.0478
   76MOL    C3624186   0.458   7.011   0.361 -0.2790 -0.0348  0.4071
   76MOL    C3724187   0.325   7.044   0.394 -0.3710  0.8198 -0.5612
   76MOL    C3824188   0.247   7.125   0.306 -0.1507  0.4859 -0.1899
   76MOL    C3924189   0.110   7.173   0.344 -0.3806  0.3991  1.1223
   76MOL    C4024190   0.301   7.162   0.182 -1.0979  0.4635 -0.1323
   76MOL    C4124191   0.429   7.115   0.148  0.4203  0.2124 -0.1534
   76MOL    H4224192   0.701   6.949   0.272  0.9921  0.6419  0.4670
   76MOL    H4324193   0.671   6.988   0.100  0.5146  0.0087  0.2773
   76MOL    H4424194   0.515   6.954   0.433 -2.3627 -1.1123  1.2515
   76MOL    H4524195   0.271   7.010   0.480  1.0227 -1.5447 -0.5793
   76MOL    H4624196   0.103   7.154   0.451 -0.5721  1.3577  1.2843
   76MOL    H4724197   0.100   7.278   0.317  2.9410  0.8073  1.3656
   76MOL    H4824198   0.249   7.232   0.118 -0.6798 -0.2851 -1.3107
   76MOL    H4924199   0.466   7.150   0.053  2.5125  0.4916  0.7331
   76MOL    C5024200  -0.014   7.115   0.280 -0.4455  0.0505  0.8123
   76MOL    C5124201  -0.147   7.171   0.334  0.0263  0.5029 -0.4914
   76MOL    C5224202  -0.185   7.139   0.463 -0.0088  0.0190 -0.3606
   76MOL    C5324203  -0.306   7.171   0.511  0.2108 -0.5842 -0.0365
   76MOL    C5424204  -0.395   7.250   0.438  0.0202 -1.0690  0.3213
   76MOL    C5524205  -0.527   7.295   0.486  0.0135  0.2853  0.3350
   76MOL    C5624206  -0.356   7.288   0.309 -0.4534  0.6848  0.0908
   76MOL    C5724207  -0.237   7.242   0.252 -1.3522  0.0773  0.5265
   76MOL    H5824208  -0.009   7.007   0.286 -0.6655  0.0530  1.0902
   76MOL    H5924209  -0.003   7.130   0.173  1.8108 -1.5297  0.7945
   76MOL    H6024210  -0.118   7.085   0.529  0.4281 -1.1981 -1.7596
   76MOL    H6124211  -0.333   7.149   0.613  1.4288 -1.3840  0.1223
   76MOL    H6224212  -0.532   7.282   0.594  1.2274 -1.7635  0.1764
   76MOL    H6324213  -0.535   7.402   0.464 -3.2025 -0.4120 -2.2446
   76MOL    H6424214  -0.418   7.354   0.250 -0.5752 -0.9680 -1.6490
   76MOL    H6524215  -0.212   7.259   0.148 -0.3392 -1.6355  0.4679
   76MOL    C6624216  -0.624   7.219   0.398  0.2504  0.3441  0.3061
   76MOL    C6724217  -0.771   7.251   0.421  0.5780  0.4473  0.1089
   76MOL    C6824218  -0.821   7.382   0.394  0.0834  0.0418 -0.2911
   76MOL    C6924219  -0.950   7.415   0.435  0.2450  0.2727 -0.5253
   76MOL    C7024220  -1.033   7.323   0.502  0.4006  0.3031 -0.3650
   76MOL    C7124221  -1.178   7.363   0.531 -0.1958 -0.2384 -0.0875
   76MOL    C7224222  -0.981   7.197   0.525 -0.3282  0.4206  0.9491
   76MOL    C7324223  -0.852   7.160   0.490 -0.5009  0.4798 -0.0014
   76MOL    H7424224  -0.616   7.112   0.416  0.6637  0.5448  1.3278
   76MOL    H7524225  -0.615   7.233   0.290 -2.5695  3.0113  0.3187
   76MOL    H7624226  -0.766   7.460   0.344 -1.4815  1.1713 -0.3134
   76MOL    H7724227  -0.991   7.512   0.412 -0.0056 -0.0748 -1.5427
   76MOL    H7824228  -1.220   7.406   0.440 -1.9155 -0.3369  0.6339
   76MOL    H7924229  -1.185   7.446   0.602 -0.3954 -0.5128  0.2184
   76MOL    H8024230  -1.034   7.119   0.577 -0.7886 -0.5555 -0.9203
   76MOL    H8124231  -0.823   7.060   0.519  2.0745  1.5490  1.2563
   76MOL    C8224232  -1.278   7.271   0.600 -0.2180 -0.5549 -0.1642
   76MOL    C8324233  -1.397   7.349   0.657 -0.5075 -0.0303  0.3307
   76MOL    C8424234  -1.408   7.366   0.797 -0.3191 -0.3675  0.1277
   76MOL    C8524235  -1.508   7.459   0.841  0.1694  0.0993  0.3207
   76MOL    C8624236  -1.588   7.526   0.745  0.3078 -0.5330 -0.2913
   76MOL    C8724237  -1.683   7.636   0.798 -0.2455  0.0756 -0.0028
   76MOL    C8824238  -1.580   7.494   0.603 -0.5364 -0.4710  0.3536
   76MOL    C8924239  -1.488   7.407   0.557  0.2036 -0.4178  0.7439
   76MOL    H9024240  -1.216   7.221   0.674  0.8147 -0.1890 -0.7577
   76MOL    H9124241  -1.330   7.199   0.537 -2.5159 -0.2607  1.3283
   76MOL    H9224242  -1.334   7.324   0.864 -0.9180 -1.6607 -0.0141
   76MOL    H9324243  -1.535   7.482   0.943 -0.9024 -1.2859  0.3767
   76MOL    H9424244  -1.756   7.610   0.874 -0.5766  0.8672 -0.0374
   76MOL    H9524245  -1.751   7.650   0.713  0.8782  0.2049 -0.8948
   76MOL    H9624246  -1.651   7.535   0.533  0.3171 -1.3477 -1.0482
   76MOL    H9724247  -1.467   7.382   0.454  0.5692 -2.4615  1.2926
   76MOL    C9824248  -1.619   7.773   0.833  0.8094  0.0943  0.1845
   76MOL    C9924249  -1.508   7.816   0.746  0.3807  0.6068  0.7033
   76MOL   C10024250  -1.372   7.812   0.791  0.0266 -0.1963 -0.4762
   76MOL   C10124251  -1.271   7.846   0.699  0.8171  0.4534  0.1266
   76MOL   C10224252  -1.308   7.877   0.564  0.2352  0.1710 -0.7796
   76MOL   C10324253  -1.188   7.908   0.471 -0.2043 -0.4188  0.4465
   76MOL   C10424254  -1.442   7.895   0.523  0.4245 -0.5913  0.1652
   76MOL   C10524255  -1.541   7.855   0.616 -0.0435 -0.2476  0.1305
   76MOL   H10624256  -1.579   7.753   0.933  2.1119 -0.3287 -0.4155
   76MOL   H10724257  -1.702   7.843   0.843 -1.9887 -3.1010  0.4554
   76MOL   H10824258  -1.342   7.776   0.888 -0.6453 -1.2516 -0.6474
   76MOL   H10924259  -1.166   7.822   0.710  0.4937 -0.0509  2.2727
   76MOL   H11024260  -1.222   7.959   0.381 -1.5387  1.9169  2.2153
   76MOL   H11124261  -1.120   7.980   0.518 -0.5107 -0.6267  1.2221
   76MOL   H11224262  -1.464   7.943   0.429 -0.2575 -0.3796  0.4327
   76MOL   H11324263  -1.644   7.845   0.584 -0.4319  0.1464  1.2288
   76MOL   C11424264  -1.112   7.781   0.422 -0.3040  0.0900  0.1691
   76MOL   C11524265  -0.972   7.789   0.358  0.0500 -0.2593  0.5601
   76MOL   C11624266  -0.864   7.791   0.443  0.5467  0.0046  0.3458
   76MOL   C11724267  -0.734   7.791   0.394  0.4719  0.2371 -0.7423
   76MOL   C11824268  -0.713   7.793   0.260 -0.0183 -0.4273  0.0922
   76MOL   C11924269  -0.575   7.778   0.203  0.3726  0.4225 -1.0345
   76MOL   C12024270  -0.825   7.792   0.171 -0.0438  0.3437 -0.1984
   76MOL   C12124271  -0.955   7.797   0.220 -0.3124 -0.0503  0.3579
   76MOL   H12224272  -1.171   7.730   0.345  0.0579  3.1547 -2.2224
   76MOL   H12324273  -1.106   7.714   0.508 -0.1008 -0.3406 -0.1804
   76MOL   H12424274  -0.881   7.786   0.550  0.5405  1.3729  0.4115
   76MOL   H12524275  -0.656   7.783   0.468  0.3875 -1.7414 -0.8421
   76MOL   H12624276  -0.561   7.829   0.107  3.5269 -0.4999 -1.0989
   76MOL   H12724277  -0.502   7.832   0.263 -2.6960 -0.0743  3.4312
   76MOL   H12824278  -0.790   7.785   0.069  3.9050 -1.6143  1.2039
   76MOL   H12924279  -1.045   7.794   0.160  1.0056  1.3313 -1.7458
   76MOL   C13024280  -0.529   7.636   0.197  0.6788 -0.7321  0.3782
   76MOL   C13124281  -0.393   7.640   0.135 -0.3326  0.3268 -0.8640
   76MOL   C13224282  -0.367   7.585   0.007 -1.3217 -0.0041  0.0633
   76MOL   C13324283  -0.233   7.593  -0.043  0.3658  0.0057  0.3288
   76MOL   C13424284  -0.125   7.644   0.039  0.1153  0.7262 -0.6095
   76MOL   C13524285   0.016   7.643  -0.007 -0.7353 -0.1989  0.4753
   76MOL   C13624286  -0.152   7.699   0.163  0.2626 -0.0411 -0.3963
   76MOL   C13724287  -0.281   7.701   0.213  0.3861 -0.2704  0.1941
   76MOL   H13824288  -0.589   7.586   0.121 -2.9056  0.3765  2.3895
   76MOL   H13924289  -0.533   7.587   0.295 -1.9108 -1.9677 -0.2956
   76MOL   H14024290  -0.446   7.527  -0.040 -0.3084 -1.4749  0.1582
   76MOL   H14124291  -0.197   7.544  -0.132  1.4352  0.6920  0.3736
   76MOL   H14224292   0.029   7.687  -0.105  1.9359 -0.9303  0.4829
   76MOL   H14324293   0.079   7.702   0.059 -1.3317 -0.4082  1.2443
   76MOL   H14424294  -0.074   7.740   0.226 -0.3636  1.7041 -0.7492
   76MOL   H14524295  -0.292   7.757   0.305 -3.9421  0.3370 -0.5689
   76MOL   C14624296   0.068   7.494  -0.029  0.2923 -0.1983  0.7319
   76MOL   C14724297   0.216   7.481  -0.060  0.0965  0.6374  0.5444
   76MOL   C14824298   0.310   7.474   0.044  0.3063  0.0361  0.0451
   76MOL   C14924299   0.447   7.448   0.015 -0.1517  0.0207 -0.4785
   76MOL   C15024300   0.488   7.422  -0.115 -0.3443  0.2272  0.0108
   76MOL   C15124301   0.631   7.407  -0.163 -0.3266  0.5672 -0.6435
   76MOL   C15224302   0.394   7.424  -0.218  0.5342 -0.1076  0.6665
   76MOL   C15324303   0.260   7.462  -0.189  0.1724  0.0153  0.3007
   76MOL   H15424304   0.014   7.447  -0.111  2.6436 -0.5869 -0.6615
   76MOL   H15524305   0.045   7.429   0.055  1.0052 -1.3100  0.0780
   76MOL   H15624306   0.277   7.472   0.147  2.5828  0.8374  0.8303
   76MOL   H15724307   0.513   7.450   0.101  1.1120  2.0658 -1.4593
   76MOL   H15824308   0.650   7.458  -0.258 -0.7439 -1.5323 -1.9032
   76MOL   H15924309   0.691   7.455  -0.086  0.5152 -1.0030 -0.3147
   76MOL   H16024310   0.424   7.407  -0.320 -3.2989  1.9895 -0.9500
   76MOL   H16124311   0.192   7.452  -0.273  0.3835 -3.6018  0.4634
   76MOL   C16224312   0.666   7.260  -0.174 -0.2069 -0.4014 -0.3333
   76MOL   C16324313   0.811   7.232  -0.224  0.2494  0.5176  0.0403
   76MOL   C16424314   0.911   7.277  -0.138  1.0275  0.2568  0.2155
   76MOL   C16524315   1.048   7.258  -0.173 -0.4025  0.1379 -0.5038
   76MOL   C16624316   1.077   7.204  -0.301 -0.3548  0.2864  0.3013
   76MOL   C16724317   1.219   7.186  -0.336  0.0905 -0.1226 -0.0759
   76MOL   C16824318   0.981   7.172  -0.395 -0.0512 -0.3814  0.3126
   76MOL   C16924319   0.845   7.178  -0.353  0.0916  0.0027 -0.3298
   76MOL   H17024320   0.595   7.213  -0.242  0.9116 -1.9798 -0.4540
   76MOL   H17124321   0.644   7.195  -0.089  1.5718 -2.0622 -1.1089
   76MOL   H17224322   0.891   7.315  -0.039 -0.8034 -0.2136  0.0547
   76MOL   H17324323   1.124   7.275  -0.099  0.5055 -2.6670 -0.7048
   76MOL   H17424324   1.237   7.201  -0.443 -1.6091 -0.5092 -0.4208
   76MOL   H17524325   1.272   7.276  -0.302  1.4112 -0.2951 -1.5796
   76MOL   H17624326   0.998   7.145  -0.498 -2.1190  1.5022 -0.5819
   76MOL   H17724327   0.775   7.170  -0.435 -1.5422 -0.2784  1.0426
   76MOL   C17824328   1.289   7.057  -0.291  0.0568  0.1416  0.3128
   76MOL   C17924329   1.431   7.040  -0.345 -0.5156 -0.1436 -0.2041
   76MOL   C18024330   1.533   7.093  -0.261  0.5680 -0.1160 -0.0574
   76MOL   C18124331   1.667   7.064  -0.296 -0.4406 -0.0656  0.3091
   76MOL   C18224332   1.690   7.003  -0.423  0.2367 -0.1678  0.3726
   76MOL   C18324333   1.832   6.987  -0.469  0.0019 -0.2462 -0.2234
   76MOL   C18424334   1.587   6.965  -0.507 -0.7606 -0.7486  0.3164
   76MOL   C18524335   1.454   6.975  -0.465 -0.1596 -0.9670 -1.0236
   76MOL   H18624336   1.238   6.973  -0.338 -0.2203  1.5806 -2.0132
   76MOL   H18724337   1.284   7.044  -0.182 -0.6027 -1.1837  0.1422
   76MOL   H18824338   1.506   7.121  -0.160  0.3828  2.2859 -0.7451
   76MOL   H18924339   1.752   7.088  -0.233 -0.6846  1.9251 -0.0728
   76MOL   H19024340   1.832   6.991  -0.578 -1.7316 -2.2136 -0.3086
   76MOL   H19124341   1.895   7.065  -0.425  2.0002 -0.9419 -1.7961
   76MOL   H19224342   1.608   6.923  -0.604  0.7895 -2.0074  1.1768
   76MOL   H19324343   1.376   6.939  -0.530 -2.3526  2.3471 -0.3442
   76MOL   C19424344   1.898   6.858  -0.431 -0.6353 -0.5746  0.6206
   76MOL   C19524345   2.047   6.854  -0.467 -0.2012  0.1300  0.4284
   76MOL   C19624346   2.145   6.893  -0.378 -0.2687  0.3070 -0.0071
   76MOL   C19724347   2.284   6.876  -0.408  0.9682 -0.0604  0.2525
   76MOL   C19824348   2.328   6.822  -0.534  0.0956  0.1023  0.0567
   76MOL   C19924349   2.477   6.820  -0.560  0.1001 -0.0552 -0.8552
   76MOL   C20024350   2.228   6.779  -0.624  0.0592  0.7591  0.0569
   76MOL   C20124351   2.089   6.798  -0.591 -0.0971 -0.0909  0.9158
   76MOL   H20224352   1.854   6.776  -0.488 -0.3298 -1.7888  2.1080
   76MOL   H20324353   1.890   6.832  -0.326 -2.9963  0.2017  0.6876
   76MOL   H20424354   2.116   6.945  -0.288  1.1583 -0.8032  1.1271
   76MOL   H20524355   2.366   6.917  -0.352  0.0379  0.5604  1.1866
   76MOL   H20624356   2.507   6.895  -0.633 -0.8252  0.9732 -0.1795
   76MOL   H20724357   2.539   6.839  -0.472  1.0195 -0.4887 -1.3986
   76MOL   H20824358   2.254   6.733  -0.718  0.8382  0.9955  0.1450
   76MOL   H20924359   2.012   6.773  -0.663 -1.7757  0.8731  2.3199
   76MOL   C21024360   2.519   6.680  -0.601 -0.0790 -0.6576  0.1382
   76MOL   C21124361   2.666   6.660  -0.639 -0.0332 -0.5797 -0.1006
   76MOL   C21224362   2.710   6.638  -0.773  0.5353 -0.2068 -0.1751
   76MOL   C21324363   2.841   6.609  -0.800 -0.0634 -0.0388 -0.0373
   76MOL   C21424364   2.943   6.621  -0.698 -0.7706 -0.0060  0.5978
   76MOL   C21524365   3.089   6.594  -0.727  0.0918 -0.3611 -0.0221
   76MOL   C21624366   2.899   6.645  -0.569 -0.2192  0.2647 -0.2789
   76MOL   C21724367   2.764   6.668  -0.536 -0.1039  0.2309  0.1380
   76MOL   H21824368   2.454   6.650  -0.683  0.5117 -0.9588 -0.2296
   76MOL   H21924369   2.506   6.618  -0.513 -0.1431 -0.0451  0.5599
   76MOL   H22024370   2.632   6.615  -0.845  0.4874 -1.6555  0.3315
   76MOL   H22124371   2.871   6.566  -0.894 -0.3542 -3.3659  1.3217
   76MOL   H22224372   3.108   6.638  -0.825 -0.6457 -1.7713 -0.8123
   76MOL   H22324373   3.152   6.635  -0.648 -0.4383 -1.1103  0.7846
   76MOL   H22424374   2.975   6.658  -0.492  0.9191 -2.0754 -0.9561
   76MOL   H22524375   2.742   6.668  -0.430  1.4633  2.1694  0.4951
   76MOL   C22624376   3.125   6.449  -0.725  0.3681 -0.0096 -0.0257
   76MOL   C22724377   3.273   6.433  -0.759  0.0254  0.0556 -0.0667
   76MOL   C22824378   3.377   6.464  -0.664  0.0809 -0.6676  0.5069
   76MOL   C22924379   3.509   6.457  -0.707 -0.4027 -0.9852  0.3782
   76MOL   C23024380   3.542   6.408  -0.834  0.6459 -0.0549 -0.1209
   76MOL   C23124381   3.688   6.402  -0.868  0.9425  0.2571  0.7139
   76MOL   C23224382   3.438   6.374  -0.918 -0.2103  0.2786 -0.1606
   76MOL   C23324383   3.303   6.390  -0.888  0.7095 -0.2878 -0.3774
   76MOL   H23424384   3.066   6.383  -0.789 -0.7511 -0.6196  1.6058
   76MOL   H23524385   3.117   6.412  -0.622  1.4431  0.0877  0.0974
   76MOL   H23624386   3.354   6.502  -0.566 -0.0701 -3.3135  1.5422
   76MOL   H23724387   3.584   6.481  -0.634  1.6889  1.3392 -2.4179
   76MOL   H23824388   3.695   6.420  -0.975  0.5608  0.4552  0.7225
   76MOL   H23924389   3.746   6.485  -0.825  0.8298  0.7968 -0.1740
   76MOL   H24024390   3.458   6.334  -1.016  1.2114 -2.6829  1.2814
   76MOL   H24124391   3.232   6.352  -0.959 -1.1327 -0.4138  1.4907
   76MOL   C24224392   3.733   6.267  -0.823  0.0483  0.1405  0.3386
   76MOL   C24324393   3.874   6.234  -0.844  0.0016 -0.2069  0.6893
   76MOL   C24424394   3.905   6.112  -0.913 -0.2429 -0.0488  0.3162
   76MOL   C24524395   4.041   6.080  -0.927 -0.0024  0.1808  0.1000
   76MOL   C24624396   4.136   6.168  -0.870 -0.0684 -0.5876 -0.3881
   76MOL   C24724397   4.278   6.137  -0.902 -0.2442 -0.7138 -0.2703
   76MOL   C24824398   4.100   6.278  -0.793 -0.1198  0.4433  0.1252
   76MOL   C24924399   3.965   6.317  -0.781 -0.5399 -0.3163 -0.0973
   76MOL   H25024400   3.722   6.253  -0.715 -2.1728  0.6667  0.2111
   76MOL   H25124401   3.672   6.190  -0.869  0.0262 -0.0658  0.7084
   76MOL   H25224402   3.833   6.050  -0.965  0.7028  1.3229 -2.7320
   76MOL   H25324403   4.074   5.988  -0.973  1.7565 -0.3197  2.2389
   76MOL   H25424404   4.343   6.218  -0.869 -1.1185 -0.1241  0.0537
   76MOL   H25524405   4.312   6.039  -0.870 -0.1369 -0.4139  0.5494
   76MOL   H25624406   4.180   6.334  -0.748  0.4586 -0.9649  0.8796
   76MOL   H25724407   3.929   6.400  -0.723  2.4636  0.4422  0.7624
   76MOL   C25824408   4.311   6.138  -1.058 -0.4881 -0.4676  1.0076
   76MOL   C25924409   4.451   6.087  -1.084  0.0505  0.4090 -0.3057
   76MOL   C26024410   4.559   6.174  -1.113  0.6480  0.7141  0.2976
   76MOL   C26124411   4.690   6.133  -1.134 -0.6520  0.5162 -0.4567
   76MOL   C26224412   4.716   5.994  -1.115  0.1905  0.7944  0.6559
   76MOL   C26324413   4.860   5.938  -1.120  0.1324  0.5241  0.1954
   76MOL   C26424414   4.609   5.908  -1.077  0.2590  0.3244 -0.0198
   76MOL   C26524415   4.479   5.953  -1.072 -0.2960 -0.4490  0.1416
   76MOL   H26624416   4.293   6.240  -1.094 -1.7580 -1.4728 -1.2705
   76MOL   H26724417   4.241   6.080  -1.117  1.3727 -0.5551 -1.1879
   76MOL   H26824418   4.539   6.279  -1.123  0.9577  0.6325 -1.2378
   76MOL   H26924419   4.769   6.202  -1.162  0.8328 -1.0965 -0.2609
   76MOL   H27024420   4.930   6.021  -1.111 -0.3568  1.1184 -1.2627
   76MOL   H27124421   4.876   5.871  -1.035 -0.0862 -0.0605 -0.2229
   76MOL   H27224422   4.630   5.802  -1.065  0.9269  0.0263 -3.3533
   76MOL   H27324423   4.406   5.882  -1.036  0.1581 -1.2021 -0.3994
   76MOL   C27424424   4.887   5.860  -1.249 -0.1269  0.1319 -0.3852
   76MOL   C27524425   5.034   5.826  -1.261  0.0333  0.1807  0.1232
   76MOL   C27624426   5.118   5.900  -1.348 -0.3249 -0.4496 -0.0178
   76MOL   C27724427   5.252   5.859  -1.369 -0.3020 -0.1068 -0.1874
   76MOL   C27824428   5.301   5.741  -1.305  0.5916 -0.7438 -0.0166
   76MOL   C27924429   5.448   5.682  -1.331 -0.0282 -0.7568  0.0551
   76MOL   C28024430   5.217   5.673  -1.215 -0.1794 -0.0924  0.0531
   76MOL   C28124431   5.085   5.712  -1.201  0.3026  0.2245  0.1190
   76MOL   H28224432   4.820   5.773  -1.255  1.2938 -0.9516 -0.9747
   76MOL   H28324433   4.856   5.933  -1.324  0.3731  0.2568 -0.4719
   76MOL   H28424434   5.067   5.977  -1.405  0.7179 -0.3921 -0.8835
   76MOL   H28524435   5.313   5.905  -1.444  3.4184 -2.2748  1.3452
   76MOL   H28624436   5.516   5.767  -1.333 -0.8836 -0.0654  0.1967
   76MOL   H28724437   5.465   5.620  -1.243 -0.3188  0.0569  0.6934
   76MOL   H28824438   5.249   5.584  -1.162  1.6650  0.7941  0.4408
   76MOL   H28924439   5.030   5.653  -1.130  0.1448  1.9373  1.4460
   76MOL   C29024440   5.458   5.601  -1.467  0.6406 -0.1029 -0.2738
   76MOL   C29124441   5.597   5.547  -1.495  0.3059  0.1348 -1.0808
   76MOL   C29224442   5.661   5.586  -1.611  0.1686  0.4392 -0.5206
   76MOL   C29324443   5.793   5.547  -1.630 -0.3744 -0.2760 -0.4123
   76MOL   C29424444   5.866   5.474  -1.534  0.2545 -0.3587 -0.1368
   76MOL   C29524445   6.011   5.437  -1.550 -0.4478  0.1692  0.4830
   76MOL   C29624446   5.797   5.436  -1.419 -0.5917 -0.5886 -0.3727
   76MOL   C29724447   5.665   5.473  -1.397  0.6993  0.8854 -0.3393
   76MOL   H29824448   5.440   5.663  -1.555  2.7179  0.1457 -0.5424
   76MOL   H29924449   5.390   5.516  -1.477 -0.0265  0.3499  0.4093
   76MOL   H30024450   5.610   5.651  -1.681 -0.6917  2.3058  1.7662
   76MOL   H30124451   5.835   5.572  -1.726  0.9844  0.2377  0.3059
   76MOL   H30224452   6.071   5.527  -1.551 -1.4924  0.8802  1.5956
   76MOL   H30324453   6.035   5.368  -1.469  0.1960  0.3671  0.4600
   76MOL   H30424454   5.847   5.385  -1.338  1.1897 -1.0105 -1.7139
   76MOL   H30524455   5.624   5.442  -1.302  1.9025 -0.5496 -0.2637
   76MOL   C30624456   6.048   5.350  -1.676  0.2725  0.7490 -0.3181
   76MOL   C30724457   6.198   5.313  -1.693 -0.4086 -0.8074  0.0298
   76MOL   C30824458   6.277   5.383  -1.788 -0.4603 -0.5757 -0.4837
   76MOL   C30924459   6.411   5.350  -1.813 -0.2979  0.4393 -0.7790
   76MOL   C31024460   6.463   5.246  -1.737 -0.3699 -0.3723  0.0800
   76MOL   C31124461   6.607   5.208  -1.766  0.3570 -0.1877 -0.2281
   76MOL   C31224462   6.388   5.171  -1.648 -0.0841  0.4584 -0.3007
   76MOL   C31324463   6.261   5.208  -1.619  0.6511  0.6809  0.5407
   76MOL   H31424464   6.005   5.402  -1.762 -0.1598  1.5562  0.3721
   76MOL   H31524465   5.995   5.256  -1.662 -2.6412  2.2680 -0.5387
   76MOL   H31624466   6.230   5.466  -1.839 -0.6186 -1.0207 -1.0638
   76MOL   H31724467   6.466   5.413  -1.882 -1.3698  2.6885  0.3794
   76MOL   H31824468   6.655   5.156  -1.683  0.2180  0.1122  0.0405
   76MOL   H31924469   6.616   5.158  -1.863  1.6494 -0.0696 -0.1816
   76MOL   H32024470   6.421   5.078  -1.603  0.0556  0.2462 -0.8417
   76MOL   H32124471   6.199   5.147  -1.556 -1.4749  0.7962 -1.3859
   76MOL   H32224472   6.664   5.301  -1.775  0.5271 -0.3347 -0.7194
   77MOL     C124473   7.171   5.771   7.552  0.2859  0.0180 -0.5772
   77MOL     C224474   7.321   5.785   7.513 -0.4944  0.6886  0.2072
   77MOL     C324475   7.385   5.661   7.489  0.3823 -0.5501  0.4893
   77MOL     C424476   7.519   5.660   7.444 -0.5177  0.2585 -0.0396
   77MOL     C524477   7.589   5.784   7.451  0.2877 -0.5786 -0.2910
   77MOL     C624478   7.735   5.785   7.415  0.1463 -0.0536 -0.2547
   77MOL     C724479   7.527   5.909   7.479 -0.0768  0.3769 -0.2214
   77MOL     C824480   7.385   5.912   7.502  0.2370  0.0221  0.4970
   77MOL     H924481   7.135   5.863   7.598  0.3268  0.4601 -1.4266
   77MOL    H1024482   7.103   5.741   7.472  0.9074 -1.3603 -0.6124
   77MOL    H1124483   7.333   5.569   7.510 -3.3132  1.8633  2.4970
   77MOL    H1224484   7.576   5.574   7.413  0.3658  1.1289 -0.8669
   77MOL    H1324485   7.750   5.731   7.322  1.3045  1.2170 -0.8271
   77MOL    H1424486   7.757   5.890   7.395  1.5032  0.0507  1.6750
   77MOL    H1524487   7.579   6.003   7.481 -0.8458  0.8356 -1.3845
   77MOL    H1624488   7.325   6.001   7.490 -0.4235 -0.2968  1.4090
   77MOL    H1724489   7.175   5.693   7.628 -2.7827 -1.8434 -2.2226
   77MOL    C1824490   7.828   5.726   7.524 -0.6934  1.0386 -0.8303
   77MOL    C1924491   7.966   5.689   7.477 -0.0854  0.3837 -0.0480
   77MOL    C2024492   8.067   5.790   7.463  0.6227 -0.6456 -0.1931
   77MOL    C2124493   8.195   5.751   7.417  0.6071  0.1497  0.2604
   77MOL    C2224494   8.219   5.613   7.391 -0.3042  0.6632  0.9817
   77MOL    C2324495   8.356   5.574   7.345 -0.5707  0.2225  0.7261
   77MOL    C2424496   8.120   5.511   7.408  0.0407  0.7600 -0.0462
   77MOL    C2524497   7.992   5.556   7.441 -0.2803  0.9232  0.1034
   77MOL    H2624498   7.845   5.787   7.613  0.6845 -0.8196  0.2259
   77MOL    H2724499   7.772   5.638   7.555  2.3190 -0.4307  0.7027
   77MOL    H2824500   8.039   5.894   7.475  1.4745 -0.4915  0.5495
   77MOL    H2924501   8.266   5.832   7.404 -1.0856  1.8627  1.5307
   77MOL    H3024502   8.407   5.660   7.302 -1.0470 -0.5398 -1.4108
   77MOL    H3124503   8.362   5.493   7.272  3.3532  0.9504  0.1284
   77MOL    H3224504   8.130   5.408   7.379 -2.2101  0.3027  0.6997
   77MOL    H3324505   7.914   5.482   7.451 -0.4256  1.0525 -0.0578
   77MOL    C3424506   8.438   5.519   7.464  0.2314 -0.0094  0.0730
   77MOL    C3524507   8.583   5.498   7.434 -0.1848  0.2894 -0.1288
   77MOL    C3624508   8.678   5.600   7.443  0.1664  0.0568 -0.9972
   77MOL    C3724509   8.811   5.582   7.403 -0.3698 -0.4270 -0.4141
   77MOL    C3824510   8.843   5.463   7.338 -0.7113 -0.1986 -0.3159
   77MOL    C3924511   8.983   5.449   7.286 -0.4609  0.5892  0.0656
   77MOL    C4024512   8.748   5.354   7.335  0.1291 -0.5167 -0.8201
   77MOL    C4124513   8.620   5.371   7.386  0.1186 -0.0017  0.3889
   77MOL    H4224514   8.380   5.429   7.486  1.3264 -0.5995  0.5718
   77MOL    H4324515   8.422   5.578   7.554  2.4727  1.1261 -0.2244
   77MOL    H4424516   8.643   5.694   7.483  1.4908 -0.3551  1.1666
   77MOL    H4524517   8.872   5.671   7.398  0.1888 -0.9093 -2.6337
   77MOL    H4624518   8.976   5.382   7.200  1.1342 -1.0415  1.1511
   77MOL    H4724519   9.024   5.546   7.259  1.5386 -0.1860  0.1945
   77MOL    H4824520   8.770   5.264   7.280  2.2739 -1.1305  0.9895
   77MOL    H4924521   8.540   5.299   7.372 -0.5526  0.4440  1.8760
   77MOL    C5024522   9.075   5.388   7.395 -0.0221  0.1775 -0.6994
   77MOL    C5124523   9.218   5.355   7.356 -0.8005  0.0492  0.4820
   77MOL    C5224524   9.249   5.229   7.296  0.4068 -0.2268 -0.1309
   77MOL    C5324525   9.382   5.197   7.271 -0.1773 -0.0891  0.0324
   77MOL    C5424526   9.486   5.283   7.288  0.5549  0.1382 -1.5192
   77MOL    C5524527   9.629   5.259   7.245 -0.4167 -0.3757 -0.3930
   77MOL    C5624528   9.459   5.414   7.343  0.1948  0.4187 -1.3511
   77MOL    C5724529   9.327   5.450   7.379 -0.4082  0.7922 -0.8361
   77MOL    H5824530   9.021   5.297   7.420 -1.4765  0.6837 -1.9205
   77MOL    H5924531   9.079   5.459   7.478  0.2346 -0.6572  0.0033
   77MOL    H6024532   9.175   5.153   7.273  0.3969 -0.1034 -0.5061
   77MOL    H6124533   9.404   5.102   7.225 -1.6771 -0.5555  0.2762
   77MOL    H6224534   9.618   5.203   7.152 -1.2991  0.4271 -0.7720
   77MOL    H6324535   9.680   5.344   7.200 -0.3656 -0.3575 -0.3020
   77MOL    H6424536   9.536   5.490   7.349 -0.9955  1.6082 -1.0823
   77MOL    H6524537   9.305   5.551   7.412  0.6166  0.3093  1.4320
   77MOL    C6624538   9.706   5.190   7.357 -0.8208 -0.2814  0.9763
   77MOL    C6724539   9.848   5.147   7.317 -0.4960 -0.8822 -0.0850
   77MOL    C6824540   9.886   5.018   7.346 -0.9522 -0.5189 -0.0177
   77MOL    C6924541  10.011   4.973   7.298 -0.1626  0.0953  0.0789
   77MOL    C7024542  10.096   5.054   7.215  0.0302  0.0314  0.3265
   77MOL    C7124543  10.230   5.003   7.169  0.4585 -0.0390  0.4779
   77MOL    C7224544  10.053   5.185   7.190  0.1794 -0.6964  0.0902
   77MOL    C7324545   9.936   5.235   7.249  0.1194 -0.7923  0.2104
   77MOL    H7424546   9.647   5.108   7.398  1.0565 -2.7497 -1.0933
   77MOL    H7524547   9.715   5.261   7.440  2.0090  1.8444 -1.0369
   77MOL    H7624548   9.822   4.951   7.401 -0.2467 -0.2332  1.1788
   77MOL    H7724549  10.031   4.871   7.328 -1.4142 -0.3580 -0.6092
   77MOL    H7824550  10.273   5.072   7.096 -1.6035  0.8005  0.0187
   77MOL    H7924551  10.215   4.905   7.123 -1.0111  0.1281  0.5851
   77MOL    H8024552  10.111   5.262   7.142 -0.6250 -0.8964 -1.2078
   77MOL    H8124553   9.913   5.339   7.230 -0.7390 -1.5516 -3.3640
   77MOL    C8224554  10.325   4.995   7.287 -0.2473  0.1996  0.0344
   77MOL    C8324555  10.453   4.917   7.249 -0.7672 -0.0915  0.3919
   77MOL    C8424556  10.549   4.985   7.173  0.6253 -0.0382 -0.2460
   77MOL    C8524557  10.652   4.913   7.118 -0.0279  0.3595 -0.1966
   77MOL    C8624558  10.663   4.771   7.143  0.0859 -0.9060 -0.3114
   77MOL    C8724559  10.783   4.687   7.096 -0.7928  0.4641  0.4785
   77MOL    C8824560  10.571   4.704   7.235 -0.2361  0.3166 -1.0128
   77MOL    C8924561  10.465   4.779   7.285 -0.6064  0.3317 -0.1580
   77MOL    H9024562  10.278   4.958   7.378 -1.1791  1.7736  0.2010
   77MOL    H9124563  10.355   5.096   7.314 -2.2487  0.4558  1.3477
   77MOL    H9224564  10.527   5.086   7.142 -0.4044 -0.8858 -2.3690
   77MOL    H9324565  10.732   4.948   7.054  0.0748 -0.8923 -0.7727
   77MOL    H9424566  10.782   4.711   6.989  1.3284 -2.3172 -0.1900
   77MOL    H9524567  10.760   4.581   7.101  2.5533 -0.2912  0.7520
   77MOL    H9624568  10.593   4.602   7.264  1.0738  0.9720  0.3977
   77MOL    H9724569  10.386   4.731   7.342 -0.3799  0.8210  0.5611
   77MOL    C9824570  10.910   4.728   7.163  0.4130  0.6985 -1.2345
   77MOL    C9924571  11.020   4.642   7.109 -0.0902 -0.1532 -0.1183
   77MOL   C10024572  11.066   4.536   7.190  1.1763 -0.6154 -0.3068
   77MOL   C10124573  11.168   4.460   7.137 -0.2489 -0.5399  0.8773
   77MOL   C10224574  11.231   4.486   7.010  0.3677  0.2335 -0.4342
   77MOL   C10324575  11.339   4.398   6.967  0.2782 -0.6997 -0.0832
   77MOL   C10424576  11.178   4.591   6.936  0.8276 -0.1278  0.7465
   77MOL   C10524577  11.064   4.660   6.975 -0.2256 -0.2003 -1.3160
   77MOL   H10624578  10.908   4.723   7.272  1.5101 -0.7400 -1.2737
   77MOL   H10724579  10.936   4.830   7.133  1.3327  0.9138  0.2308
   77MOL   H10824580  11.012   4.507   7.278 -2.5011 -0.9681 -2.5683
   77MOL   H10924581  11.187   4.370   7.194  1.0193 -1.0780 -0.3515
   77MOL   H11024582  11.439   4.440   6.965  0.4212 -1.0343 -0.0718
   77MOL   H11124583  11.351   4.322   7.044 -0.1495 -0.5213  0.1596
   77MOL   H11224584  11.206   4.612   6.834 -0.2332  0.7456  0.6193
   77MOL   H11324585  11.010   4.725   6.907 -1.5101  0.7986  0.5817
   77MOL   C11424586  11.298   4.315   6.845  0.0474  0.4074 -0.4986
   77MOL   C11524587  11.406   4.214   6.797 -0.3127  0.8021 -0.0998
   77MOL   C11624588  11.397   4.076   6.808 -0.3059  0.0274  0.0626
   77MOL   C11724589  11.506   3.997   6.754 -0.5802 -0.2106 -0.4415
   77MOL   C11824590  11.614   4.060   6.684 -0.4856 -0.7727 -0.7974
   77MOL   C11924591  11.735   3.979   6.636  0.7056  0.3293 -0.0841
   77MOL   C12024592  11.619   4.204   6.679  0.1009 -0.2457 -0.8687
   77MOL   C12124593  11.519   4.279   6.747  0.2415 -0.4281 -0.3079
   77MOL   H12224594  11.283   4.380   6.758 -0.0182  0.8527 -0.1549
   77MOL   H12324595  11.210   4.260   6.879  1.0318  0.1094  1.6658
   77MOL   H12424596  11.307   4.033   6.848  1.3554 -2.7791  0.9771
   77MOL   H12524597  11.511   3.889   6.754 -0.7678 -0.2285 -1.3652
   77MOL   H12624598  11.826   4.032   6.662  0.2863 -0.2724  2.8230
   77MOL   H12724599  11.745   3.887   6.693 -1.8104 -1.9081 -3.0238
   77MOL   H12824600  11.699   4.264   6.639  0.4955 -1.9225 -2.6694
   77MOL   H12924601  11.529   4.385   6.763 -1.7612 -0.4177  1.1917
   77MOL   C13024602  11.737   3.938   6.491 -0.0111  0.0316 -0.2085
   77MOL   C13124603  11.867   3.854   6.468 -0.5791 -0.0696 -0.5595
   77MOL   C13224604  11.980   3.921   6.423 -0.1653  0.1857 -0.0768
   77MOL   C13324605  12.100   3.844   6.404 -0.0929  0.0449 -0.3014
   77MOL   C13424606  12.102   3.703   6.425 -0.5607 -0.5035 -0.0499
   77MOL   C13524607  12.229   3.628   6.397 -0.2705 -0.1729 -0.1310
   77MOL   C13624608  11.979   3.642   6.472  0.0742 -0.1494 -0.2596
   77MOL   C13724609  11.866   3.722   6.494 -0.3554 -0.0515 -0.0332
   77MOL   H13824610  11.749   4.027   6.428 -0.6386  0.8105  0.7565
   77MOL   H13924611  11.643   3.894   6.459 -0.2406  1.4378 -1.5428
   77MOL   H14024612  11.986   4.027   6.404  0.5439  0.2135  0.2935
   77MOL   H14124613  12.192   3.891   6.374 -0.2565  1.2473  1.0328
   77MOL   H14224614  12.317   3.689   6.416 -0.4164  0.0569 -0.1910
   77MOL   H14324615  12.241   3.537   6.456 -0.3188  0.4235  0.8026
   77MOL   H14424616  11.976   3.535   6.484  1.6282 -0.0855  0.8150
   77MOL   H14524617  11.777   3.672   6.529 -1.4376  0.6958 -1.6619
   77MOL   C14624618  12.222   3.577   6.249  0.4458 -0.2248  0.1247
   77MOL   C14724619  12.344   3.499   6.211 -0.1503 -0.3068  0.5091
   77MOL   C14824620  12.340   3.368   6.167 -0.5070 -0.2409  0.2017
   77MOL   C14924621  12.458   3.301   6.135 -0.9688 -0.1580  0.3556
   77MOL   C15024622  12.586   3.364   6.155 -0.5054  0.2386  0.1326
   77MOL   C15124623  12.721   3.293   6.123  0.2972 -0.0189  0.4520
   77MOL   C15224624  12.590   3.499   6.191  0.5256 -0.4761  0.6017
   77MOL   C15324625  12.472   3.563   6.221  0.3496 -0.5493  0.1405
   77MOL   H15424626  12.224   3.665   6.184 -0.8242 -0.1459  0.1759
   77MOL   H15524627  12.131   3.521   6.227  0.6992  0.0770 -1.7460
   77MOL   H15624628  12.241   3.324   6.164 -0.7765  0.2855  1.2734
   77MOL   H15724629  12.455   3.196   6.109 -0.5191  0.0068 -0.3862
   77MOL   H15824630  12.799   3.342   6.181  1.2919  1.1322 -1.7851
   77MOL   H15924631  12.727   3.186   6.145 -1.8490 -0.2271  0.1900
   77MOL   H16024632  12.684   3.551   6.205  0.9412 -1.0808  0.1190
   77MOL   H16124633  12.472   3.668   6.246  0.8203 -0.9683  2.0549
   77MOL   C16224634  12.766   3.317   5.986 -0.3393  0.2616  0.8194
   77MOL   C16324635  12.912   3.278   5.962  0.6417  0.2042 -0.1800
   77MOL   C16424636  13.021   3.372   5.967 -0.4305  0.1634 -0.3681
   77MOL   C16524637  13.156   3.323   5.941  0.7445  0.9019 -0.2898
   77MOL   C16624638  13.172   3.187   5.914 -0.9754 -0.5554  0.4479
   77MOL   C16724639  13.315   3.137   5.892  0.5178 -0.2094 -1.1928
   77MOL   C16824640  13.068   3.095   5.912  0.2132 -0.1946  0.3297
   77MOL   C16924641  12.938   3.139   5.939  0.5346  0.3192 -0.2473
   77MOL   H17024642  12.769   3.423   5.963 -0.1399  0.2864  0.9672
   77MOL   H17124643  12.700   3.267   5.914 -0.7295  1.3984  0.3732
   77MOL   H17224644  13.002   3.468   6.012  1.1370 -1.2858  3.6566
   77MOL   H17324645  13.238   3.390   5.959  1.1172 -0.2936  2.7316
   77MOL   H17424646  13.380   3.224   5.879  0.1065  0.0908 -1.2342
   77MOL   H17524647  13.349   3.076   5.976 -0.6364 -0.8934 -1.2101
   77MOL   H17624648  13.090   2.992   5.890 -1.1874 -1.2361  3.5194
   77MOL   H17724649  12.864   3.060   5.938  1.6427 -0.7190 -1.2102
   77MOL   C17824650  13.318   3.066   5.751  0.6613 -0.0092 -0.6803
   77MOL   C17924651  13.465   3.032   5.714  0.1444 -0.2836 -0.5488
   77MOL   C18024652  13.510   2.900   5.727 -0.0595  0.5640 -0.7457
   77MOL   C18124653  13.634   2.862   5.675 -1.0980  0.1835  1.0689
   77MOL   C18224654  13.723   2.958   5.623 -0.1144  1.2254 -0.5390
   77MOL   C18324655  13.855   2.911   5.566  0.5930 -0.0285 -1.1518
   77MOL   C18424656  13.686   3.094   5.617  0.1238 -0.5160 -1.5319
   77MOL   C18524657  13.559   3.131   5.667 -0.0662 -0.3758 -0.4939
   77MOL   H18624658  13.275   3.131   5.675  0.0021 -0.1226 -0.4015
   77MOL   H18724659  13.255   2.977   5.748  0.1980  0.3656 -3.0017
   77MOL   H18824660  13.449   2.816   5.758  2.4801 -0.7476  0.8807
   77MOL   H18924661  13.661   2.757   5.684 -3.1263 -0.2323  2.7423
   77MOL   H19024662  13.838   2.823   5.505  1.3385 -2.1333  1.5902
   77MOL   H19124663  13.888   2.992   5.501 -0.8781  2.4602  1.0587
   77MOL   H19224664  13.750   3.171   5.579 -0.8273  0.8793 -0.3855
   77MOL   H19324665  13.520   3.231   5.665 -0.0684 -0.3782 -0.5558
   77MOL   C19424666  13.959   2.883   5.678 -0.2650 -0.0117  0.2272
   77MOL   C19524667  14.107   2.863   5.641  1.5130 -0.1098 -0.4104
   77MOL   C19624668  14.181   2.792   5.735 -0.0225 -0.2463 -0.0402
   77MOL   C19724669  14.317   2.764   5.701 -0.0426  1.1016  0.7232
   77MOL   C19824670  14.373   2.806   5.575  0.1021  0.0910 -0.2485
   77MOL   C19924671  14.523   2.808   5.555  0.1796 -0.2530 -0.2920
   77MOL   C20024672  14.289   2.868   5.479  0.8182 -0.6056  0.6964
   77MOL   C20124673  14.151   2.897   5.510 -0.6516  0.4208  0.3552
   77MOL   H20224674  13.926   2.797   5.738  0.7330 -0.7033 -0.1966
   77MOL   H20324675  13.964   2.972   5.740 -0.0515 -0.3851  0.7517
   77MOL   H20424676  14.152   2.752   5.831  0.6537 -2.0971 -0.5830
   77MOL   H20524677  14.378   2.718   5.777  1.2989 -1.7873 -1.9732
   77MOL   H20624678  14.561   2.902   5.513  1.3823  0.2005  1.7600
   77MOL   H20724679  14.556   2.814   5.659 -0.0018 -0.9532 -0.1958
   77MOL   H20824680  14.324   2.921   5.391  2.5498 -0.0829  1.6698
   77MOL   H20924681  14.091   2.953   5.439  0.1968 -3.8252 -4.0144
   77MOL   C21024682  14.566   2.683   5.474 -0.1702 -0.1576  0.2892
   77MOL   C21124683  14.720   2.676   5.465  0.3248  0.6511 -0.7528
   77MOL   C21224684  14.798   2.738   5.366  0.8550 -0.0834 -0.4615
   77MOL   C21324685  14.938   2.726   5.363  0.1310  0.0187  0.4234
   77MOL   C21424686  15.001   2.656   5.468 -0.3909  0.8535 -0.5844
   77MOL   C21524687  15.151   2.643   5.465  0.1698  0.3413  0.4583
   77MOL   C21624688  14.922   2.600   5.568  0.0002  0.6759 -0.0944
   77MOL   C21724689  14.784   2.611   5.570 -0.1569  0.0785  0.0532
   77MOL   H21824690  14.520   2.692   5.376  0.1066  0.8553  0.2399
   77MOL   H21924691  14.528   2.590   5.514 -0.4830 -0.1653 -0.0194
   77MOL   H22024692  14.756   2.795   5.284  0.7889  0.0164 -0.3581
   77MOL   H22124693  14.987   2.768   5.277 -0.9546  0.9390  0.2313
   77MOL   H22224694  15.182   2.745   5.442 -0.5789  0.2997 -0.7625
   77MOL   H22324695  15.199   2.621   5.560  1.0876  1.4986  0.2780
   77MOL   H22424696  14.964   2.555   5.657 -3.1078  0.5424  1.3688
   77MOL   H22524697  14.734   2.570   5.657 -1.0298 -0.0010 -0.4857
   77MOL   C22624698  15.200   2.551   5.352  0.1210  0.4495 -0.1815
   77MOL   C22724699  15.350   2.537   5.337  0.2816  0.2984 -0.8778
   77MOL   C22824700  15.417   2.546   5.212 -0.9872  0.6496  0.3830
   77MOL   C22924701  15.551   2.509   5.201  0.5086  0.3521 -0.1041
   77MOL   C23024702  15.630   2.482   5.317  0.1642  0.9634 -0.0389
   77MOL   C23124703  15.779   2.450   5.305 -0.3031 -0.5023 -0.0622
   77MOL   C23224704  15.565   2.469   5.440  0.1209  0.5211 -0.1196
   77MOL   C23324705  15.421   2.486   5.447  0.1076 -0.3352  0.3020
   77MOL   H23424706  15.149   2.595   5.266 -2.2217  1.3982  1.6373
   77MOL   H23524707  15.150   2.455   5.367  1.4435 -0.0929  0.8345
   77MOL   H23624708  15.364   2.573   5.121 -1.4472  0.2559  0.5303
   77MOL   H23724709  15.598   2.529   5.106  2.4329 -1.6067  0.4187
   77MOL   H23824710  15.822   2.507   5.223 -0.7132  0.5141  0.4155
   77MOL   H23924711  15.825   2.493   5.394 -1.3121 -1.1406  0.7784
   77MOL   H24024712  15.627   2.443   5.525  2.2583 -1.8904 -2.3330
   77MOL   H24124713  15.372   2.466   5.540  0.3641 -2.0413  0.0756
   77MOL   C24224714  15.819   2.304   5.269  0.5942  0.3730 -0.5414
   77MOL   C24324715  15.971   2.285   5.257 -0.1453  0.4305  0.6881
   77MOL   C24424716  16.042   2.342   5.148  0.7813 -0.1454  0.2250
   77MOL   C24524717  16.180   2.309   5.129  0.2148  0.5951 -0.0344
   77MOL   C24624718  16.247   2.227   5.221 -0.0380  0.0868  0.2878
   77MOL   C24724719  16.394   2.188   5.190  0.1855 -0.2905  0.1498
   77MOL   C24824720  16.174   2.172   5.332 -0.5297 -0.1007  0.8580
   77MOL   C24924721  16.040   2.208   5.350  0.1900 -0.0355 -0.2007
   77MOL   H25024722  15.780   2.224   5.332  2.7552 -0.0279  0.3694
   77MOL   H25124723  15.785   2.280   5.169 -0.3948 -1.7613  0.2678
   77MOL   H25224724  15.981   2.409   5.088 -0.6890  0.4422  2.3396
   77MOL   H25324725  16.229   2.361   5.047 -1.8625  0.7784 -1.2076
   77MOL   H25424726  16.444   2.269   5.137 -2.4911  0.7635 -0.8396
   77MOL   H25524727  16.431   2.196   5.293  0.7637 -2.5259  0.1366
   77MOL   H25624728  16.218   2.105   5.405 -3.4810 -2.5387  0.4940
   77MOL   H25724729  15.985   2.177   5.437 -2.1758  1.4341 -1.1191
   77MOL   C25824730  16.407   2.043   5.135  0.0972  0.3504 -0.2398
   77MOL   C25924731  16.549   2.006   5.127  0.3699 -0.3524 -0.5401
   77MOL   C26024732  16.610   1.970   5.248  0.1210 -0.1480  0.5268
   77MOL   C26124733  16.745   1.920   5.247 -1.0134  0.1658  0.0288
   77MOL   C26224734  16.819   1.918   5.122 -0.1466  0.5381 -0.0551
   77MOL   C26324735  16.966   1.872   5.127  0.2505 -0.6724  0.6390
   77MOL   C26424736  16.755   1.956   5.002  0.0678 -0.4570  0.3759
   77MOL   C26524737  16.621   1.997   5.005 -0.0121  0.0791  0.1190
   77MOL   H26624738  16.359   2.031   5.038 -2.1265 -1.3558  1.0213
   77MOL   H26724739  16.346   1.985   5.204 -0.8105 -0.0748 -1.3730
   77MOL   H26824740  16.559   1.973   5.343 -2.5203 -1.2260 -0.8229
   77MOL   H26924741  16.791   1.899   5.342 -0.7830 -0.4303 -0.2118
   77MOL   H27024742  17.038   1.953   5.121 -2.4950  1.8508  0.9654
   77MOL   H27124743  16.983   1.837   5.228  0.7993 -2.4823 -0.0521
   77MOL   H27224744  16.799   1.956   4.904 -0.8427  0.3837 -0.0361
   77MOL   H27324745  16.570   2.023   4.913  2.7155  0.8330 -1.2062
   77MOL   C27424746  16.996   1.754   5.023  0.4551 -0.2820 -0.3260
   77MOL   C27524747  17.131   1.691   5.021 -0.8350  0.1345  0.0213
   77MOL   C27624748  17.247   1.768   5.053 -0.1719  0.3753  0.4258
   77MOL   C27724749  17.373   1.709   5.035 -0.1861  0.9271 -0.4533
   77MOL   C27824750  17.383   1.571   5.002 -0.4414 -0.2176 -0.4640
   77MOL   C27924751  17.518   1.497   4.987  0.6445 -0.1872 -0.2304
   77MOL   C28024752  17.267   1.501   4.979 -0.5181  0.0461 -0.3403
   77MOL   C28124753  17.135   1.563   4.983  0.3966 -0.0542  0.2390
   77MOL   H28224754  16.918   1.683   5.048  0.2684 -0.3945 -1.2151
   77MOL   H28324755  16.972   1.770   4.918  2.1731 -1.3421 -0.9042
   77MOL   H28424756  17.239   1.867   5.095 -0.9593 -0.1821  1.6172
   77MOL   H28524757  17.460   1.770   5.055 -1.1916  1.9646  0.8537
   77MOL   H28624758  17.513   1.425   4.906  0.0671  0.4996 -0.8091
   77MOL   H28724759  17.586   1.576   4.954 -0.7788  0.9337 -0.5303
   77MOL   H28824760  17.269   1.399   4.943  2.2743  0.4102 -1.3036
   77MOL   H28924761  17.047   1.503   4.965  0.0642 -0.6798  3.6871
   77MOL   C29024762  17.574   1.431   5.106  0.0404 -0.9379  0.3760
   77MOL   C29124763  17.708   1.361   5.103 -1.1662 -0.1322  0.3548
   77MOL   C29224764  17.815   1.425   5.171  0.1260  0.0801  0.4380
   77MOL   C29324765  17.947   1.373   5.155 -0.6946 -0.1914 -0.6774
   77MOL   C29424766  17.970   1.247   5.090  0.3162  0.2062 -0.1953
   77MOL   C29524767  18.096   1.171   5.100 -0.0095  0.2124  0.4025
   77MOL   C29624768  17.860   1.188   5.018  0.0547  0.4035 -0.4675
   77MOL   C29724769  17.730   1.244   5.026  0.7238 -0.3446  0.3493
   77MOL   H29824770  17.502   1.351   5.122  0.0276 -1.1347 -0.6318
   77MOL   H29924771  17.581   1.502   5.188  0.9132 -0.9485  0.3147
   77MOL   H30024772  17.795   1.515   5.227 -0.2289 -0.1358  0.6604
   77MOL   H30124773  18.031   1.421   5.203 -2.7671  1.0935  1.7509
   77MOL   H30224774  18.075   1.069   5.068  1.1444  0.1504 -0.1906
   77MOL   H30324775  18.169   1.212   5.030  1.7490 -1.2668  1.3248
   77MOL   H30424776  17.867   1.098   4.960  0.5995 -1.7712  2.8098
   77MOL   H30524777  17.656   1.202   4.961 -0.1775 -0.5545  1.4940
   77MOL   C30624778  18.149   1.166   5.240  0.0050 -0.5802  0.4378
   77MOL   C30724779  18.287   1.102   5.260 -0.3872 -0.3584  0.1564
   77MOL   C30824780  18.402   1.179   5.263  0.0762 -0.0585 -0.3140
   77MOL   C30924781  18.529   1.117   5.293 -0.0259 -0.1781  0.3922
   77MOL   C31024782  18.538   0.979   5.326 -0.4843 -0.0954 -0.4844
   77MOL   C31124783  18.666   0.918   5.381  0.8411 -0.0863  0.3982
   77MOL   C31224784  18.422   0.901   5.326 -0.3022 -0.5293 -0.1862
   77MOL   C31324785  18.298   0.966   5.288  0.2619 -0.0920 -0.5062
   77MOL   H31424786  18.070   1.109   5.289  1.2266 -1.9739  0.8268
   77MOL   H31524787  18.152   1.269   5.276 -1.1200 -0.8611  1.3835
   77MOL   H31624788  18.402   1.282   5.233 -1.2756  0.0080 -0.1032
   77MOL   H31724789  18.610   1.186   5.311  1.1225 -1.5864  0.7039
   77MOL   H31824790  18.645   0.872   5.478 -1.3518  1.4141  0.6779
   77MOL   H31924791  18.704   0.845   5.310  1.5580  3.0746 -2.5880
   77MOL   H32024792  18.430   0.795   5.345  0.6344 -0.4235  0.0030
   77MOL   H32124793  18.213   0.900   5.286  0.0871  0.1138 -0.0615
   77MOL   H32224794  18.735   1.000   5.402  0.6928  0.3729 -0.8451
   78MOL     C124795   5.506   7.248   7.468  0.1328 -0.5056  0.7245
   78MOL     C224796   5.366   7.263   7.518  0.7995  0.0292  0.2070
   78MOL     C324797   5.273   7.160   7.510 -0.3907  0.4855 -0.6398
   78MOL     C424798   5.139   7.190   7.533  0.5203  0.1064 -0.0863
   78MOL     C524799   5.100   7.315   7.579 -0.2171  0.1580 -0.1691
   78MOL     C624800   4.956   7.345   7.616 -0.5199  0.0906  0.0256
   78MOL     C724801   5.192   7.414   7.613 -0.5233 -0.5155  0.6906
   78MOL     C824802   5.326   7.387   7.573  0.2336  0.7568 -0.1593
   78MOL     H924803   5.541   7.322   7.397 -0.9536 -2.1632 -1.6147
   78MOL    H1024804   5.575   7.262   7.552  1.6496  0.0910 -0.6068
   78MOL    H1124805   5.303   7.066   7.465 -0.0033  0.0196  0.5677
   78MOL    H1224806   5.060   7.120   7.510  0.4563  1.2051 -3.4366
   78MOL    H1324807   4.902   7.252   7.628  0.2586 -0.2204  1.2153
   78MOL    H1424808   4.962   7.403   7.708  1.8838 -1.0560  0.6374
   78MOL    H1524809   5.162   7.513   7.644 -0.7748  0.1092 -1.4381
   78MOL    H1624810   5.396   7.468   7.588  0.4117  0.8498 -1.4636
   78MOL    H1724811   5.524   7.155   7.414 -2.5588 -0.2994 -0.6079
   78MOL    C1824812   4.879   7.425   7.497  0.6139  0.1383 -0.5378
   78MOL    C1924813   4.734   7.457   7.529 -0.1058 -0.7633  0.1442
   78MOL    C2024814   4.629   7.439   7.441  0.0773  0.7991 -0.2680
   78MOL    C2124815   4.498   7.473   7.471 -0.0553  0.2890 -0.3328
   78MOL    C2224816   4.461   7.515   7.600 -0.0971 -0.1255 -0.6735
   78MOL    C2324817   4.318   7.513   7.640  0.0259  0.2153 -0.1721
   78MOL    C2424818   4.565   7.545   7.688  0.0159 -0.1199 -0.3394
   78MOL    C2524819   4.705   7.524   7.651  0.3529  0.3323  0.4152
   78MOL    H2624820   4.910   7.528   7.482  0.2351  0.1206 -1.4440
   78MOL    H2724821   4.884   7.366   7.405  0.3424  1.3181 -1.3096
   78MOL    H2824822   4.653   7.402   7.343 -0.6355 -1.5541  0.4149
   78MOL    H2924823   4.427   7.464   7.391 -2.1549  1.3141  1.3551
   78MOL    H3024824   4.312   7.452   7.730 -1.8740  2.7038  1.4438
   78MOL    H3124825   4.261   7.465   7.560 -1.4242  3.5607 -1.1986
   78MOL    H3224826   4.526   7.593   7.777 -0.1948  1.7074 -1.3881
   78MOL    H3324827   4.781   7.549   7.724  0.2858  0.5390  0.4143
   78MOL    C3424828   4.274   7.651   7.676 -0.0285 -0.1300 -0.9311
   78MOL    C3524829   4.128   7.662   7.698  0.1783 -0.0932 -0.4917
   78MOL    C3624830   4.037   7.672   7.595  0.0710 -0.7379  0.1716
   78MOL    C3724831   3.902   7.683   7.621 -0.1271  0.6685  0.2721
   78MOL    C3824832   3.850   7.679   7.753 -0.1322  0.0363  0.7228
   78MOL    C3924833   3.703   7.687   7.779  0.1105 -0.2713  0.1975
   78MOL    C4024834   3.940   7.656   7.858  0.3371  0.1917 -0.4988
   78MOL    C4124835   4.080   7.644   7.831 -0.0786  0.2111 -0.2508
   78MOL    H4224836   4.286   7.718   7.591 -1.6751  1.0103 -0.2788
   78MOL    H4324837   4.328   7.701   7.757 -0.7230  0.3022 -0.7361
   78MOL    H4424838   4.071   7.663   7.493  0.0805  0.1669  0.0905
   78MOL    H4524839   3.826   7.694   7.544 -0.6092  0.1252  0.6707
   78MOL    H4624840   3.657   7.654   7.685  2.1708  1.4122 -1.4298
   78MOL    H4724841   3.670   7.625   7.862 -0.6368  1.1214  0.9513
   78MOL    H4824842   3.910   7.648   7.962  1.7509  1.6178  0.0350
   78MOL    H4924843   4.152   7.618   7.907 -1.0757 -0.8911  0.3276
   78MOL    C5024844   3.671   7.833   7.813 -0.1048  0.5979 -0.9574
   78MOL    C5124845   3.523   7.853   7.844 -0.5549  0.0745  0.8746
   78MOL    C5224846   3.481   7.872   7.974  0.6251 -0.7230  0.5386
   78MOL    C5324847   3.342   7.882   8.005 -0.2696  0.8183 -0.0875
   78MOL    C5424848   3.251   7.866   7.898 -0.3805 -0.2594  0.7610
   78MOL    C5524849   3.104   7.882   7.938  0.3292 -0.2397  0.2275
   78MOL    C5624850   3.295   7.853   7.764 -0.0822  0.8405 -0.3912
   78MOL    C5724851   3.429   7.857   7.736  0.7107  0.0662  0.3023
   78MOL    H5824852   3.692   7.892   7.724  2.1934  1.0743 -0.1306
   78MOL    H5924853   3.733   7.869   7.896  0.0870 -1.4826 -0.1620
   78MOL    H6024854   3.553   7.867   8.054 -0.9080  1.5440  2.1411
   78MOL    H6124855   3.299   7.892   8.104  0.2180  1.0281  0.1038
   78MOL    H6224856   3.034   7.811   7.894 -0.9777 -0.5864  2.8320
   78MOL    H6324857   3.093   7.864   8.045 -3.7156 -2.4071 -0.4561
   78MOL    H6424858   3.224   7.849   7.682 -2.1997 -2.4451  1.5036
   78MOL    H6524859   3.458   7.851   7.632  0.6507  0.8160  0.2416
   78MOL    C6624860   3.046   8.025   7.901  0.6732 -0.3431 -0.5538
   78MOL    C6724861   2.903   8.039   7.934 -0.4772  0.5208 -0.5796
   78MOL    C6824862   2.804   7.953   7.882  0.8804  0.6137 -0.9331
   78MOL    C6924863   2.668   7.956   7.936 -0.7379  0.1071 -0.4856
   78MOL    C7024864   2.635   8.066   8.030 -0.0686  0.5056 -0.1580
   78MOL    C7124865   2.493   8.086   8.074  0.3088 -0.1078 -0.1090
   78MOL    C7224866   2.739   8.152   8.071 -0.9309  0.8330 -0.4777
   78MOL    C7324867   2.875   8.143   8.024  0.2036  0.2377  0.5521
   78MOL    H7424868   3.075   8.049   7.799  1.8268 -0.2497 -0.2114
   78MOL    H7524869   3.096   8.098   7.965 -1.6513 -0.1688  1.1555
   78MOL    H7624870   2.826   7.875   7.811 -1.1174 -1.7846  1.0063
   78MOL    H7724871   2.594   7.887   7.900  1.3947 -2.3449 -0.3254
   78MOL    H7824872   2.507   8.105   8.180 -1.1422  0.5118 -0.0176
   78MOL    H7924873   2.432   7.996   8.059  0.8511 -0.6621  0.9416
   78MOL    H8024874   2.716   8.229   8.143  0.8031  0.3286  0.6534
   78MOL    H8124875   2.955   8.206   8.060  0.5924  0.7115 -1.0977
   78MOL    C8224876   2.427   8.205   8.005  0.0987 -0.1607  0.4090
   78MOL    C8324877   2.289   8.240   8.055  0.5357  0.5026 -0.1173
   78MOL    C8424878   2.270   8.344   8.152  0.3441  0.4781  0.6007
   78MOL    C8524879   2.146   8.373   8.202  0.0512 -0.1192  0.2259
   78MOL    C8624880   2.034   8.304   8.150  0.7459 -0.1831 -0.0452
   78MOL    C8724881   1.902   8.336   8.204 -0.0643 -0.6958 -0.1035
   78MOL    C8824882   2.050   8.195   8.060  0.2214  0.0895 -0.4672
   78MOL    C8924883   2.175   8.167   8.010  0.1608  0.9416 -0.1594
   78MOL    H9024884   2.425   8.184   7.899 -0.7041  0.5373  0.2757
   78MOL    H9124885   2.491   8.292   8.022 -2.2207  1.2809  2.1838
   78MOL    H9224886   2.350   8.402   8.196 -1.8015  6.3982 -2.6818
   78MOL    H9324887   2.141   8.443   8.285  1.7614 -0.1519  0.3600
   78MOL    H9424888   1.924   8.391   8.295  0.6526  1.6714 -1.6745
   78MOL    H9524889   1.852   8.241   8.222 -1.4227 -0.7778 -3.7792
   78MOL    H9624890   1.958   8.141   8.040  0.3636 -1.0763  1.8417
   78MOL    H9724891   2.178   8.085   7.940 -0.5629  0.9012 -0.1390
   78MOL    C9824892   1.808   8.416   8.110  0.1694  0.2734 -0.0192
   78MOL    C9924893   1.669   8.436   8.170  0.4327  0.2458 -0.2499
   78MOL   C10024894   1.562   8.348   8.144 -0.2461  0.7139 -0.2638
   78MOL   C10124895   1.431   8.373   8.197  0.0464 -0.4301  0.1194
   78MOL   C10224896   1.411   8.489   8.281 -0.1369  0.3251  0.3592
   78MOL   C10324897   1.272   8.513   8.328 -0.4304  0.4471 -0.4468
   78MOL   C10424898   1.518   8.575   8.301  0.3521  0.3773 -0.1033
   78MOL   C10524899   1.642   8.556   8.245  0.2611  0.1209 -0.3177
   78MOL   H10624900   1.802   8.370   8.012 -0.5480 -0.5354  0.3980
   78MOL   H10724901   1.842   8.518   8.093  0.1050 -0.0189 -1.9360
   78MOL   H10824902   1.573   8.257   8.088 -3.9130  0.1937 -0.2203
   78MOL   H10924903   1.342   8.318   8.171 -2.2649  2.0137  2.5852
   78MOL   H11024904   1.213   8.426   8.356 -0.9700  1.0584  0.3300
   78MOL   H11124905   1.281   8.577   8.416  0.1230  1.7346 -1.4229
   78MOL   H11224906   1.497   8.668   8.351 -0.9496  0.0716 -0.0506
   78MOL   H11324907   1.721   8.625   8.271  1.1461 -0.1259 -2.3330
   78MOL   C11424908   1.188   8.597   8.230 -0.1463 -0.5214 -0.1301
   78MOL   C11524909   1.051   8.624   8.287 -0.4057 -0.1615 -0.0641
   78MOL   C11624910   0.953   8.528   8.324 -0.0808  0.9389  0.3945
   78MOL   C11724911   0.832   8.553   8.391 -0.1780 -0.0549 -0.6348
   78MOL   C11824912   0.807   8.686   8.430  0.0543  0.4526 -0.3086
   78MOL   C11924913   0.669   8.723   8.490  0.2471  0.3899  0.7273
   78MOL   C12024914   0.898   8.785   8.390  0.8070  0.2087 -0.0535
   78MOL   C12124915   1.019   8.751   8.320 -0.0079 -0.4776  0.7045
   78MOL   H12224916   1.165   8.536   8.143 -0.0072 -0.4671 -0.2047
   78MOL   H12324917   1.245   8.690   8.221 -1.6650  0.7079  2.2293
   78MOL   H12424918   0.978   8.425   8.301  1.0008  1.1391  0.6360
   78MOL   H12524919   0.767   8.471   8.417  1.0258 -0.7199  0.2835
   78MOL   H12624920   0.600   8.639   8.479 -0.3523  0.6721  2.2736
   78MOL   H12724921   0.675   8.732   8.598 -3.0121  2.4825  0.7696
   78MOL   H12824922   0.890   8.888   8.422 -1.3944 -0.5873  2.0836
   78MOL   H12924923   1.092   8.830   8.311 -0.7638  0.1503  0.0297
   78MOL   C13024924   0.590   8.844   8.427  0.0963  0.1808  0.1487
   78MOL   C13124925   0.456   8.869   8.499  0.4506 -0.5321  1.0606
   78MOL   C13224926   0.435   8.981   8.581 -0.1005  0.1300  0.3552
   78MOL   C13324927   0.315   8.997   8.647  0.3802 -0.0393 -0.4705
   78MOL   C13424928   0.207   8.908   8.612 -0.0566  0.1105  0.2725
   78MOL   C13524929   0.065   8.938   8.642  0.9658 -0.2403  0.2137
   78MOL   C13624930   0.229   8.799   8.526  0.5111  0.0535  0.3479
   78MOL   C13724931   0.352   8.778   8.468 -1.1104 -0.0813  0.0315
   78MOL   H13824932   0.579   8.830   8.320  3.3892  0.3811 -0.2652
   78MOL   H13924933   0.647   8.936   8.440 -0.1486  0.3628 -0.0563
   78MOL   H14024934   0.512   9.055   8.597 -1.9992  2.3399 -0.3671
   78MOL   H14124935   0.296   9.081   8.712 -1.2360 -1.5158  1.0121
   78MOL   H14224936   0.021   8.839   8.654 -0.1866 -0.0477 -2.1788
   78MOL   H14324937   0.060   8.985   8.741 -0.6010 -0.9534  0.4794
   78MOL   H14424938   0.146   8.740   8.490 -1.1608  2.3693  0.3135
   78MOL   H14524939   0.375   8.691   8.409  2.2267  0.4409  0.4278
   78MOL   C14624940  -0.013   9.039   8.549 -0.5157  0.5076  0.1377
   78MOL   C14724941  -0.155   9.058   8.605 -0.1065 -0.0003  0.0067
   78MOL   C14824942  -0.257   8.969   8.570  0.3626  0.1257  0.0906
   78MOL   C14924943  -0.384   8.984   8.629 -0.4851 -0.2972 -0.7169
   78MOL   C15024944  -0.415   9.097   8.718 -0.9620 -0.6867  0.4498
   78MOL   C15124945  -0.544   9.129   8.788  1.0090  0.3550  0.6980
   78MOL   C15224946  -0.307   9.182   8.747 -0.3808 -0.5027 -0.2652
   78MOL   C15324947  -0.178   9.161   8.694 -0.2787 -0.4763  0.2030
   78MOL   H15424948  -0.023   8.997   8.449 -0.2282  2.4885 -0.7545
   78MOL   H15524949   0.036   9.134   8.526 -2.5298  1.4482 -0.3786
   78MOL   H15624950  -0.232   8.890   8.501  1.2838  1.5883 -1.2793
   78MOL   H15724951  -0.464   8.916   8.604  1.9388 -3.2322 -0.7696
   78MOL   H15824952  -0.538   9.079   8.885 -3.2088 -1.6210  0.0346
   78MOL   H15924953  -0.545   9.236   8.810  0.9277  0.3676  0.6327
   78MOL   H16024954  -0.320   9.273   8.805  1.6366 -0.4654  0.1677
   78MOL   H16124955  -0.101   9.235   8.712 -0.2534 -0.2302 -0.8555
   78MOL   C16224956  -0.673   9.073   8.722  0.1099 -0.3266 -0.3989
   78MOL   C16324957  -0.800   9.110   8.799  0.5045  0.1800 -0.7129
   78MOL   C16424958  -0.845   9.239   8.783  0.1897 -0.3395  0.5027
   78MOL   C16524959  -0.955   9.288   8.854 -0.6933  0.4873  0.0664
   78MOL   C16624960  -1.016   9.195   8.943  0.5359  0.1624 -0.0445
   78MOL   C16724961  -1.144   9.236   9.013  0.2324 -0.6420 -0.4487
   78MOL   C16824962  -0.974   9.062   8.955  0.0687  0.6991 -0.1371
   78MOL   C16924963  -0.870   9.016   8.880  0.2691 -0.4182 -0.4892
   78MOL   H17024964  -0.672   8.964   8.712 -0.9502 -0.5551  1.7457
   78MOL   H17124965  -0.692   9.104   8.619 -1.3199 -1.2949 -0.4425
   78MOL   H17224966  -0.808   9.296   8.699  1.1190 -2.0012 -0.2394
   78MOL   H17324967  -1.004   9.383   8.836  0.6901  1.0665 -0.7200
   78MOL   H17424968  -1.201   9.315   8.964  0.9803 -0.5706 -1.2073
   78MOL   H17524969  -1.210   9.149   9.015 -0.3810 -0.2231 -2.0148
   78MOL   H17624970  -1.028   8.995   9.021  1.8729 -2.6540 -1.9130
   78MOL   H17724971  -0.840   8.912   8.877  0.3568 -0.3514 -2.8921
   78MOL   C17824972  -1.127   9.284   9.163  0.1384 -0.0379  0.2899
   78MOL   C17924973  -1.261   9.304   9.237  0.2210  0.0775  0.2170
   78MOL   C18024974  -1.352   9.409   9.201 -0.5483 -0.1289 -0.9500
   78MOL   C18124975  -1.475   9.430   9.267  0.1721 -0.1287  0.3042
   78MOL   C18224976  -1.519   9.337   9.363 -0.6943  0.3430 -0.5125
   78MOL   C18324977  -1.663   9.342   9.418 -0.4440 -0.4131 -0.1539
   78MOL   C18424978  -1.423   9.237   9.403 -1.2749 -0.8027  0.1690
   78MOL   C18524979  -1.294   9.230   9.350 -0.3884 -0.0542 -0.7800
   78MOL   H18624980  -1.084   9.383   9.176  0.8550 -0.7296  3.5997
   78MOL   H18724981  -1.063   9.216   9.218  1.1616 -0.8258 -1.8317
   78MOL   H18824982  -1.320   9.475   9.122 -1.6301  2.5601  0.7833
   78MOL   H18924983  -1.533   9.517   9.242 -2.0809 -1.9926 -1.2202
   78MOL   H19024984  -1.665   9.309   9.522  2.5187 -0.4192 -0.0665
   78MOL   H19124985  -1.708   9.441   9.429  0.0170 -0.3231  0.9858
   78MOL   H19224986  -1.441   9.171   9.487  0.3352 -0.8387  0.5064
   78MOL   H19324987  -1.222   9.156   9.383 -0.0925 -0.7956 -2.9573
   78MOL   C19424988  -1.754   9.249   9.340  0.0458  0.7193  0.8509
   78MOL   C19524989  -1.903   9.260   9.389 -0.0636  0.0595  0.3424
   78MOL   C19624990  -1.952   9.191   9.499 -0.1606 -0.0586 -0.2907
   78MOL   C19724991  -2.092   9.199   9.525 -0.1776 -1.0620  0.1670
   78MOL   C19824992  -2.181   9.274   9.443 -0.5121  0.4466  0.8413
   78MOL   C19924993  -2.320   9.299   9.475 -0.6002 -0.3620  0.3346
   78MOL   C20024994  -2.125   9.351   9.340  0.6519 -0.3715  0.4039
   78MOL   C20124995  -1.986   9.345   9.313 -0.0699 -0.1573 -0.2448
   78MOL   H20224996  -1.729   9.144   9.355  0.2082  0.7690  0.9243
   78MOL   H20324997  -1.743   9.273   9.234 -1.7372  0.3120  0.5574
   78MOL   H20424998  -1.894   9.130   9.567  0.9765 -1.6998 -2.6560
   78MOL   H20524999  -2.139   9.156   9.613 -2.0614 -0.6977 -0.6323
   78MOL   H20625000  -2.319   9.379   9.549 -0.8284 -1.3697  1.4576
   78MOL   H20725001  -2.357   9.342   9.382  0.4478  1.4341  0.7361
   78MOL   H20825002  -2.191   9.404   9.273  0.2609  1.4588  2.2210
   78MOL   H20925003  -1.941   9.399   9.230  1.0722 -1.5714 -0.5566
   78MOL   C21025004  -2.404   9.172   9.518 -0.0053  0.2690 -1.0874
   78MOL   C21125005  -2.551   9.189   9.539 -0.1617 -0.2364  0.3991
   78MOL   C21225006  -2.633   9.213   9.421  0.1649 -0.5743 -0.5605
   78MOL   C21325007  -2.774   9.241   9.442 -1.4523  0.1552 -0.2395
   78MOL   C21425008  -2.836   9.216   9.569  0.2126 -0.2274  0.8900
   78MOL   C21525009  -2.981   9.232   9.594  0.6380 -0.1551  0.3621
   78MOL   C21625010  -2.754   9.187   9.680 -0.0613 -0.1469  0.2966
   78MOL   C21725011  -2.615   9.187   9.664 -0.0698 -0.4984 -0.2219
   78MOL   H21825012  -2.358   9.144   9.612 -0.9315 -2.1104 -1.3123
   78MOL   H21925013  -2.392   9.091   9.446  2.2963  0.3904 -0.8638
   78MOL   H22025014  -2.583   9.216   9.326 -0.7344 -0.6809 -1.0409
   78MOL   H22125015  -2.834   9.263   9.356 -0.0008  0.7563 -1.1088
   78MOL   H22225016  -3.043   9.196   9.512  1.6064 -1.5833  0.2497
   78MOL   H22325017  -3.018   9.176   9.679 -1.7158 -0.5444 -0.8752
   78MOL   H22425018  -2.793   9.164   9.778 -1.3168 -2.4885 -0.7204
   78MOL   H22525019  -2.548   9.178   9.748  0.0537 -0.4533 -0.3152
   78MOL   C22625020  -3.016   9.380   9.595  0.3994  0.1225 -0.0195
   78MOL   C22725021  -3.168   9.398   9.608  0.7633  0.3281 -0.8051
   78MOL   C22825022  -3.229   9.388   9.734 -0.0860 -0.2242 -0.8931
   78MOL   C22925023  -3.362   9.433   9.755 -0.5820  0.2936  0.1154
   78MOL   C23025024  -3.450   9.459   9.647 -0.6804  0.2519  0.5965
   78MOL   C23125025  -3.590   9.500   9.671  0.7148  0.1242  0.6751
   78MOL   C23225026  -3.391   9.463   9.518 -0.4921  0.0934 -0.4224
   78MOL   C23325027  -3.254   9.431   9.500 -0.8422 -0.1186 -0.5322
   78MOL   H23425028  -2.980   9.435   9.508  0.3412  0.0621 -0.0817
   78MOL   H23525029  -2.964   9.433   9.675  0.1060 -0.9392  0.8923
   78MOL   H23625030  -3.165   9.375   9.820  0.6531 -0.8583 -1.5358
   78MOL   H23725031  -3.400   9.427   9.856 -0.9167 -0.1676 -0.0354
   78MOL   H23825032  -3.656   9.444   9.605  0.3982  0.3579  0.7909
   78MOL   H23925033  -3.624   9.458   9.766 -1.0482  0.5409  0.2562
   78MOL   H24025034  -3.458   9.478   9.435 -0.4550  1.2783 -0.2602
   78MOL   H24125035  -3.218   9.442   9.399  1.8787 -1.7320  0.2193
   78MOL   C24225036  -3.614   9.648   9.661 -0.1162 -0.0240 -0.5101
   78MOL   C24325037  -3.763   9.660   9.673 -0.3771  0.4586  0.1099
   78MOL   C24425038  -3.843   9.684   9.562  0.4544  0.2186  0.0163
   78MOL   C24525039  -3.982   9.709   9.582 -1.0290  0.5250  0.6797
   78MOL   C24625040  -4.048   9.714   9.710 -0.5111 -0.2631  0.0121
   78MOL   C24725041  -4.199   9.734   9.731 -0.1906  0.0805 -0.0322
   78MOL   C24825042  -3.959   9.700   9.818 -0.3622  0.4278  0.4220
   78MOL   C24925043  -3.824   9.667   9.802 -0.8872  0.3188  0.7404
   78MOL   H25025044  -3.563   9.703   9.741 -0.1214 -1.2361  0.3465
   78MOL   H25125045  -3.578   9.684   9.565 -0.5917  0.8658 -0.3629
   78MOL   H25225046  -3.793   9.680   9.466  1.0075 -2.1971  0.3831
   78MOL   H25325047  -4.035   9.737   9.492 -0.7251  2.3904  1.0634
   78MOL   H25425048  -4.237   9.704   9.633  0.4938  1.0033 -0.5833
   78MOL   H25525049  -4.239   9.669   9.809 -0.6456  1.6091  1.0440
   78MOL   H25625050  -3.996   9.701   9.920  0.6984 -1.8940  0.8660
   78MOL   H25725051  -3.769   9.657   9.894  0.2367  0.3146  0.0705
   78MOL   C25825052  -4.240   9.879   9.748 -0.0584  0.1422 -0.0878
   78MOL   C25925053  -4.394   9.893   9.764 -0.3635 -0.0410 -0.4010
   78MOL   C26025054  -4.450   9.876   9.892  0.4229  0.2148 -0.9198
   78MOL   C26125055  -4.589   9.901   9.911 -0.0266  0.5973  0.4507
   78MOL   C26225056  -4.669   9.937   9.803  0.1605  0.0398  0.2206
   78MOL   C26325057  -4.820   9.956   9.823 -0.6127  0.4287  0.4955
   78MOL   C26425058  -4.616   9.935   9.672 -0.3753 -0.2988 -0.0876
   78MOL   C26525059  -4.477   9.925   9.657  0.2581  0.2407  0.4050
   78MOL   H26625060  -4.194   9.950   9.680  0.4983  0.4680  0.6152
   78MOL   H26725061  -4.190   9.896   9.844  1.5268 -0.7974 -0.7325
   78MOL   H26825062  -4.390   9.853   9.979 -1.1096  4.0579  1.2622
   78MOL   H26925063  -4.638   9.887  10.006  3.1549  0.1106  2.0953
   78MOL   H27025064  -4.866   9.946   9.725 -0.1739 -2.0649  0.5181
   78MOL   H27125065  -4.850   9.870   9.882  1.1585 -0.3264  0.3258
   78MOL   H27225066  -4.674   9.970   9.588  1.7060 -0.2732 -1.5546
   78MOL   H27325067  -4.436   9.943   9.558 -1.2630 -1.2258 -0.5290
   78MOL   C27425068  -4.858  10.094   9.884  0.4006 -0.6025  0.0281
   78MOL   C27525069  -5.006  10.103   9.880 -0.5969 -0.4281 -0.0124
   78MOL   C27625070  -5.083  10.079   9.995  0.7204  0.2028  1.0460
   78MOL   C27725071  -5.221  10.098   9.999 -0.3629 -0.3371 -0.2554
   78MOL   C27825072  -5.285  10.125   9.883  0.0695 -0.4609 -0.2116
   78MOL   C27925073  -5.437  10.154   9.874 -0.2915  0.3925  0.0497
   78MOL   C28025074  -5.214  10.152   9.766 -0.2098  0.7181  0.2920
   78MOL   C28125075  -5.075  10.147   9.768 -0.6248  0.0760 -0.0343
   78MOL   H28225076  -4.820  10.098   9.986  0.2860  1.5518  0.0108
   78MOL   H28325077  -4.799  10.171   9.834 -0.6401 -0.6730 -1.3452
   78MOL   H28425078  -5.040  10.058  10.092  1.1209  0.0270  0.8272
   78MOL   H28525079  -5.273  10.089  10.093  0.0213 -2.7219 -0.2298
   78MOL   H28625080  -5.474  10.122   9.777  0.8528 -2.8301  0.6114
   78MOL   H28725081  -5.473  10.088   9.953  3.1297  2.2317  3.3302
   78MOL   H28825082  -5.263  10.173   9.672  1.8637 -0.1496 -0.9936
   78MOL   H28925083  -5.031  10.186   9.677  0.4975  3.6787  1.9761
   78MOL   C29025084  -5.469  10.296   9.912  0.4720 -0.0040  0.3703
   78MOL   C29125085  -5.623  10.317   9.916  0.8497 -0.5825 -0.7856
   78MOL   C29225086  -5.690  10.393   9.813 -0.5926  0.4866  0.4044
   78MOL   C29325087  -5.820  10.431   9.823  0.1169  0.8985 -0.0628
   78MOL   C29425088  -5.898  10.393   9.934 -0.0601  0.3202 -0.1308
   78MOL   C29525089  -6.040  10.421   9.935  0.6080  0.1146 -0.0453
   78MOL   C29625090  -5.834  10.324  10.039  0.9796  0.4024  0.3543
   78MOL   C29725091  -5.698  10.285  10.037  0.2298 -0.6162 -0.2110
   78MOL   H29825092  -5.419  10.370   9.849  1.6505 -0.2027  1.0719
   78MOL   H29925093  -5.423  10.327  10.006  0.8812  1.4580 -0.2969
   78MOL   H30025094  -5.637  10.415   9.721  0.6926 -2.7927  0.2792
   78MOL   H30125095  -5.871  10.488   9.747 -2.0433 -1.2947 -0.3063
   78MOL   H30225096  -6.087  10.414   9.838  0.5015  1.4598 -0.0962
   78MOL   H30325097  -6.091  10.352  10.002 -1.7512  1.6073 -0.2503
   78MOL   H30425098  -5.899  10.297  10.121 -0.1144  0.6075 -0.4251
   78MOL   H30525099  -5.640  10.236  10.114  1.2455 -1.4875 -1.5002
   78MOL   C30625100  -6.065  10.571   9.971 -0.0206  0.1478 -0.2889
   78MOL   C30725101  -6.216  10.590   9.968  0.3747 -0.3213  0.2511
   78MOL   C30825102  -6.272  10.681   9.874 -0.7416 -0.1226  0.8743
   78MOL   C30925103  -6.412  10.710   9.875 -0.4548  0.3485  0.1510
   78MOL   C31025104  -6.497  10.644   9.969  0.5703 -0.3149  0.7836
   78MOL   C31125105  -6.642  10.674   9.977  0.1742 -0.1314 -0.1664
   78MOL   C31225106  -6.439  10.542  10.047  0.5377 -0.4334  0.3814
   78MOL   C31325107  -6.306  10.511  10.046 -0.0677 -0.4222  0.0847
   78MOL   H31425108  -6.031  10.633   9.888 -1.6681  0.6808 -0.5895
   78MOL   H31525109  -6.021  10.608  10.064 -2.2801  2.0820  0.0662
   78MOL   H31625110  -6.202  10.723   9.803 -1.1238 -0.2640  0.4119
   78MOL   H31725111  -6.466  10.782   9.815 -2.8893 -0.3106  1.5004
   78MOL   H31825112  -6.670  10.730  10.066  1.3032  0.8416 -0.4139
   78MOL   H31925113  -6.685  10.725   9.890  0.7814  0.3497 -0.1846
   78MOL   H32025114  -6.504  10.489  10.115 -0.1007  0.1968  0.2588
   78MOL   H32125115  -6.269  10.433  10.111  1.0910  0.3835  0.4041
   78MOL   H32225116  -6.694  10.578   9.970 -1.8785  0.9089  0.3991
   79MOL     C125117   6.662   6.404   2.718  0.0016  1.1638 -0.3069
   79MOL     C225118   6.787   6.333   2.755 -0.3724 -0.6083 -0.4321
   79MOL     C325119   6.846   6.372   2.877 -0.6426 -0.3748  0.3170
   79MOL     C425120   6.963   6.300   2.919  0.2807  0.3822  0.0831
   79MOL     C525121   7.025   6.212   2.825  0.6103  0.1449 -0.2962
   79MOL     C625122   7.156   6.153   2.860  0.1838  0.0557 -0.8285
   79MOL     C725123   6.961   6.185   2.697  0.5230  0.2108  0.1462
   79MOL     C825124   6.839   6.237   2.663 -0.0541 -0.4580  0.1396
   79MOL     H925125   6.635   6.397   2.612 -0.8440 -0.3758 -0.0089
   79MOL    H1025126   6.576   6.358   2.767  1.0216  1.0712  1.4060
   79MOL    H1125127   6.791   6.445   2.935 -2.9562 -1.9368  0.1528
   79MOL    H1225128   6.999   6.303   3.020  0.5386 -2.5102  0.1224
   79MOL    H1325129   7.142   6.082   2.942  2.7429  0.9791  0.4653
   79MOL    H1425130   7.200   6.098   2.777 -3.0022 -0.8648 -1.9990
   79MOL    H1525131   7.013   6.114   2.634 -0.7583  0.3618 -1.0911
   79MOL    H1625132   6.786   6.204   2.575  1.3063  0.3998 -1.0178
   79MOL    H1725133   6.666   6.511   2.737 -0.2235  0.7442  2.1571
   79MOL    C1825134   7.262   6.256   2.895 -0.6177 -0.3443 -0.2260
   79MOL    C1925135   7.401   6.196   2.921  0.1219  0.5169 -0.2936
   79MOL    C2025136   7.428   6.117   3.031 -0.1948  0.5120 -0.3357
   79MOL    C2125137   7.554   6.060   3.049  0.1200 -0.0709 -0.3090
   79MOL    C2225138   7.649   6.065   2.946 -0.1184  0.2892  0.4368
   79MOL    C2325139   7.775   5.983   2.964 -0.2751  0.4764  0.7726
   79MOL    C2425140   7.624   6.142   2.831  0.4449  0.0807  0.9440
   79MOL    C2525141   7.500   6.214   2.818 -0.8040  0.4513 -0.0945
   79MOL    H2625142   7.263   6.331   2.815  0.6476  0.5508  0.6136
   79MOL    H2725143   7.238   6.311   2.985  1.6010  0.8964 -0.3612
   79MOL    H2825144   7.357   6.085   3.107  2.3583 -3.1689  0.6752
   79MOL    H2925145   7.566   5.995   3.134  1.5536 -0.9153 -1.1212
   79MOL    H3025146   7.790   5.923   2.874 -2.2781  1.8721 -0.5301
   79MOL    H3125147   7.762   5.909   3.043 -1.0062  0.8851  1.0424
   79MOL    H3225148   7.692   6.140   2.747 -1.1966  1.6215 -0.4714
   79MOL    H3325149   7.483   6.278   2.732 -1.2940  0.0208 -0.3169
   79MOL    C3425150   7.888   6.077   3.007 -1.1114 -0.0163 -0.0818
   79MOL    C3525151   8.023   6.007   3.034  0.1903  0.2626 -0.4206
   79MOL    C3625152   8.055   5.961   3.164 -0.0701 -0.0414  0.1511
   79MOL    C3725153   8.183   5.902   3.183  0.8147 -0.3455  0.5554
   79MOL    C3825154   8.276   5.906   3.077  0.3357 -0.2732  0.4973
   79MOL    C3925155   8.412   5.839   3.092  0.5255 -0.6646  0.9491
   79MOL    C4025156   8.237   5.959   2.947  0.7854 -0.0244  0.2017
   79MOL    C4125157   8.109   6.005   2.928  0.1429 -0.3712 -0.0806
   79MOL    H4225158   7.867   6.136   3.097  0.5686 -2.5187  2.0068
   79MOL    H4325159   7.911   6.146   2.926  2.4008  0.5235  1.3139
   79MOL    H4425160   7.981   5.962   3.243 -0.1026  1.8560  0.1189
   79MOL    H4525161   8.219   5.871   3.280  1.5808  0.3358  0.4919
   79MOL    H4625162   8.485   5.908   3.051  2.2632 -2.9932  0.0677
   79MOL    H4725163   8.433   5.848   3.199 -0.2716  2.7151  0.8843
   79MOL    H4825164   8.305   5.961   2.863  2.3049 -3.6286  1.2347
   79MOL    H4925165   8.075   6.042   2.832  0.5248 -1.9862 -0.8514
   79MOL    C5025166   8.433   5.710   3.014 -0.6707 -0.3214 -0.6913
   79MOL    C5125167   8.579   5.663   3.023  0.4165 -0.5983 -0.6933
   79MOL    C5225168   8.605   5.538   3.077 -0.0888  0.0556 -0.3655
   79MOL    C5325169   8.740   5.490   3.076 -0.3086  0.0588 -0.4763
   79MOL    C5425170   8.847   5.574   3.034  0.1813 -0.0835 -1.0006
   79MOL    C5525171   8.992   5.531   3.057 -0.0216 -0.5952 -0.8186
   79MOL    C5625172   8.816   5.703   2.994  0.0960  0.3881 -0.3632
   79MOL    C5725173   8.684   5.744   2.979 -0.2168  0.6821 -0.0464
   79MOL    H5825174   8.430   5.739   2.909  0.7761 -1.9285 -1.1945
   79MOL    H5925175   8.355   5.636   3.033  0.3202 -1.1106  0.3287
   79MOL    H6025176   8.523   5.480   3.115 -1.1807  0.9035 -1.3849
   79MOL    H6125177   8.758   5.388   3.105 -0.2880  0.1167 -0.2874
   79MOL    H6225178   9.061   5.613   3.077 -1.0187 -0.0573  0.5661
   79MOL    H6325179   8.984   5.468   3.146  1.2533  0.4305  0.0332
   79MOL    H6425180   8.900   5.763   2.961 -0.1765  0.6389 -0.6068
   79MOL    H6525181   8.673   5.839   2.930  0.1100  0.5452 -0.3885
   79MOL    C6625182   9.048   5.444   2.946 -0.4328  0.0195 -0.3224
   79MOL    C6725183   9.195   5.423   2.952  0.1248 -0.1582 -0.6505
   79MOL    C6825184   9.287   5.483   2.864  0.2932  0.0268 -0.6291
   79MOL    C6925185   9.423   5.445   2.880  0.0459 -0.0773  0.2845
   79MOL    C7025186   9.466   5.358   2.984 -0.0111  0.4067 -0.1025
   79MOL    C7125187   9.614   5.323   2.999 -0.1084  0.2086 -0.3043
   79MOL    C7225188   9.371   5.313   3.084 -0.1794 -0.3048  0.5559
   79MOL    C7325189   9.237   5.344   3.062 -0.2408 -0.2051 -0.6244
   79MOL    H7425190   9.032   5.507   2.858  1.3960  2.1505  0.8161
   79MOL    H7525191   8.999   5.348   2.928 -1.1611 -0.0568  1.9916
   79MOL    H7625192   9.268   5.545   2.777  0.2087  1.6655  0.5238
   79MOL    H7725193   9.499   5.484   2.814 -1.4326 -1.0980 -2.0906
   79MOL    H7825194   9.649   5.298   3.099  1.1842 -0.2506 -0.8714
   79MOL    H7925195   9.671   5.412   2.973 -1.1944  0.3881 -2.2172
   79MOL    H8025196   9.396   5.262   3.176 -1.5372  0.7573  1.5370
   79MOL    H8125197   9.179   5.297   3.140 -0.1052 -1.3680 -1.2049
   79MOL    C8225198   9.655   5.215   2.899 -0.0307 -0.2204  0.4943
   79MOL    C8325199   9.801   5.183   2.912 -0.7764 -0.1999 -0.1030
   79MOL    C8425200   9.840   5.091   3.011 -0.7821 -0.2380 -0.7733
   79MOL    C8525201   9.978   5.063   3.030  0.0292 -0.4780  0.8970
   79MOL    C8625202  10.072   5.116   2.946  0.1988 -0.5434  0.5138
   79MOL    C8725203  10.216   5.092   2.976 -0.3455 -0.7569 -0.3564
   79MOL    C8825204  10.037   5.204   2.842  0.0034  0.3876  0.0456
   79MOL    C8925205   9.903   5.234   2.821  0.0110 -0.3943  0.1278
   79MOL    H9025206   9.635   5.237   2.794  1.6567 -0.5939  0.0848
   79MOL    H9125207   9.606   5.122   2.926  0.6519  0.7181  5.3713
   79MOL    H9225208   9.767   5.049   3.078 -0.1195 -1.5320 -0.8420
   79MOL    H9325209  10.006   5.012   3.121  0.6204  0.0941  1.0457
   79MOL    H9425210  10.264   5.086   2.879 -1.5156  1.0240 -1.0633
   79MOL    H9525211  10.226   4.999   3.034  1.4862 -0.8248 -0.7534
   79MOL    H9625212  10.115   5.260   2.793  0.4977  0.3463  0.7749
   79MOL    H9725213   9.875   5.304   2.744  3.3568 -0.3744 -1.1346
   79MOL    C9825214  10.292   5.200   3.062  0.3003 -0.3695 -0.8091
   79MOL    C9925215  10.436   5.162   3.098  0.2120  0.8869  0.2352
   79MOL   C10025216  10.452   5.046   3.173 -0.2291  0.0794  0.6544
   79MOL   C10125217  10.581   5.004   3.209  0.0086  0.2015 -0.3909
   79MOL   C10225218  10.696   5.072   3.164  0.2920 -0.7847 -0.3358
   79MOL   C10325219  10.838   5.025   3.183  0.0821 -0.6157 -0.0246
   79MOL   C10425220  10.667   5.182   3.078 -1.0079 -0.3203 -0.2644
   79MOL   C10525221  10.542   5.232   3.049 -0.2244  0.1936 -0.2323
   79MOL   H10625222  10.234   5.228   3.150  1.6764 -1.0855  0.3259
   79MOL   H10725223  10.300   5.292   3.004  1.1947 -0.0337 -0.1566
   79MOL   H10825224  10.373   4.982   3.210 -0.8009  0.4715  0.1282
   79MOL   H10925225  10.597   4.925   3.281 -1.6881  1.4599  1.4188
   79MOL   H11025226  10.827   4.921   3.215 -1.2304 -0.2544  0.7456
   79MOL   H11125227  10.903   5.025   3.096  1.2630  0.0812  0.8469
   79MOL   H11225228  10.748   5.240   3.037 -0.8027 -0.0855  0.4594
   79MOL   H11325229  10.536   5.321   2.989 -0.8001 -0.8288 -1.7393
   79MOL   C11425230  10.897   5.097   3.310  0.6944  0.1174  0.6613
   79MOL   C11525231  11.044   5.079   3.346  0.2743  0.4449  0.0417
   79MOL   C11625232  11.094   4.945   3.365  0.2020 -0.4528 -0.1234
   79MOL   C11725233  11.225   4.933   3.418  0.7283 -0.8918 -0.2061
   79MOL   C11825234  11.299   5.039   3.459 -0.1249  0.4822 -0.3710
   79MOL   C11925235  11.430   5.010   3.531  0.6724  0.2536 -0.3360
   79MOL   C12025236  11.249   5.171   3.436  0.4392 -0.3120  0.6778
   79MOL   C12125237  11.125   5.192   3.371  1.0099  0.2390 -0.6575
   79MOL   H12225238  10.837   5.065   3.395 -0.4313  0.0722 -0.1297
   79MOL   H12325239  10.887   5.204   3.289 -1.0864 -0.4575 -1.7162
   79MOL   H12425240  11.032   4.856   3.357 -0.3905 -0.0420 -0.1356
   79MOL   H12525241  11.252   4.833   3.448  4.0669  0.6911  2.2896
   79MOL   H12625242  11.458   5.110   3.565 -0.1312 -0.1311  1.5523
   79MOL   H12725243  11.410   4.955   3.624  2.1783  0.6270  0.2211
   79MOL   H12825244  11.301   5.260   3.467 -0.4068  0.0068  1.2069
   79MOL   H12925245  11.088   5.293   3.356  2.5354  1.0097  0.6284
   79MOL   C13025246  11.541   4.954   3.438  0.3705 -0.4263 -0.5521
   79MOL   C13125247  11.681   4.961   3.495 -0.1240 -0.1336  0.6854
   79MOL   C13225248  11.742   5.088   3.514 -0.0734 -0.0144 -0.2724
   79MOL   C13325249  11.874   5.093   3.551  0.5808 -0.3153  0.3125
   79MOL   C13425250  11.946   4.970   3.573  0.0002  0.0078 -0.0535
   79MOL   C13525251  12.094   4.978   3.606 -0.0479 -0.6326  0.3770
   79MOL   C13625252  11.883   4.847   3.567  0.2833  0.6939 -0.9232
   79MOL   C13725253  11.750   4.842   3.526 -0.1729 -0.5617  0.6202
   79MOL   H13825254  11.542   5.021   3.352 -1.5271 -1.4852 -1.4314
   79MOL   H13925255  11.510   4.858   3.397  1.3654 -0.6619 -0.7633
   79MOL   H14025256  11.681   5.174   3.491 -0.1312 -0.1740 -0.7190
   79MOL   H14125257  11.914   5.193   3.564 -0.5263 -0.0290  1.6419
   79MOL   H14225258  12.156   4.889   3.593  1.2815  0.0146  2.2606
   79MOL   H14325259  12.130   5.054   3.537 -1.9829 -0.3322 -0.3294
   79MOL   H14425260  11.937   4.755   3.585 -0.4473  0.3494 -0.4518
   79MOL   H14525261  11.700   4.748   3.506 -2.1222  0.1713  1.8836
   79MOL   C14625262  12.116   5.035   3.744 -0.5242 -0.5302 -0.0768
   79MOL   C14725263  12.258   5.078   3.773 -0.1758  0.1699 -0.9325
   79MOL   C14825264  12.313   5.173   3.685 -0.1564 -1.0854 -0.7411
   79MOL   C14925265  12.451   5.214   3.703 -0.1905 -0.0484 -0.2598
   79MOL   C15025266  12.528   5.162   3.810  0.0203  0.5265 -0.0789
   79MOL   C15125267  12.679   5.174   3.829  0.3154  0.4257  0.0164
   79MOL   C15225268  12.466   5.069   3.894  0.1054  0.0937 -0.3721
   79MOL   C15325269  12.331   5.025   3.878  0.4418 -0.8798 -0.2308
   79MOL   H15425270  12.068   4.962   3.811 -0.4941  1.2212  1.9098
   79MOL   H15525271  12.057   5.127   3.750 -1.6038 -1.1317 -1.1440
   79MOL   H15625272  12.263   5.207   3.596  2.3649 -1.0477 -2.1880
   79MOL   H15725273  12.502   5.270   3.625 -0.0982  0.9020  0.4695
   79MOL   H15825274  12.706   5.266   3.777  1.6709  0.5474  0.9182
   79MOL   H15925275  12.713   5.176   3.932  0.8195 -1.1542 -0.0992
   79MOL   H16025276  12.525   5.052   3.983  0.6745  1.8552 -0.3833
   79MOL   H16125277  12.282   4.954   3.943 -0.5923 -2.1414 -2.3489
   79MOL   C16225278  12.753   5.058   3.762  0.1785  0.5769  0.3077
   79MOL   C16325279  12.904   5.066   3.781  0.1189 -0.6337 -0.0277
   79MOL   C16425280  12.968   5.000   3.885 -0.1443 -0.4086  0.9046
   79MOL   C16525281  13.107   5.032   3.896  0.2152 -0.6371 -0.0635
   79MOL   C16625282  13.178   5.122   3.816 -0.4380 -0.5585 -0.5302
   79MOL   C16725283  13.324   5.155   3.839 -0.1735  0.3397 -0.2404
   79MOL   C16825284  13.108   5.178   3.713  0.2971  0.0089  0.2828
   79MOL   C16925285  12.973   5.143   3.687 -0.8377  0.1504  0.1583
   79MOL   H17025286  12.723   5.041   3.659  3.0448  0.7280 -0.5826
   79MOL   H17125287  12.714   4.964   3.804 -2.3663  1.6866  0.5215
   79MOL   H17225288  12.927   4.934   3.959 -0.2244  0.4059  1.6043
   79MOL   H17325289  13.167   4.990   3.976 -1.5352 -1.2913  0.9233
   79MOL   H17425290  13.368   5.223   3.766  1.4978 -0.2272  0.1940
   79MOL   H17525291  13.333   5.208   3.934 -2.1078 -0.5078  0.4435
   79MOL   H17625292  13.158   5.238   3.639  1.8849 -1.1590  0.3977
   79MOL   H17725293  12.912   5.185   3.608 -1.3632  1.4925  1.2496
   79MOL   C17825294  13.406   5.032   3.838 -0.1229 -0.5656 -1.2209
   79MOL   C17925295  13.556   5.060   3.871  0.3384 -0.3216 -0.7071
   79MOL   C18025296  13.616   5.185   3.847  0.5245  0.0494  0.6934
   79MOL   C18125297  13.753   5.205   3.851  0.0931 -0.0874  0.4512
   79MOL   C18225298  13.835   5.092   3.867  0.3716  0.0804 -0.3868
   79MOL   C18325299  13.989   5.103   3.851  0.0133 -0.4558  0.0704
   79MOL   C18425300  13.780   4.970   3.892 -0.6131 -0.0564  0.5174
   79MOL   C18525301  13.639   4.949   3.903  0.0323  0.0503  0.4709
   79MOL   H18625302  13.380   5.003   3.737  0.0586 -1.3809 -1.0367
   79MOL   H18725303  13.364   4.959   3.907  1.7065 -0.1969  0.3495
   79MOL   H18825304  13.563   5.279   3.846 -0.4446 -0.4842 -2.0036
   79MOL   H18925305  13.801   5.301   3.843  0.2379 -0.1058  1.0757
   79MOL   H19025306  14.020   4.999   3.836 -0.7977 -0.5538 -1.0198
   79MOL   H19125307  14.034   5.166   3.774  1.0279  1.5172  2.2430
   79MOL   H19225308  13.843   4.883   3.910  0.3281  0.6974  0.8900
   79MOL   H19325309  13.607   4.850   3.932  0.3502 -0.2849 -0.2996
   79MOL   C19425310  14.057   5.152   3.986 -0.9704  0.1248  0.4604
   79MOL   C19525311  14.208   5.144   3.988  0.2066  0.3400  0.8065
   79MOL   C19625312  14.284   5.264   3.957  0.2983 -0.2858 -0.0225
   79MOL   C19725313  14.421   5.265   3.948 -0.5861 -0.3789 -0.9903
   79MOL   C19825314  14.495   5.154   3.986  0.5102  0.2452  0.3760
   79MOL   C19925315  14.646   5.166   3.976 -0.2692 -0.1478  0.6782
   79MOL   C20025316  14.426   5.032   4.014  0.1980  0.0138  0.2831
   79MOL   C20125317  14.283   5.030   4.008 -0.7817  0.0345  0.3679
   79MOL   H20225318  14.028   5.102   4.079 -0.7100 -1.4367 -0.2749
   79MOL   H20325319  14.033   5.256   4.005 -0.1940 -0.0951  2.7522
   79MOL   H20425320  14.223   5.349   3.930  1.0140  0.7508  1.5496
   79MOL   H20525321  14.468   5.357   3.916 -1.7981  1.1317  1.4128
   79MOL   H20625322  14.670   5.059   3.982 -1.9711 -0.7602 -2.4154
   79MOL   H20725323  14.676   5.198   3.876 -2.7324 -3.8949 -1.3996
   79MOL   H20825324  14.488   4.946   4.038 -2.6716 -1.6734  1.8903
   79MOL   H20925325  14.237   4.934   4.026  1.4055 -1.3414 -1.1253
   79MOL   C21025326  14.700   5.259   4.083  0.3161  0.6507 -0.3124
   79MOL   C21125327  14.852   5.261   4.099  0.1440 -0.5579  0.0351
   79MOL   C21225328  14.940   5.267   3.984 -0.2664 -0.3704 -0.1417
   79MOL   C21325329  15.082   5.258   4.002  0.3821 -0.0117 -0.3104
   79MOL   C21425330  15.132   5.238   4.131  0.0357  0.0582  0.2567
   79MOL   C21525331  15.279   5.232   4.147 -0.6060  0.0991  0.5466
   79MOL   C21625332  15.048   5.235   4.241  0.8028 -0.2057  0.4217
   79MOL   C21725333  14.910   5.256   4.230  1.2171  0.4000  0.2864
   79MOL   H21825334  14.652   5.227   4.175  0.7502 -0.3065 -0.4206
   79MOL   H21925335  14.654   5.355   4.058 -0.1021  0.6369  0.3890
   79MOL   H22025336  14.906   5.263   3.882  0.0917 -0.6529 -0.2504
   79MOL   H22125337  15.147   5.269   3.916 -1.4871  0.6924 -1.6850
   79MOL   H22225338  15.289   5.206   4.252  1.5386 -0.6478  0.1919
   79MOL   H22325339  15.314   5.157   4.076  0.1341  1.8805 -1.0264
   79MOL   H22425340  15.093   5.224   4.339 -0.8434 -1.8816  1.0284
   79MOL   H22525341  14.841   5.265   4.312  0.4150  2.6644 -0.5833
   79MOL   C22625342  15.357   5.364   4.117  0.1609 -0.1397  0.4167
   79MOL   C22725343  15.508   5.346   4.110  0.5650  0.5037  0.4052
   79MOL   C22825344  15.577   5.386   3.996  0.0301  0.5074  0.7729
   79MOL   C22925345  15.722   5.380   3.995 -0.3729 -0.5331 -0.2816
   79MOL   C23025346  15.792   5.315   4.098 -0.5099 -0.6351 -0.0723
   79MOL   C23125347  15.941   5.324   4.103 -0.2006 -0.0036 -0.0373
   79MOL   C23225348  15.719   5.256   4.203 -0.2319 -0.7485  0.3272
   79MOL   C23325349  15.579   5.271   4.209  0.4994 -0.2205 -0.2701
   79MOL   H23425350  15.336   5.442   4.190 -1.1169  0.8577 -0.9884
   79MOL   H23525351  15.328   5.392   4.016 -0.2519 -2.3532 -0.1032
   79MOL   H23625352  15.524   5.445   3.923 -1.6750 -1.8326  0.0397
   79MOL   H23725353  15.779   5.432   3.919  0.0674 -0.9544 -0.2446
   79MOL   H23825354  15.977   5.427   4.116  0.8686 -0.5311  1.3444
   79MOL   H23925355  15.971   5.270   4.193 -1.9305 -0.0859  0.5122
   79MOL   H24025356  15.773   5.203   4.279  0.7806 -2.7347 -1.7180
   79MOL   H24125357  15.531   5.229   4.297 -0.0332  2.7477  0.9221
   79MOL   C24225358  16.009   5.281   3.983 -0.4688 -0.0250  0.5519
   79MOL   C24325359  16.155   5.244   4.000 -0.3087  0.2276 -0.0998
   79MOL   C24425360  16.227   5.192   3.891 -1.0496 -0.0620  0.4876
   79MOL   C24525361  16.362   5.163   3.903 -0.1630 -0.8460 -0.3972
   79MOL   C24625362  16.435   5.192   4.024 -0.5167 -0.3321 -0.5090
   79MOL   C24725363  16.584   5.168   4.038 -0.1478 -0.9759 -0.7506
   79MOL   C24825364  16.366   5.248   4.132 -0.3754  0.0289 -0.0453
   79MOL   C24925365  16.228   5.274   4.117 -0.2938 -0.2181 -0.8377
   79MOL   H25025366  15.955   5.190   3.958  2.5738 -1.6316 -0.3954
   79MOL   H25125367  15.993   5.353   3.903 -0.7404  0.0244  0.6475
   79MOL   H25225368  16.185   5.174   3.793  1.1925 -1.8286 -0.2025
   79MOL   H25325369  16.412   5.125   3.815  1.6248 -1.6559  0.9422
   79MOL   H25425370  16.617   5.146   4.139  1.0735  0.0900 -0.9125
   79MOL   H25525371  16.605   5.083   3.973  1.9424 -1.0801  0.0320
   79MOL   H25625372  16.404   5.268   4.231 -0.4592 -0.5050  0.0969
   79MOL   H25725373  16.180   5.327   4.198 -0.1870 -1.3171 -0.0385
   79MOL   C25825374  16.670   5.282   3.987 -0.3763  0.0707 -0.0244
   79MOL   C25925375  16.817   5.244   3.983  0.0510 -0.5100  0.5511
   79MOL   C26025376  16.913   5.316   4.062  0.3962  0.6635  0.4296
   79MOL   C26125377  17.048   5.286   4.057 -0.1819  0.1193 -0.1437
   79MOL   C26225378  17.091   5.173   3.986  0.2936  0.4160 -0.5123
   79MOL   C26325379  17.235   5.131   3.985 -0.2149  0.9539  0.2797
   79MOL   C26425380  16.997   5.096   3.919 -0.7329 -0.1311 -0.4511
   79MOL   C26525381  16.860   5.131   3.908 -0.6611 -0.2924 -0.2716
   79MOL   H26625382  16.645   5.376   4.037  0.1997  1.5855 -2.4758
   79MOL   H26725383  16.633   5.299   3.886 -1.6217  2.3852  0.7689
   79MOL   H26825384  16.876   5.395   4.125  2.5300 -0.2226  2.8515
   79MOL   H26925385  17.116   5.345   4.117 -0.0864  0.1882 -0.3188
   79MOL   H27025386  17.261   5.066   4.069 -0.6395 -0.8747 -0.9811
   79MOL   H27125387  17.250   5.065   3.900 -0.1538  1.3660 -0.0343
   79MOL   H27225388  17.030   5.004   3.874  1.2356  0.9908 -1.3986
   79MOL   H27325389  16.792   5.059   3.866  0.3965 -0.8966 -0.9724
   79MOL   C27425390  17.345   5.239   3.960 -0.2135 -0.4165  0.1543
   79MOL   C27525391  17.482   5.187   3.921 -0.7009  0.6751 -0.7844
   79MOL   C27625392  17.557   5.103   4.003 -0.7488  0.1025  0.1142
   79MOL   C27725393  17.692   5.064   3.970  0.1329 -0.5377  0.6453
   79MOL   C27825394  17.744   5.097   3.844 -0.0741  0.2065 -0.1945
   79MOL   C27925395  17.880   5.031   3.815 -0.7329  0.3291  0.0235
   79MOL   C28025396  17.673   5.189   3.763 -0.0095 -0.0972  0.2525
   79MOL   C28125397  17.547   5.237   3.806 -0.1315 -0.3879 -0.0441
   79MOL   H28225398  17.296   5.297   3.882 -0.2701 -0.2592  0.3083
   79MOL   H28325399  17.362   5.309   4.042  1.3040 -1.6606  0.9321
   79MOL   H28425400  17.501   5.070   4.090 -0.7684 -1.1460 -0.3549
   79MOL   H28525401  17.744   4.998   4.038  0.4083  0.1540  1.1196
   79MOL   H28625402  17.883   4.934   3.866 -0.2729  0.4754  0.2788
   79MOL   H28725403  17.897   5.017   3.708  0.7225 -0.1216  0.3107
   79MOL   H28825404  17.718   5.233   3.675  0.4129 -1.2656 -0.1274
   79MOL   H28925405  17.493   5.308   3.746  1.2340 -1.9208 -3.2176
   79MOL   C29025406  17.987   5.116   3.875 -0.2299 -0.1092  0.2210
   79MOL   C29125407  18.123   5.050   3.889 -0.5202  0.2390  0.2971
   79MOL   C29225408  18.137   4.926   3.967  0.2654 -0.3140  0.7851
   79MOL   C29325409  18.261   4.870   3.984  0.5104 -0.2477 -0.4640
   79MOL   C29425410  18.375   4.932   3.922  0.2344 -0.1746 -1.0316
   79MOL   C29525411  18.511   4.869   3.950  0.1358  0.0531  0.5771
   79MOL   C29625412  18.362   5.048   3.849 -0.6788 -0.0582  0.1744
   79MOL   C29725413  18.238   5.109   3.830  0.2455  0.2875  0.2823
   79MOL   H29825414  17.966   5.132   3.981  0.5761 -2.6295  0.8021
   79MOL   H29925415  17.988   5.216   3.831  0.6575 -0.7723 -1.3066
   79MOL   H30025416  18.049   4.885   4.015 -1.2259 -1.9924 -3.1584
   79MOL   H30125417  18.262   4.779   4.042 -1.9282  1.3654  2.2331
   79MOL   H30225418  18.494   4.766   3.979 -1.2381 -0.2052 -1.0149
   79MOL   H30325419  18.573   4.864   3.860  1.4066  1.7529  1.3378
   79MOL   H30425420  18.446   5.087   3.794 -1.6681 -0.4973 -1.6906
   79MOL   H30525421  18.235   5.202   3.774  0.1073  1.3923  2.1043
   79MOL   C30625422  18.581   4.947   4.063  0.6784 -0.5532  0.2932
   79MOL   C30725423  18.724   4.910   4.104 -0.4454  0.2061 -1.0292
   79MOL   C30825424  18.823   4.904   4.003 -0.5594  0.5008 -0.2645
   79MOL   C30925425  18.957   4.880   4.043  0.6467 -0.3454  0.2339
   79MOL   C31025426  18.989   4.844   4.179  0.0029  0.4145 -0.3177
   79MOL   C31125427  19.133   4.804   4.223  0.4759 -0.7706  0.0080
   79MOL   C31225428  18.886   4.849   4.280  0.3694  0.6132 -0.3435
   79MOL   C31325429  18.751   4.879   4.238  0.2848  0.3178  0.2704
   79MOL   H31425430  18.516   4.952   4.151  0.5526 -1.2805  0.2377
   79MOL   H31525431  18.589   5.053   4.038  0.5763 -0.4734  0.5944
   79MOL   H31625432  18.799   4.928   3.900  0.1304 -0.7435 -0.7332
   79MOL   H31725433  19.030   4.887   3.965 -0.4367 -1.2803 -0.8810
   79MOL   H31825434  19.190   4.895   4.244  2.2130 -2.4047  2.5507
   79MOL   H31925435  19.140   4.735   4.307 -2.2981 -0.4140  0.5964
   79MOL   H32025436  18.905   4.834   4.385 -0.7551  0.9945 -0.0830
   79MOL   H32125437  18.679   4.881   4.317 -1.1052  1.0181 -0.9878
   79MOL   H32225438  19.185   4.754   4.141 -0.5673 -1.7032 -0.0989
   80MOL     C125439   6.185   0.927   0.607 -0.4104 -0.6670  0.2790
   80MOL     C225440   6.327   0.878   0.606  0.4548  0.0865 -0.2265
   80MOL     C325441   6.358   0.773   0.517 -0.1255  0.2000  0.2726
   80MOL     C425442   6.494   0.728   0.505  0.3910  0.5519 -0.2681
   80MOL     C525443   6.603   0.793   0.571 -0.4240 -0.7939  0.2592
   80MOL     C625444   6.746   0.762   0.537  0.1236  0.1292  0.4818
   80MOL     C725445   6.573   0.905   0.655  0.0541 -0.7756 -0.4499
   80MOL     C825446   6.437   0.949   0.669  0.3030  0.7336  0.7569
   80MOL     H925447   6.171   1.030   0.640 -1.7042 -0.9624  0.6557
   80MOL    H1025448   6.126   0.893   0.523  2.7045 -1.8990 -1.5101
   80MOL    H1125449   6.283   0.718   0.462 -0.3220 -0.3416  1.0556
   80MOL    H1225450   6.514   0.661   0.423  0.3564  0.8239 -0.5020
   80MOL    H1325451   6.754   0.679   0.467  0.0723  0.2047  0.3866
   80MOL    H1425452   6.795   0.847   0.489 -1.8222  1.0649  0.0892
   80MOL    H1525453   6.653   0.970   0.686 -0.8292  0.0691  0.0942
   80MOL    H1625454   6.406   1.036   0.725 -0.3464  1.0973 -0.1478
   80MOL    H1725455   6.144   0.882   0.698  1.2243 -0.1674  1.2983
   80MOL    C1825456   6.830   0.725   0.653  0.0886 -0.1326 -0.2826
   80MOL    C1925457   6.979   0.705   0.619  0.6262 -0.4964  0.5735
   80MOL    C2025458   7.055   0.818   0.586  0.0644  0.1281  0.7371
   80MOL    C2125459   7.192   0.804   0.564  0.0835 -0.1371 -0.0168
   80MOL    C2225460   7.259   0.679   0.579 -0.3678 -0.0655 -0.3535
   80MOL    C2325461   7.409   0.672   0.556  0.1104  0.4116  0.2431
   80MOL    C2425462   7.180   0.571   0.621  0.2810  1.0824  0.1960
   80MOL    C2525463   7.039   0.582   0.633  0.0907  0.1093  1.0870
   80MOL    H2625464   6.833   0.802   0.731 -2.8842 -1.3825  1.1687
   80MOL    H2725465   6.792   0.637   0.705 -1.4082  0.5513 -0.1887
   80MOL    H2825466   7.007   0.915   0.589  0.1589  0.2281 -0.4941
   80MOL    H2925467   7.243   0.895   0.537 -0.9333  0.2194 -0.7352
   80MOL    H3025468   7.451   0.599   0.626 -0.2522 -0.4838 -0.4535
   80MOL    H3125469   7.447   0.773   0.572 -1.2567  0.6242  2.2740
   80MOL    H3225470   7.240   0.482   0.636  1.5084  1.4278 -2.2822
   80MOL    H3325471   6.984   0.496   0.666  0.3955 -0.6935 -0.4566
   80MOL    C3425472   7.437   0.630   0.414  0.3205 -0.4705 -0.5838
   80MOL    C3525473   7.587   0.597   0.402  0.4919  0.4118 -0.4036
   80MOL    C3625474   7.641   0.472   0.442 -0.4311  0.3092 -0.7160
   80MOL    C3725475   7.780   0.447   0.435  0.3498 -0.2430  0.1275
   80MOL    C3825476   7.867   0.543   0.388 -0.1841  0.6678 -0.1150
   80MOL    C3925477   8.017   0.505   0.393  0.0090  0.6781 -0.1197
   80MOL    C4025478   7.816   0.667   0.352 -0.0364 -0.5363 -0.6872
   80MOL    C4125479   7.676   0.697   0.354 -0.4168 -0.2572 -0.0171
   80MOL    H4225480   7.403   0.704   0.341 -1.6739 -1.9304 -1.1750
   80MOL    H4325481   7.378   0.539   0.405  0.2903 -0.4839 -0.2479
   80MOL    H4425482   7.580   0.386   0.466  1.7428 -1.1081 -0.2005
   80MOL    H4525483   7.804   0.350   0.475  1.4602  0.8145  2.0890
   80MOL    H4625484   8.072   0.563   0.467  1.9102 -0.0190 -0.9551
   80MOL    H4725485   8.027   0.402   0.429 -0.2720  1.0905  1.1535
   80MOL    H4825486   7.886   0.747   0.329 -1.2933  0.2687 -1.7781
   80MOL    H4925487   7.636   0.793   0.326 -0.7995  0.2566  2.2051
   80MOL    C5025488   8.075   0.516   0.253  0.6399 -0.2810 -0.3898
   80MOL    C5125489   8.216   0.455   0.256  0.4184 -0.1525 -0.2371
   80MOL    C5225490   8.319   0.545   0.252  0.1484  0.3434  0.1794
   80MOL    C5325491   8.450   0.495   0.243  0.7974 -0.5101  0.4172
   80MOL    C5425492   8.479   0.359   0.244 -0.2149  0.0387  0.4014
   80MOL    C5525493   8.619   0.308   0.231 -0.2761 -0.3962 -0.1456
   80MOL    C5625494   8.370   0.265   0.255  0.0561 -0.1284  0.0060
   80MOL    C5725495   8.238   0.316   0.262 -0.1078 -0.2475 -0.1976
   80MOL    H5825496   8.063   0.617   0.215 -0.7149 -0.7904 -1.3279
   80MOL    H5925497   8.016   0.451   0.188  1.5305 -0.1116 -1.3749
   80MOL    H6025498   8.297   0.651   0.247  1.8711  0.6957 -0.5006
   80MOL    H6125499   8.530   0.567   0.234 -0.0754  0.7529  2.4202
   80MOL    H6225500   8.695   0.338   0.302 -0.8504 -0.7852  0.6365
   80MOL    H6325501   8.621   0.199   0.240  0.3961 -0.2000  2.3662
   80MOL    H6425502   8.384   0.159   0.266  0.3514 -0.2577 -1.5465
   80MOL    H6525503   8.157   0.245   0.268 -0.0316 -0.3582 -0.4653
   80MOL    C6625504   8.679   0.334   0.094  0.0848  0.3419  0.4629
   80MOL    C6725505   8.823   0.287   0.074 -0.0459 -0.0456  0.1650
   80MOL    C6825506   8.924   0.381   0.055 -0.3637  0.2543 -0.6662
   80MOL    C6925507   9.058   0.332   0.033 -0.4117  0.4332 -0.3141
   80MOL    C7025508   9.088   0.197   0.034  0.0682  0.9372  0.0224
   80MOL    C7125509   9.235   0.150   0.038 -0.0913 -0.2056  0.0435
   80MOL    C7225510   8.985   0.105   0.052 -0.4074 -0.3228  0.5910
   80MOL    C7325511   8.853   0.152   0.066 -0.5049  0.3414 -0.3709
   80MOL    H7425512   8.669   0.441   0.073 -0.1505 -0.5079 -4.0704
   80MOL    H7525513   8.619   0.283   0.019  1.7438  0.2066 -0.8027
   80MOL    H7625514   8.912   0.488   0.059 -0.7560  0.2256 -1.1307
   80MOL    H7725515   9.140   0.402   0.029  0.0642 -0.1653 -1.4607
   80MOL    H7825516   9.220   0.043   0.025 -0.2417 -0.1552 -0.2066
   80MOL    H7925517   9.282   0.166   0.134  0.5932 -1.6229 -0.0479
   80MOL    H8025518   9.004  -0.001   0.063  0.1553 -0.2792  0.0481
   80MOL    H8125519   8.780   0.076   0.087  1.6484 -1.3307  1.3340
   80MOL    C8225520   9.311   0.195  -0.084  0.4175  0.0359  0.0708
   80MOL    C8325521   9.456   0.140  -0.080  0.2206  1.0254  0.3723
   80MOL    C8425522   9.570   0.226  -0.082  0.2836  0.1193  0.7319
   80MOL    C8525523   9.707   0.178  -0.091 -0.0503  0.2703 -0.0532
   80MOL    C8625524   9.734   0.037  -0.094 -0.3256 -0.0727 -0.2341
   80MOL    C8725525   9.877  -0.016  -0.088  0.6528 -0.7440 -0.0519
   80MOL    C8825526   9.622  -0.049  -0.089 -0.0098 -0.8396  0.2113
   80MOL    C8925527   9.490   0.003  -0.097 -0.3805 -0.1404  0.4338
   80MOL    H9025528   9.313   0.300  -0.113 -1.5999  0.1220  0.1670
   80MOL    H9125529   9.260   0.149  -0.169  0.0234 -3.1012  1.9312
   80MOL    H9225530   9.560   0.333  -0.075  1.7799  0.2929  0.3008
   80MOL    H9325531   9.792   0.245  -0.088  1.6650 -1.9024  1.0109
   80MOL    H9425532   9.871  -0.124  -0.070 -2.3492 -1.1060 -2.7283
   80MOL    H9525533   9.935   0.020  -0.003 -1.6044  0.7119  0.9022
   80MOL    H9625534   9.645  -0.154  -0.079  0.7533 -0.4166  3.4929
   80MOL    H9725535   9.415  -0.075  -0.103 -0.0660 -0.3207 -1.3252
   80MOL    C9825536   9.953   0.014  -0.219 -0.3341  0.0093  0.3453
   80MOL    C9925537  10.094  -0.048  -0.231  0.1912  0.3189  1.0587
   80MOL   C10025538  10.096  -0.190  -0.220  0.2842 -0.5267  0.0883
   80MOL   C10125539  10.222  -0.257  -0.233  0.2890  0.9479 -0.0977
   80MOL   C10225540  10.342  -0.181  -0.253 -0.5342 -0.0909  0.2460
   80MOL   C10325541  10.474  -0.257  -0.264  0.7180  0.3244 -0.5270
   80MOL   C10425542  10.332  -0.044  -0.267 -0.7088  0.2831 -0.2843
   80MOL   C10525543  10.212   0.028  -0.258 -0.5344  0.7155 -0.0049
   80MOL   H10625544   9.945   0.118  -0.250  1.4078  0.2081  0.5226
   80MOL   H10725545   9.894  -0.034  -0.297  1.8775  0.8738 -1.9491
   80MOL   H10825546  10.007  -0.247  -0.196  0.4560  0.0641  2.2828
   80MOL   H10925547  10.228  -0.364  -0.219 -3.0460  0.8324  0.7057
   80MOL   H11025548  10.534  -0.231  -0.177 -2.4660 -0.9331  2.1835
   80MOL   H11125549  10.457  -0.365  -0.265 -0.8902  0.5639 -0.2612
   80MOL   H11225550  10.424   0.012  -0.279  0.6165 -2.2261 -2.3602
   80MOL   H11325551  10.206   0.135  -0.263  0.9902  0.9009  1.5735
   80MOL   C11425552  10.554  -0.217  -0.382 -1.2278 -0.0737  0.4058
   80MOL   C11525553  10.696  -0.275  -0.383  0.2457  0.0324  0.3244
   80MOL   C11625554  10.805  -0.190  -0.369 -0.2137  0.1788  0.0232
   80MOL   C11725555  10.935  -0.235  -0.387 -0.0356 -0.0506 -0.4814
   80MOL   C11825556  10.962  -0.372  -0.396 -0.2302 -0.0037  0.1011
   80MOL   C11925557  11.101  -0.425  -0.398  0.1714  0.6104  0.2340
   80MOL   C12025558  10.853  -0.462  -0.406  0.1601  0.1304  0.2150
   80MOL   C12125559  10.720  -0.413  -0.398  0.6946  0.8142  0.5711
   80MOL   H12225560  10.574  -0.110  -0.369 -0.7039 -0.1232 -0.0166
   80MOL   H12325561  10.513  -0.226  -0.482  2.4523  1.0091 -1.2912
   80MOL   H12425562  10.798  -0.083  -0.359 -2.7774  0.1428 -1.1105
   80MOL   H12525563  11.012  -0.160  -0.382 -0.9096  0.7355  1.3314
   80MOL   H12625564  11.150  -0.336  -0.358  1.6784 -1.4484  3.1584
   80MOL   H12725565  11.103  -0.504  -0.324 -1.6991 -0.0794 -0.4112
   80MOL   H12825566  10.870  -0.568  -0.413  1.9823  0.2014  2.7838
   80MOL   H12925567  10.634  -0.477  -0.410  0.7279  0.8616  0.0512
   80MOL   C13025568  11.150  -0.469  -0.537  0.7373  0.1364  0.5169
   80MOL   C13125569  11.296  -0.515  -0.554 -0.4139  0.6463 -0.7471
   80MOL   C13225570  11.319  -0.656  -0.577 -0.6313 -0.3918 -0.5021
   80MOL   C13325571  11.460  -0.699  -0.576 -0.0009  0.1756 -0.7738
   80MOL   C13425572  11.568  -0.616  -0.558  0.1999  0.1396  0.4775
   80MOL   C13525573  11.715  -0.660  -0.569 -0.0351  0.2445 -0.0815
   80MOL   C13625574  11.536  -0.480  -0.536 -0.1795  0.0062  0.6215
   80MOL   C13725575  11.407  -0.430  -0.538  0.0026  0.0765 -0.0417
   80MOL   H13825576  11.134  -0.390  -0.611  1.7072  1.8774  2.1065
   80MOL   H13925577  11.086  -0.551  -0.569 -1.0513  1.4634  0.6126
   80MOL   H14025578  11.237  -0.724  -0.596 -1.5307  0.8053 -0.9626
   80MOL   H14125579  11.475  -0.805  -0.588  0.5253  0.0502  0.9632
   80MOL   H14225580  11.777  -0.593  -0.509 -1.3366  0.5769  0.9112
   80MOL   H14325581  11.741  -0.757  -0.528  2.1561  0.3708 -1.0612
   80MOL   H14425582  11.617  -0.421  -0.495  0.6870 -2.0246  1.9060
   80MOL   H14525583  11.387  -0.325  -0.523  1.2936  0.2656  0.3696
   80MOL   C14625584  11.764  -0.664  -0.715  0.7073  0.3342 -0.9308
   80MOL   C14725585  11.901  -0.718  -0.727 -0.3158 -0.9077 -0.1771
   80MOL   C14825586  11.918  -0.855  -0.756  0.2325  0.0928 -1.1891
   80MOL   C14925587  12.048  -0.899  -0.782  0.2871 -0.5421  0.9423
   80MOL   C15025588  12.161  -0.810  -0.784 -0.6416  0.7574 -0.3669
   80MOL   C15125589  12.297  -0.859  -0.823 -0.3939  0.0345 -0.0239
   80MOL   C15225590  12.138  -0.674  -0.753  0.1399 -0.2802  0.0200
   80MOL   C15325591  12.009  -0.624  -0.721  0.0506  0.1522 -0.1735
   80MOL   H15425592  11.766  -0.568  -0.766 -1.4826 -0.3938 -2.4587
   80MOL   H15525593  11.699  -0.738  -0.762 -0.5898 -0.2190  1.6013
   80MOL   H15625594  11.834  -0.922  -0.753  1.5407 -1.5784 -0.5991
   80MOL   H15725595  12.052  -1.005  -0.804  0.2908 -0.0822 -1.3896
   80MOL   H15825596  12.363  -0.775  -0.803 -1.3270 -0.1422  4.2164
   80MOL   H15925597  12.316  -0.926  -0.740  0.6395 -1.1015 -1.1442
   80MOL   H16025598  12.217  -0.601  -0.766  1.0794 -0.8432  2.2695
   80MOL   H16125599  11.987  -0.520  -0.708 -0.5531  0.1194 -0.9022
   80MOL   C16225600  12.298  -0.924  -0.963  0.2118 -0.2312 -0.2809
   80MOL   C16325601  12.437  -0.965  -1.003 -0.0486  0.2687 -0.1546
   80MOL   C16425602  12.501  -1.081  -0.945 -0.0412 -0.3724 -0.4351
   80MOL   C16525603  12.620  -1.127  -0.996  0.3495 -0.0226 -0.1177
   80MOL   C16625604  12.686  -1.067  -1.100  1.4189 -0.1225  0.0039
   80MOL   C16725605  12.822  -1.117  -1.142 -0.4171  0.4511 -0.0742
   80MOL   C16825606  12.616  -0.960  -1.163  0.2555 -0.1133 -0.2712
   80MOL   C16925607  12.500  -0.909  -1.114 -0.2590  0.5244  0.4363
   80MOL   H17025608  12.247  -0.859  -1.035 -0.8290 -0.1827  0.4814
   80MOL   H17125609  12.244  -1.019  -0.966  0.7185 -0.5231 -0.1021
   80MOL   H17225610  12.464  -1.139  -0.861 -1.4156 -1.2094 -1.5852
   80MOL   H17325611  12.665  -1.206  -0.938 -0.9319  0.5174  1.6441
   80MOL   H17425612  12.898  -1.053  -1.097 -0.8087  0.7594  0.1444
   80MOL   H17525613  12.845  -1.215  -1.100 -1.7317 -0.0051 -0.4058
   80MOL   H17625614  12.661  -0.910  -1.248  0.8105 -0.5779 -0.2515
   80MOL   H17725615  12.446  -0.823  -1.152  0.0857 -0.5358 -2.5932
   80MOL   C17825616  12.848  -1.124  -1.300  0.3090  0.3029 -0.4706
   80MOL   C17925617  12.777  -1.248  -1.354 -0.1305  0.5140  0.3984
   80MOL   C18025618  12.847  -1.371  -1.362 -0.0169  1.1494 -0.5903
   80MOL   C18125619  12.793  -1.479  -1.422  0.6053 -0.1725 -0.0083
   80MOL   C18225620  12.679  -1.459  -1.509  0.3944 -0.1481  0.2707
   80MOL   C18325621  12.635  -1.557  -1.612 -0.4377  1.1193 -0.8161
   80MOL   C18425622  12.606  -1.341  -1.498  1.0077 -0.5003 -0.8646
   80MOL   C18525623  12.655  -1.238  -1.418  0.1937 -0.1264 -0.2570
   80MOL   H18625624  12.956  -1.122  -1.313  0.5676  0.3365  1.5294
   80MOL   H18725625  12.800  -1.036  -1.342 -2.1294 -0.8142 -0.1359
   80MOL   H18825626  12.938  -1.375  -1.303 -1.6193  0.4525  1.9147
   80MOL   H18925627  12.847  -1.572  -1.419  0.0673 -0.4805  0.1071
   80MOL   H19025628  12.606  -1.497  -1.698 -1.3935 -0.4793 -1.6338
   80MOL   H19125629  12.725  -1.617  -1.629 -1.5870 -0.2917 -2.1001
   80MOL   H19225630  12.508  -1.341  -1.543 -0.7117 -3.1628  2.6477
   80MOL   H19325631  12.585  -1.159  -1.394  0.4039 -0.0566  0.1481
   80MOL   C19425632  12.533  -1.652  -1.560  0.7481 -0.1429 -0.3271
   80MOL   C19525633  12.392  -1.595  -1.548  0.3198  0.3605  0.1293
   80MOL   C19625634  12.330  -1.503  -1.641 -0.2411 -0.0916  0.2950
   80MOL   C19725635  12.193  -1.471  -1.629 -0.5580 -0.3118 -0.2218
   80MOL   C19825636  12.116  -1.534  -1.522  0.0942  0.1228  0.2806
   80MOL   C19925637  11.967  -1.507  -1.510  0.9320 -0.8778  0.2602
   80MOL   C20025638  12.181  -1.608  -1.427 -0.6389 -0.5416 -0.1247
   80MOL   C20125639  12.314  -1.641  -1.442  0.0031  0.1518 -0.2961
   80MOL   H20225640  12.556  -1.689  -1.460  2.2173 -0.5254 -0.8051
   80MOL   H20325641  12.534  -1.745  -1.617  1.3467 -0.6293  0.4655
   80MOL   H20425642  12.385  -1.474  -1.730  0.9782 -0.9275  0.7671
   80MOL   H20525643  12.148  -1.399  -1.697 -1.4081 -2.4893 -2.0429
   80MOL   H20625644  11.933  -1.441  -1.590  0.5209  0.9315  1.8922
   80MOL   H20725645  11.912  -1.601  -1.511  1.7441 -1.3513 -0.6991
   80MOL   H20825646  12.131  -1.655  -1.343 -0.1971  1.3996  1.2575
   80MOL   H20925647  12.348  -1.707  -1.364 -2.4387  2.2287  2.6251
   80MOL   C21025648  11.924  -1.430  -1.380 -0.3182  0.6263 -0.3769
   80MOL   C21125649  11.777  -1.397  -1.371 -0.5883 -0.4598  0.9212
   80MOL   C21225650  11.693  -1.472  -1.295  0.4117  0.7045  0.1728
   80MOL   C21325651  11.558  -1.437  -1.274 -1.2131 -0.3590  0.6689
   80MOL   C21425652  11.505  -1.331  -1.351  0.2616 -0.3954 -0.2187
   80MOL   C21525653  11.355  -1.307  -1.338 -0.5770 -0.1040  0.2509
   80MOL   C21625654  11.597  -1.245  -1.418  0.0841  0.6350 -0.4172
   80MOL   C21725655  11.730  -1.281  -1.434  0.1783  0.3362  0.5966
   80MOL   H21825656  11.975  -1.333  -1.378  0.2940  0.3049 -0.4555
   80MOL   H21925657  11.947  -1.483  -1.288 -0.5743  0.6743 -0.2851
   80MOL   H22025658  11.735  -1.558  -1.243 -0.3048 -0.5562 -1.3018
   80MOL   H22125659  11.505  -1.499  -1.204  0.1914 -1.1428  1.0369
   80MOL   H22225660  11.326  -1.235  -1.415 -0.0825  0.6530  0.7686
   80MOL   H22325661  11.297  -1.397  -1.356 -1.2160  0.7846 -2.3653
   80MOL   H22425662  11.557  -1.162  -1.475 -1.0996 -2.5392 -4.4392
   80MOL   H22525663  11.790  -1.214  -1.494  1.5958 -1.3578  0.0807
   80MOL   C22625664  11.324  -1.251  -1.203 -0.7643  0.9394 -0.1675
   80MOL   C22725665  11.180  -1.216  -1.193  0.2804 -1.0462  0.6681
   80MOL   C22825666  11.140  -1.088  -1.223 -0.0947  0.3958 -0.3071
   80MOL   C22925667  11.000  -1.063  -1.220  0.5020 -0.5830 -0.6789
   80MOL   C23025668  10.902  -1.150  -1.161 -0.1003 -0.4351  0.3127
   80MOL   C23125669  10.752  -1.108  -1.144  0.3499  0.0099  0.3214
   80MOL   C23225670  10.949  -1.277  -1.131  0.0524  0.8152  0.1132
   80MOL   C23325671  11.084  -1.313  -1.150  0.4699  0.5568  0.2252
   80MOL   H23425672  11.385  -1.168  -1.166 -1.4570  0.1979  2.8120
   80MOL   H23525673  11.324  -1.336  -1.134 -2.9819  1.1640  0.1457
   80MOL   H23625674  11.204  -1.008  -1.254  0.7897 -0.1599  0.0806
   80MOL   H23725675  10.973  -0.965  -1.258  1.2404 -0.8628 -1.9230
   80MOL   H23825676  10.716  -1.112  -1.247 -0.5027 -1.8622  0.6725
   80MOL   H23925677  10.707  -1.183  -1.080  0.2546  0.6218  0.9856
   80MOL   H24025678  10.884  -1.351  -1.086 -0.0495  0.7402 -0.1575
   80MOL   H24125679  11.119  -1.407  -1.110 -1.4340 -1.1784 -1.9974
   80MOL   C24225680  10.725  -0.960  -1.092  1.0154 -0.2463 -0.7498
   80MOL   C24325681  10.573  -0.929  -1.072 -0.4678 -0.6411 -0.7260
   80MOL   C24425682  10.506  -0.974  -0.959  0.0858  0.0531 -0.1448
   80MOL   C24525683  10.369  -0.966  -0.948 -0.3870 -0.3182  0.6915
   80MOL   C24625684  10.301  -0.901  -1.056  0.0284 -0.0975  0.1831
   80MOL   C24725685  10.154  -0.880  -1.042 -0.2059 -0.0512  0.4130
   80MOL   C24825686  10.363  -0.858  -1.173  0.4930  0.3184 -0.0435
   80MOL   C24925687  10.505  -0.862  -1.177  0.1945  0.1421 -0.3422
   80MOL   H25025688  10.776  -0.946  -0.996  0.3096 -0.8984 -0.2730
   80MOL   H25125689  10.764  -0.879  -1.154  0.7379  0.8958  0.5398
   80MOL   H25225690  10.564  -1.011  -0.876  0.4013  3.6180  1.3108
   80MOL   H25325691  10.313  -1.005  -0.865 -1.3791  0.1259  0.2327
   80MOL   H25425692  10.098  -0.850  -1.130 -0.2755 -2.4357 -0.4066
   80MOL   H25525693  10.113  -0.979  -1.024 -0.1618 -0.2806 -0.7051
   80MOL   H25625694  10.308  -0.817  -1.257 -0.6831 -0.9441  0.0885
   80MOL   H25725695  10.561  -0.830  -1.264 -0.4869 -0.4372 -1.0014
   80MOL   C25825696  10.122  -0.758  -0.955 -0.0506 -0.1944  0.5551
   80MOL   C25925697   9.969  -0.738  -0.942  0.8311  0.2047 -0.7318
   80MOL   C26025698   9.904  -0.659  -1.042  0.1278  0.2312 -0.8531
   80MOL   C26125699   9.770  -0.630  -1.034 -0.5193  0.3011  0.1875
   80MOL   C26225700   9.685  -0.688  -0.931 -0.3372 -0.2097  0.9463
   80MOL   C26325701   9.531  -0.671  -0.939 -0.2309  0.0640  0.2212
   80MOL   C26425702   9.755  -0.761  -0.831  0.0200  0.2216 -0.6311
   80MOL   C26525703   9.893  -0.792  -0.835 -0.3527  0.1149  0.1843
   80MOL   H26625704  10.172  -0.669  -0.994  0.0862 -0.3152  0.4582
   80MOL   H26725705  10.164  -0.776  -0.856  0.8093 -3.0345 -0.2744
   80MOL   H26825706   9.964  -0.609  -1.118  0.0373  1.7914  0.0719
   80MOL   H26925707   9.727  -0.565  -1.109  0.1372  0.4158 -0.0971
   80MOL   H27025708   9.507  -0.651  -1.044 -0.1154  0.2893  0.2386
   80MOL   H27125709   9.478  -0.763  -0.913 -1.7560  0.4491 -1.4709
   80MOL   H27225710   9.701  -0.815  -0.755  1.7734  0.2231  0.6623
   80MOL   H27325711   9.938  -0.859  -0.764 -1.2327  1.2394  1.8455
   80MOL   C27425712   9.492  -0.557  -0.855  0.1680 -0.3695 -0.0556
   80MOL   C27525713   9.344  -0.521  -0.862 -1.1486  0.1227 -0.1059
   80MOL   C27625714   9.302  -0.428  -0.959 -0.1719  0.5604 -0.2240
   80MOL   C27725715   9.164  -0.396  -0.959 -0.0891 -0.4226  0.0793
   80MOL   C27825716   9.067  -0.464  -0.880 -0.2704 -0.0799  0.4234
   80MOL   C27925717   8.925  -0.439  -0.902  0.0831  0.2948 -0.1633
   80MOL   C28025718   9.115  -0.557  -0.777  0.0577  0.0731  0.6807
   80MOL   C28125719   9.255  -0.584  -0.772  0.5554  0.2698  0.1989
   80MOL   H28225720   9.521  -0.570  -0.751 -0.8345 -2.9357 -0.0529
   80MOL   H28325721   9.538  -0.461  -0.879 -0.6257 -0.0595 -0.3837
   80MOL   H28425722   9.380  -0.378  -1.014 -0.1456  0.3641 -0.3656
   80MOL   H28525723   9.131  -0.317  -1.026 -1.9292 -0.0589  1.3663
   80MOL   H28625724   8.881  -0.433  -1.001 -0.1370  0.4525 -0.0576
   80MOL   H28725725   8.871  -0.518  -0.850 -1.0000  0.3796 -1.1529
   80MOL   H28825726   9.060  -0.620  -0.709  0.2504  1.0287  1.7321
   80MOL   H28925727   9.292  -0.657  -0.702  0.7828  2.8197  2.8328
   80MOL   C29025728   8.881  -0.309  -0.830  0.2241 -0.3452  0.2459
   80MOL   C29125729   8.733  -0.280  -0.844  0.1521 -0.4261  0.3801
   80MOL   C29225730   8.680  -0.206  -0.952 -0.3942  0.3513 -0.9924
   80MOL   C29325731   8.543  -0.170  -0.950 -0.1456 -0.2063 -0.2374
   80MOL   C29425732   8.464  -0.193  -0.836  0.2950  0.3635 -0.1003
   80MOL   C29525733   8.315  -0.147  -0.839  0.4140  0.4699  0.2610
   80MOL   C29625734   8.517  -0.268  -0.729 -0.3553  0.7679  0.5769
   80MOL   C29725735   8.653  -0.319  -0.730  1.3120 -0.6387 -0.3632
   80MOL   H29825736   8.936  -0.223  -0.869 -1.0586 -1.0372 -3.2249
   80MOL   H29925737   8.908  -0.311  -0.724 -0.1067  0.8564  0.3614
   80MOL   H30025738   8.736  -0.175  -1.039  1.1715  2.8313  0.8328
   80MOL   H30125739   8.498  -0.122  -1.036 -0.0962  0.6271  0.1991
   80MOL   H30225740   8.294  -0.084  -0.926  0.5951 -0.6637 -0.6200
   80MOL   H30325741   8.247  -0.232  -0.835  1.0962 -0.0568  0.8302
   80MOL   H30425742   8.446  -0.306  -0.658  1.0552 -1.3440  0.9190
   80MOL   H30525743   8.694  -0.379  -0.650 -0.7960 -1.6794 -0.0205
   80MOL   C30625744   8.277  -0.054  -0.725 -0.3592  0.0033 -0.5386
   80MOL   C30725745   8.122  -0.034  -0.705 -0.8195  0.4032  0.0993
   80MOL   C30825746   8.082  -0.020  -0.575  0.0895  0.7740 -0.3126
   80MOL   C30925747   7.946   0.015  -0.550 -0.6350 -0.6231 -0.3502
   80MOL   C31025748   7.854   0.040  -0.657 -0.4431 -0.0866 -0.0370
   80MOL   C31125749   7.718   0.102  -0.626 -0.7487 -1.0302  0.4189
   80MOL   C31225750   7.893   0.007  -0.787 -0.2298  0.6673  0.1645
   80MOL   C31325751   8.030  -0.025  -0.817 -0.3259 -0.6267 -0.0797
   80MOL   H31425752   8.330   0.040  -0.737 -0.9011  0.4035  0.1598
   80MOL   H31525753   8.317  -0.100  -0.634 -1.4963 -1.0847 -0.5795
   80MOL   H31625754   8.153  -0.043  -0.496 -1.3855 -2.0201  0.2660
   80MOL   H31725755   7.918   0.019  -0.446  0.7271  2.5545 -0.0440
   80MOL   H31825756   7.647   0.030  -0.585 -0.3566 -1.9382 -0.4671
   80MOL   H31925757   7.731   0.172  -0.544 -4.1252  1.0105 -0.7320
   80MOL   H32025758   7.818   0.005  -0.865 -0.5965  0.7479  0.5103
   80MOL   H32125759   8.070  -0.027  -0.917 -0.2189 -0.9594 -0.0291
   80MOL   H32225760   7.673   0.138  -0.718  0.9874 -0.0132 -0.0502
   81MOL     C125761   2.716   7.900   5.117  0.2809  0.6648 -0.2708
   81MOL     C225762   2.833   7.832   5.061  0.1626 -0.1664  0.1036
   81MOL     C325763   2.923   7.895   4.975  0.3155 -1.0252 -0.3136
   81MOL     C425764   3.031   7.830   4.917  0.1209  0.0394 -0.2764
   81MOL     C525765   3.060   7.702   4.959 -0.4232  0.3768 -1.0640
   81MOL     C625766   3.185   7.634   4.911 -0.4813 -0.0530 -0.2926
   81MOL     C725767   2.977   7.634   5.053  0.0179  0.4553 -0.5654
   81MOL     C825768   2.858   7.698   5.105  0.0491  0.2820  0.4265
   81MOL     H925769   2.752   7.949   5.208  0.1008 -0.3701  0.3637
   81MOL    H1025770   2.677   7.976   5.049 -0.7191 -0.6747 -1.2074
   81MOL    H1125771   2.909   7.999   4.948  2.4173 -0.1923  1.5721
   81MOL    H1225772   3.099   7.873   4.846  4.8171 -5.0195  0.8050
   81MOL    H1325773   3.262   7.711   4.910 -0.6303  0.0899 -3.1846
   81MOL    H1425774   3.219   7.551   4.973  2.5412  0.1833 -1.5445
   81MOL    H1525775   2.989   7.532   5.089  0.1217  0.0867 -1.6314
   81MOL    H1625776   2.790   7.643   5.168 -1.7502 -1.0949 -2.5938
   81MOL    H1725777   2.641   7.825   5.144 -0.5282  1.9227  1.0794
   81MOL    C1825778   3.176   7.576   4.769  0.0803  0.0063  0.5114
   81MOL    C1925779   3.300   7.499   4.727 -0.5895  0.1805 -0.1728
   81MOL    C2025780   3.417   7.567   4.678 -0.0002 -0.1372 -0.0048
   81MOL    C2125781   3.532   7.496   4.645 -0.1854 -0.0326 -0.6407
   81MOL    C2225782   3.530   7.353   4.651 -0.5987 -1.1283 -0.2037
   81MOL    C2325783   3.660   7.279   4.615  0.1101  0.1417  0.1064
   81MOL    C2425784   3.416   7.286   4.700 -0.1240  0.3448  0.2978
   81MOL    C2525785   3.300   7.358   4.741 -0.8575  0.1411  0.2185
   81MOL    H2625786   3.094   7.504   4.767  0.1890 -0.1409  1.3690
   81MOL    H2725787   3.151   7.664   4.709  0.4226  0.9733  1.7782
   81MOL    H2825788   3.413   7.675   4.670 -0.4153 -0.2843 -2.1045
   81MOL    H2925789   3.619   7.557   4.626 -1.3025  1.7551 -0.1326
   81MOL    H3025790   3.691   7.200   4.683 -1.5349  0.0629  0.8130
   81MOL    H3125791   3.740   7.353   4.611 -0.3943  0.6414 -1.1043
   81MOL    H3225792   3.410   7.178   4.702 -1.6904  0.2363 -3.9547
   81MOL    H3325793   3.213   7.300   4.768 -1.6230  0.1973 -2.0556
   81MOL    C3425794   3.639   7.215   4.486  0.3402  0.4724 -0.4735
   81MOL    C3525795   3.771   7.147   4.444  0.4529  0.4129  0.1211
   81MOL    C3625796   3.792   7.012   4.492 -0.0268  0.1860  0.0924
   81MOL    C3725797   3.917   6.955   4.455 -0.9499 -0.0363 -0.0850
   81MOL    C3825798   4.010   7.021   4.368 -0.7770 -0.3880  0.0190
   81MOL    C3925799   4.142   6.961   4.332  1.5138 -0.0410  0.3281
   81MOL    C4025800   3.980   7.149   4.327  1.0442 -0.3046 -0.6089
   81MOL    C4125801   3.864   7.212   4.365  0.6840 -0.2166  0.0392
   81MOL    H4225802   3.621   7.283   4.403  1.4912  1.5965  0.1747
   81MOL    H4325803   3.551   7.151   4.480 -0.4685  1.4420  0.9520
   81MOL    H4425804   3.721   6.953   4.547  0.0093  1.3954  1.4421
   81MOL    H4525805   3.950   6.859   4.493  1.1911  0.0316 -1.6756
   81MOL    H4625806   4.219   7.032   4.360  1.8529  0.7880 -2.6174
   81MOL    H4725807   4.156   6.872   4.395  1.1330 -1.0879 -1.0409
   81MOL    H4825808   4.048   7.212   4.272  0.5667  0.0696 -0.7863
   81MOL    H4925809   3.839   7.310   4.328  0.4524  0.0619  0.9200
   81MOL    C5025810   4.155   6.914   4.188 -0.8757 -0.4069 -0.4854
   81MOL    C5125811   4.057   6.806   4.140 -0.0153 -0.3390  0.2934
   81MOL    C5225812   3.938   6.845   4.082  0.5476 -0.4537 -0.7381
   81MOL    C5325813   3.840   6.751   4.048 -0.0327 -0.9102  0.7128
   81MOL    C5425814   3.863   6.614   4.071 -1.0372  0.1328  0.2251
   81MOL    C5525815   3.762   6.514   4.022 -0.4646  0.8671 -0.5437
   81MOL    C5625816   3.983   6.575   4.127 -0.0275  0.0820 -0.0643
   81MOL    C5725817   4.079   6.675   4.166  0.2478 -0.0158 -0.1151
   81MOL    H5825818   4.253   6.866   4.183 -0.5245  0.3118 -0.5138
   81MOL    H5925819   4.160   7.001   4.123 -1.7826 -0.9967 -1.3568
   81MOL    H6025820   3.910   6.949   4.075  1.6735  0.1313  2.6617
   81MOL    H6125821   3.747   6.784   4.004 -0.6562 -0.3419  2.3929
   81MOL    H6225822   3.711   6.552   3.934  0.2885  1.5530 -0.6855
   81MOL    H6325823   3.815   6.422   3.997  0.0451  0.5932  1.4084
   81MOL    H6425824   4.009   6.471   4.139  0.7310  0.1475 -1.0428
   81MOL    H6525825   4.173   6.647   4.211  1.1923  1.7790 -0.8898
   81MOL    C6625826   3.663   6.466   4.137  0.1142 -0.0442 -0.4213
   81MOL    C6725827   3.604   6.585   4.217  0.5314 -0.2824 -0.0677
   81MOL    C6825828   3.628   6.600   4.357 -0.1666  0.5321  0.1446
   81MOL    C6925829   3.561   6.698   4.433 -0.0679  0.6544 -0.4373
   81MOL    C7025830   3.465   6.786   4.377  0.2609  0.3161 -0.0657
   81MOL    C7125831   3.383   6.881   4.461  0.2548 -0.4833 -0.3632
   81MOL    C7225832   3.444   6.781   4.235 -0.1655  0.2347 -0.2260
   81MOL    C7325833   3.518   6.686   4.159  0.6139 -0.3969 -1.2549
   81MOL    H7425834   3.720   6.401   4.203 -0.1934  0.2276  0.1168
   81MOL    H7525835   3.570   6.426   4.094 -1.1537  2.3211  0.0281
   81MOL    H7625836   3.688   6.530   4.412  1.4071  0.9755 -1.0062
   81MOL    H7725837   3.575   6.704   4.540  0.2321 -0.3004 -0.4153
   81MOL    H7825838   3.318   6.925   4.385  1.2300  0.8764 -0.4269
   81MOL    H7925839   3.446   6.959   4.504  0.5638 -0.7571 -0.3240
   81MOL    H8025840   3.371   6.841   4.183  2.4463  1.0395 -3.1458
   81MOL    H8125841   3.492   6.682   4.055  0.0915  2.3016 -1.2547
   81MOL    C8225842   3.305   6.820   4.580 -0.1778  0.3486 -0.9440
   81MOL    C8325843   3.200   6.920   4.633 -0.1108  0.3546  0.0455
   81MOL    C8425844   3.091   6.954   4.547  0.0430 -0.3784 -0.4827
   81MOL    C8525845   2.986   7.031   4.598 -0.1973 -0.0662  0.3851
   81MOL    C8625846   2.977   7.074   4.727 -0.8815 -0.0756  0.0266
   81MOL    C8725847   2.860   7.150   4.773  0.3049  0.0808  0.3223
   81MOL    C8825848   3.094   7.060   4.808  0.1890 -0.0197 -0.5118
   81MOL    C8925849   3.200   6.975   4.763  0.8909 -0.2498  0.2861
   81MOL    H9025850   3.384   6.791   4.649  2.2226  0.4895 -3.5277
   81MOL    H9125851   3.244   6.742   4.535  1.1744 -0.5200 -1.3336
   81MOL    H9225852   3.083   6.925   4.443  0.9291  2.0671 -1.2725
   81MOL    H9325853   2.908   7.049   4.525 -0.8353  2.0933  1.5581
   81MOL    H9425854   2.849   7.228   4.698 -2.5397  2.1266  2.7793
   81MOL    H9525855   2.877   7.198   4.869 -0.1465 -1.7477  1.3382
   81MOL    H9625856   3.089   7.101   4.907  1.8274 -0.3065 -0.2868
   81MOL    H9725857   3.287   6.953   4.822  0.0505 -0.6771  1.3823
   81MOL    C9825858   2.736   7.058   4.782 -0.0979 -0.2087 -0.1322
   81MOL    C9925859   2.619   7.104   4.856 -0.3215 -0.1851 -0.6261
   81MOL   C10025860   2.569   7.031   4.965 -0.4001 -0.3209  0.2175
   81MOL   C10125861   2.448   7.058   5.026 -0.2947  0.6184  0.2180
   81MOL   C10225862   2.371   7.166   4.980 -0.1432  0.2429  0.4475
   81MOL   C10325863   2.228   7.189   5.038 -0.3226 -0.7392  0.2879
   81MOL   C10425864   2.424   7.239   4.873  0.2419 -0.4291  0.2801
   81MOL   C10525865   2.550   7.217   4.816 -0.1785  0.1078 -0.2365
   81MOL   H10625866   2.770   6.970   4.838  0.0475 -0.9673 -1.3956
   81MOL   H10725867   2.704   7.029   4.682  2.4028 -0.5878 -0.8667
   81MOL   H10825868   2.617   6.942   5.002 -0.1747  0.2180  1.2114
   81MOL   H10925869   2.420   6.999   5.112 -1.7291  2.2502  0.9093
   81MOL   H11025870   2.247   7.170   5.143  2.5346  1.9910  0.3174
   81MOL   H11125871   2.206   7.296   5.039 -2.2961 -1.0790 -1.6575
   81MOL   H11225872   2.366   7.317   4.826  1.6650 -0.5695 -1.7768
   81MOL   H11325873   2.586   7.283   4.738  1.0563  0.2422  0.4207
   81MOL   C11425874   2.115   7.105   4.975 -0.0878  0.9354  0.4916
   81MOL   C11525875   1.971   7.136   5.033  0.7583 -0.3447  0.3305
   81MOL   C11625876   1.854   7.141   4.957 -0.5995  0.2070  0.3408
   81MOL   C11725877   1.726   7.176   5.008  0.3829 -0.0895  0.0674
   81MOL   C11825878   1.714   7.204   5.149  0.3729  0.6545  0.3499
   81MOL   C11925879   1.582   7.236   5.208  0.2920 -0.1954  0.3225
   81MOL   C12025880   1.832   7.193   5.230  0.1111  0.0602  0.2855
   81MOL   C12125881   1.953   7.158   5.172  0.1344  0.6846 -0.2406
   81MOL   H12225882   2.140   7.000   4.991 -0.8894  0.4925 -1.0334
   81MOL   H12325883   2.118   7.111   4.866  0.3314  0.7584  0.4917
   81MOL   H12425884   1.852   7.125   4.850 -0.8991 -2.2883  0.6910
   81MOL   H12525885   1.639   7.179   4.943 -0.8631  2.3239  1.7516
   81MOL   H12625886   1.509   7.191   5.140  1.2552  0.1999 -0.9963
   81MOL   H12725887   1.587   7.170   5.294  3.1971 -1.3089 -0.6735
   81MOL   H12825888   1.822   7.207   5.337 -0.5227  0.0985  0.2235
   81MOL   H12925889   2.039   7.161   5.237 -0.6163  0.4727  0.7722
   81MOL   C13025890   1.565   7.385   5.238  0.5771 -0.3658  0.8189
   81MOL   C13125891   1.423   7.414   5.279  0.4851  0.4921  0.7549
   81MOL   C13225892   1.373   7.349   5.389  0.2227  0.1815  0.4319
   81MOL   C13325893   1.248   7.395   5.439 -0.0250 -0.1472  0.9117
   81MOL   C13425894   1.188   7.510   5.382  0.9599 -0.2337 -0.2828
   81MOL   C13525895   1.062   7.577   5.430 -0.1195  0.0161 -0.2337
   81MOL   C13625896   1.234   7.568   5.260  0.6847  0.1285  0.5078
   81MOL   C13725897   1.357   7.519   5.209 -0.2668 -0.1002  0.6322
   81MOL   H13825898   1.605   7.441   5.153 -0.2194 -0.9627  0.0473
   81MOL   H13925899   1.630   7.419   5.319  2.0088 -0.8997 -0.0768
   81MOL   H14025900   1.415   7.259   5.432  1.4228  1.2238  1.4638
   81MOL   H14125901   1.207   7.340   5.522 -0.6103 -1.0663  0.0332
   81MOL   H14225902   1.028   7.540   5.526 -0.9191  0.7929 -0.2209
   81MOL   H14325903   1.076   7.684   5.444 -1.9115  0.1855  0.3774
   81MOL   H14425904   1.180   7.650   5.213 -0.5393 -1.6552 -1.2539
   81MOL   H14525905   1.398   7.557   5.117 -1.0127  1.6747  1.0169
   81MOL   C14625906   0.942   7.575   5.342  0.0728  0.2821 -0.1153
   81MOL   C14725907   0.817   7.644   5.401  0.4042 -0.0509 -0.5555
   81MOL   C14825908   0.748   7.600   5.519  0.3329  0.4190 -0.0678
   81MOL   C14925909   0.635   7.662   5.565 -0.5036 -0.2943  0.1893
   81MOL   C15025910   0.577   7.771   5.498  0.0797 -0.7773  0.0673
   81MOL   C15125911   0.463   7.848   5.564  0.3760 -0.8985  0.3186
   81MOL   C15225912   0.632   7.813   5.378  0.0577  0.6854  1.4156
   81MOL   C15325913   0.749   7.750   5.326 -0.5663 -0.6980  0.0018
   81MOL   H15425914   0.939   7.468   5.320  1.3014 -0.0012  1.0024
   81MOL   H15525915   0.956   7.619   5.243  1.1941  1.6073  0.6135
   81MOL   H15625916   0.801   7.520   5.569  0.4703  0.7487  0.3238
   81MOL   H15725917   0.589   7.627   5.656  0.7991 -1.0471  0.5779
   81MOL   H15825918   0.461   7.842   5.672 -0.7474  1.3988  0.4606
   81MOL   H15925919   0.475   7.955   5.547  0.0738 -0.8379  0.4843
   81MOL   H16025920   0.590   7.893   5.319  1.0246  0.8419  0.9249
   81MOL   H16125921   0.790   7.791   5.235 -0.8300  0.0299  0.2046
   81MOL   C16225922   0.332   7.804   5.496 -0.1784  0.5873  0.5366
   81MOL   C16325923   0.212   7.895   5.513 -0.0604 -0.4389  0.0529
   81MOL   C16425924   0.128   7.887   5.625  0.1855 -0.1323 -0.5820
   81MOL   C16525925   0.012   7.970   5.637 -0.5756  0.2156  0.3472
   81MOL   C16625926  -0.027   8.046   5.524  0.7736 -0.0535 -0.3896
   81MOL   C16725927  -0.155   8.128   5.524 -0.1231  0.4222 -0.2494
   81MOL   C16825928   0.053   8.040   5.408  0.1530 -0.0922  0.1787
   81MOL   C16925929   0.171   7.970   5.398 -0.6104  0.2054  0.8077
   81MOL   H17025930   0.290   7.714   5.541 -1.8039  1.4607  0.7960
   81MOL   H17125931   0.346   7.797   5.388  0.7864  0.9775  0.6286
   81MOL   H17225932   0.161   7.831   5.712  0.9127 -0.6914 -1.2105
   81MOL   H17325933  -0.034   7.972   5.735  0.1579 -0.1907  0.7024
   81MOL   H17425934  -0.161   8.183   5.430 -0.9054  2.6271  1.0575
   81MOL   H17525935  -0.244   8.066   5.524 -0.3942  0.7213 -2.9630
   81MOL   H17625936   0.005   8.069   5.315  1.9147  0.3108 -0.6170
   81MOL   H17725937   0.216   7.959   5.300  0.2063 -0.9736  1.3096
   81MOL   C17825938  -0.164   8.231   5.639 -0.3027  0.4433 -0.4863
   81MOL   C17925939  -0.287   8.317   5.628  0.8206 -0.8237 -0.2485
   81MOL   C18025940  -0.417   8.262   5.647  0.8431 -0.4146  0.0562
   81MOL   C18125941  -0.528   8.344   5.644  0.7017  0.6421  0.5074
   81MOL   C18225942  -0.517   8.483   5.617 -0.3303  0.0089 -0.7706
   81MOL   C18325943  -0.644   8.572   5.613 -0.5930  0.5879 -0.3697
   81MOL   C18425944  -0.388   8.539   5.617  0.2766 -0.2206  0.1575
   81MOL   C18525945  -0.278   8.454   5.612 -0.6397 -0.0283 -0.4457
   81MOL   H18625946  -0.081   8.301   5.642 -0.7267  0.9244  0.5373
   81MOL   H18725947  -0.166   8.181   5.736 -1.6926 -0.6696 -1.0573
   81MOL   H18825948  -0.434   8.159   5.675  1.5314 -0.9894 -1.5946
   81MOL   H18925949  -0.625   8.300   5.654  1.5065 -1.0744  0.9316
   81MOL   H19025950  -0.654   8.591   5.507 -2.5549 -1.3342 -0.5612
   81MOL   H19125951  -0.730   8.517   5.652 -1.1620  1.7936  0.0883
   81MOL   H19225952  -0.381   8.647   5.610  0.7915 -0.3644 -1.8493
   81MOL   H19325953  -0.182   8.500   5.598 -1.5547  3.1373  2.6471
   81MOL   C19425954  -0.641   8.702   5.690 -0.3879  0.3097  0.4055
   81MOL   C19525955  -0.769   8.774   5.686 -0.3624  0.2163  0.0921
   81MOL   C19625956  -0.880   8.718   5.749  0.0740 -0.1184 -0.1863
   81MOL   C19725957  -1.006   8.775   5.736 -0.0302  0.3214 -0.6813
   81MOL   C19825958  -1.024   8.895   5.671 -0.0139  0.0217 -0.4059
   81MOL   C19925959  -1.160   8.961   5.675 -0.4474 -0.2777 -1.0106
   81MOL   C20025960  -0.915   8.951   5.601  0.1119 -0.1027 -0.2258
   81MOL   C20125961  -0.790   8.889   5.613  0.3279  0.6579 -0.0967
   81MOL   H20225962  -0.566   8.773   5.656  0.7846 -0.0567  2.1279
   81MOL   H20325963  -0.623   8.684   5.796  0.0573  0.9559  0.4428
   81MOL   H20425964  -0.878   8.630   5.812  1.2164 -1.9827 -2.7371
   81MOL   H20525965  -1.091   8.721   5.776  1.4223 -1.5744 -0.0778
   81MOL   H20625966  -1.187   8.996   5.576  0.4396 -2.4187 -2.0414
   81MOL   H20725967  -1.239   8.895   5.711 -1.9585  0.4722 -2.9023
   81MOL   H20825968  -0.919   9.047   5.551  1.3423 -0.6426 -1.4122
   81MOL   H20925969  -0.705   8.917   5.553  0.9439  1.8786  1.3263
   81MOL   C21025970  -1.154   9.090   5.753 -0.2421 -0.0364  0.0682
   81MOL   C21125971  -1.294   9.155   5.783  0.9554 -0.2703 -0.4005
   81MOL   C21225972  -1.414   9.092   5.751 -0.0353  0.7363  0.5272
   81MOL   C21325973  -1.542   9.131   5.807  0.7995  0.6899 -0.6059
   81MOL   C21425974  -1.537   9.236   5.906 -0.2870 -1.1009 -0.3242
   81MOL   C21525975  -1.669   9.282   5.973 -0.6507  0.4277  0.1974
   81MOL   C21625976  -1.418   9.307   5.935  0.1421  0.3920  0.0472
   81MOL   C21725977  -1.301   9.258   5.878 -0.2100 -0.0904 -0.5233
   81MOL   H21825978  -1.070   9.157   5.732 -1.5001  1.9358  1.2148
   81MOL   H21925979  -1.136   9.049   5.852  1.4787  0.3867 -0.0428
   81MOL   H22025980  -1.416   9.016   5.675  3.9300 -1.5005  2.4949
   81MOL   H22125981  -1.637   9.093   5.774  0.1840  0.2034  1.6413
   81MOL   H22225982  -1.725   9.191   5.995  0.2438 -0.3299 -0.5850
   81MOL   H22325983  -1.642   9.339   6.062  1.3772  0.2467 -0.2753
   81MOL   H22425984  -1.415   9.387   6.007  2.8050  0.5621 -0.2043
   81MOL   H22525985  -1.206   9.305   5.899  1.3530 -3.8567  1.3080
   81MOL   C22625986  -1.759   9.365   5.880 -0.1646  0.1586  0.0569
   81MOL   C22725987  -1.889   9.391   5.952 -0.1426  0.6816 -0.8808
   81MOL   C22825988  -1.987   9.289   5.961 -0.1612 -0.4952  0.2909
   81MOL   C22925989  -2.108   9.314   6.025  0.2790 -0.2231  0.5122
   81MOL   C23025990  -2.120   9.433   6.097  0.4964 -0.9440  0.2054
   81MOL   C23125991  -2.248   9.451   6.169 -0.1913 -0.0643  0.6892
   81MOL   C23225992  -2.022   9.537   6.095  0.0605 -0.2478  0.1363
   81MOL   C23325993  -1.896   9.511   6.032 -0.0438 -0.1022 -0.0992
   81MOL   H23425994  -1.777   9.314   5.785 -2.9637  1.5187 -0.1943
   81MOL   H23525995  -1.709   9.452   5.838 -0.0306  0.4046  0.7223
   81MOL   H23625996  -1.984   9.191   5.916 -1.9758 -0.0909 -0.7589
   81MOL   H23725997  -2.187   9.241   6.028 -0.9014  1.0124 -0.1532
   81MOL   H23825998  -2.308   9.361   6.174  0.4095 -0.5439 -0.4657
   81MOL   H23925999  -2.233   9.470   6.276 -2.5743  0.6457  0.9244
   81MOL   H24026000  -2.043   9.629   6.147  0.0503 -0.5159  0.6018
   81MOL   H24126001  -1.811   9.576   6.046 -1.5422  1.6726  0.9574
   81MOL   C24226002  -2.329   9.562   6.094 -0.0921  0.0931  0.7856
   81MOL   C24326003  -2.455   9.588   6.165 -0.1401  0.7589  0.1147
   81MOL   C24426004  -2.469   9.702   6.247 -0.0707  0.2125  0.1770
   81MOL   C24526005  -2.592   9.730   6.306 -0.4025  0.4239  0.4612
   81MOL   C24626006  -2.709   9.666   6.258 -0.0721 -0.4408  0.2792
   81MOL   C24726007  -2.840   9.732   6.298 -0.1636  0.1053 -0.0939
   81MOL   C24826008  -2.703   9.553   6.169  0.0354  0.0129  0.0693
   81MOL   C24926009  -2.575   9.520   6.130 -0.1657 -0.3005 -0.2034
   81MOL   H25026010  -2.273   9.652   6.073 -1.4124  0.6302 -0.5171
   81MOL   H25126011  -2.354   9.511   6.001  1.1075  1.2868 -0.2000
   81MOL   H25226012  -2.385   9.766   6.273 -0.1086 -0.0759  1.0058
   81MOL   H25326013  -2.595   9.809   6.379 -0.2532  2.5301 -1.7575
   81MOL   H25426014  -2.820   9.830   6.341 -3.3218  0.7353  0.0706
   81MOL   H25526015  -2.892   9.743   6.204 -1.6755  1.3378  0.8628
   81MOL   H25626016  -2.787   9.507   6.119 -0.6832  0.6127  0.7008
   81MOL   H25726017  -2.573   9.432   6.067  0.8363 -1.8373  1.9002
   81MOL   C25826018  -2.918   9.652   6.398 -0.7700 -0.0745 -0.1433
   81MOL   C25926019  -3.059   9.703   6.411 -0.3645  0.0640  0.5815
   81MOL   C26026020  -3.096   9.778   6.521  0.1633  0.3205  0.2250
   81MOL   C26126021  -3.214   9.857   6.521 -0.2792  0.0520 -0.4758
   81MOL   C26226022  -3.299   9.856   6.414  1.6486 -0.0439  0.0004
   81MOL   C26326023  -3.425   9.936   6.414  0.8972 -0.4508 -0.0966
   81MOL   C26426024  -3.267   9.784   6.297  0.4473 -0.4162 -0.8391
   81MOL   C26526025  -3.146   9.707   6.295  0.8572  0.3716 -0.2322
   81MOL   H26626026  -2.857   9.661   6.488 -1.1615  2.5828 -0.0976
   81MOL   H26726027  -2.922   9.549   6.362  2.0636  0.0181 -0.8363
   81MOL   H26826028  -3.036   9.785   6.610 -0.5091  0.5254  0.6683
   81MOL   H26926029  -3.228   9.917   6.609  2.5183 -0.5964  0.4531
   81MOL   H27026030  -3.384  10.034   6.440 -0.3361  0.2404 -0.7068
   81MOL   H27126031  -3.459   9.939   6.310 -0.4743  2.3312  0.3768
   81MOL   H27226032  -3.323   9.791   6.205 -0.8664  0.6206  0.0200
   81MOL   H27326033  -3.117   9.650   6.208 -1.0879  0.4372 -0.9513
   81MOL   C27426034  -3.535   9.883   6.514  0.4947 -0.0254  0.1705
   81MOL   C27526035  -3.664   9.961   6.513  0.4196 -0.1502  0.0012
   81MOL   C27626036  -3.719  10.007   6.392 -0.0663  0.3063  0.2153
   81MOL   C27726037  -3.831  10.084   6.391 -0.7704 -0.8419 -0.4065
   81MOL   C27826038  -3.899  10.113   6.512  0.4698  0.2053  0.6012
   81MOL   C27926039  -4.038  10.179   6.513 -0.4524  0.0239  0.2999
   81MOL   C28026040  -3.853  10.061   6.631 -0.3321  0.7489  0.5147
   81MOL   C28126041  -3.731   9.985   6.633  0.7643 -0.3371 -1.1694
   81MOL   H28226042  -3.561   9.779   6.490  0.4838  0.5295 -2.4306
   81MOL   H28326043  -3.497   9.891   6.616 -1.7170  0.0500  1.0109
   81MOL   H28426044  -3.673   9.974   6.300  0.8795 -1.9368  1.4424
   81MOL   H28526045  -3.869  10.118   6.296 -1.2828  1.1608  0.4995
   81MOL   H28626046  -4.110  10.134   6.445  0.0577  2.8661 -2.1905
   81MOL   H28726047  -4.081  10.155   6.611 -1.3805  1.0978  0.1658
   81MOL   H28826048  -3.899  10.075   6.727  0.9605  1.6078  1.0266
   81MOL   H28926049  -3.711   9.944   6.731 -0.1731  2.4916  0.2651
   81MOL   C29026050  -4.034  10.337   6.506  0.0350 -0.2037 -0.1992
   81MOL   C29126051  -4.169  10.394   6.489  0.0809  0.0750 -0.1392
   81MOL   C29226052  -4.199  10.458   6.367  0.0516 -0.0308 -0.0163
   81MOL   C29326053  -4.329  10.496   6.336 -0.0819  0.0596 -0.2945
   81MOL   C29426054  -4.431  10.477   6.431 -0.0824  0.2614 -0.0579
   81MOL   C29526055  -4.573  10.511   6.398 -0.7088 -0.1303 -0.2523
   81MOL   C29626056  -4.400  10.419   6.556 -0.1824 -0.6647  0.0412
   81MOL   C29726057  -4.266  10.380   6.587  0.4496  0.4249 -0.1781
   81MOL   H29826058  -3.969  10.379   6.430  0.2028  1.0582  0.6250
   81MOL   H29926059  -4.008  10.389   6.599 -1.1725 -1.1412  0.6868
   81MOL   H30026060  -4.124  10.462   6.290 -0.8533  2.1318 -0.8049
   81MOL   H30126061  -4.348  10.521   6.232  0.5886 -1.1459 -0.7091
   81MOL   H30226062  -4.607  10.439   6.323  2.7132 -1.5028 -0.5903
   81MOL   H30326063  -4.632  10.499   6.489 -1.2433  2.5533 -0.1987
   81MOL   H30426064  -4.473  10.387   6.629 -0.1355  0.3143  0.5294
   81MOL   H30526065  -4.253  10.325   6.679 -4.1478 -0.8397 -0.1483
   81MOL   C30626066  -4.596  10.658   6.350  0.3553 -0.0158 -0.4528
   81MOL   C30726067  -4.744  10.681   6.316  0.2829  0.5394  1.2126
   81MOL   C30826068  -4.773  10.717   6.182 -0.5561  0.3344 -0.1972
   81MOL   C30926069  -4.908  10.723   6.149 -0.4739  0.7255  0.8299
   81MOL   C31026070  -5.015  10.702   6.244  0.5735  0.0424 -0.4814
   81MOL   C31126071  -5.160  10.705   6.197  0.2163  1.1826  0.4300
   81MOL   C31226072  -4.979  10.675   6.378  0.2580  0.1609  0.2169
   81MOL   C31326073  -4.844  10.667   6.414 -1.0580 -0.8605  0.8060
   81MOL   H31426074  -4.528  10.685   6.269  2.5208  0.8602  1.6097
   81MOL   H31526075  -4.570  10.710   6.442  2.1129 -2.5503  0.5272
   81MOL   H31626076  -4.700  10.747   6.108  0.1924  0.0627  0.4240
   81MOL   H31726077  -4.928  10.756   6.048  0.8323 -0.8209  0.0580
   81MOL   H31826078  -5.174  10.674   6.094 -0.1026  0.9106  0.5547
   81MOL   H31926079  -5.222  10.632   6.249  1.2862 -0.0535 -0.0288
   81MOL   H32026080  -5.058  10.662   6.450  1.5014  0.0165  1.5921
   81MOL   H32126081  -4.813  10.638   6.514 -2.6806 -0.3529  1.4638
   81MOL   H32226082  -5.197  10.804   6.225 -0.5381  0.9554  0.2627
   82MOL     C126083   2.047   6.965   2.804 -0.1001 -0.2536 -0.8322
   82MOL     C226084   2.181   6.900   2.808 -0.1494 -0.2845 -0.4666
   82MOL     C326085   2.273   6.948   2.906  0.1212 -0.4155  0.3920
   82MOL     C426086   2.406   6.912   2.899  0.2406 -0.4601 -0.2534
   82MOL     C526087   2.444   6.820   2.807  0.5557  0.1195  0.8380
   82MOL     C626088   2.580   6.747   2.824 -0.1659  0.2267  0.2921
   82MOL     C726089   2.353   6.774   2.707  0.6138  0.4204 -0.2677
   82MOL     C826090   2.222   6.815   2.710  0.9272  0.2668 -0.4023
   82MOL     H926091   1.984   6.952   2.892  1.9907  1.7473  1.0194
   82MOL    H1026092   2.057   7.070   2.774  2.2683 -0.0360  0.6025
   82MOL    H1126093   2.238   7.014   2.983 -1.0972 -1.4445  0.7394
   82MOL    H1226094   2.472   6.952   2.974  0.6672  0.2659 -1.0107
   82MOL    H1326095   2.611   6.784   2.922 -0.3768 -1.1361  0.8909
   82MOL    H1426096   2.562   6.641   2.842 -1.4024  0.5983  1.4044
   82MOL    H1526097   2.386   6.703   2.632 -2.5041 -0.4777 -0.8772
   82MOL    H1626098   2.155   6.780   2.633 -1.1495  1.7937  0.6679
   82MOL    H1726099   1.988   6.925   2.721 -0.3048 -1.9459  0.1249
   82MOL    C1826100   2.692   6.781   2.728 -0.3087  0.6696  1.2862
   82MOL    C1926101   2.816   6.700   2.761 -0.1283 -0.0631 -0.3882
   82MOL    C2026102   2.879   6.729   2.881  0.9233  0.1480  0.2094
   82MOL    C2126103   2.996   6.666   2.929  0.2803  0.0857  0.2242
   82MOL    C2226104   3.061   6.571   2.845  0.1832 -0.7094 -0.2066
   82MOL    C2326105   3.195   6.500   2.881 -0.1795  0.2434  0.3981
   82MOL    C2426106   3.001   6.555   2.716 -0.1764  0.0386 -0.2479
   82MOL    C2526107   2.880   6.617   2.679 -0.0592 -0.9357 -0.0993
   82MOL    H2626108   2.648   6.751   2.633  1.3441 -0.7246  0.9426
   82MOL    H2726109   2.710   6.888   2.736 -2.3644  1.3061 -1.6500
   82MOL    H2826110   2.830   6.799   2.948 -0.3950 -2.0996  1.6853
   82MOL    H2926111   3.033   6.689   3.027  1.2914 -0.2828 -0.0625
   82MOL    H3026112   3.201   6.408   2.824  1.2220  0.4836  0.1200
   82MOL    H3126113   3.200   6.473   2.987  2.2672 -1.5967 -0.1365
   82MOL    H3226114   3.052   6.477   2.662 -1.8409  0.2057 -2.1170
   82MOL    H3326115   2.841   6.596   2.580  0.5788 -1.8704 -0.1629
   82MOL    C3426116   3.315   6.600   2.854  0.0903  0.1432  0.0018
   82MOL    C3526117   3.449   6.541   2.882 -0.0933 -0.6242 -0.0645
   82MOL    C3626118   3.552   6.558   2.785 -0.4240  0.5696  0.9646
   82MOL    C3726119   3.676   6.494   2.802 -0.5462  0.6587  0.8303
   82MOL    C3826120   3.700   6.411   2.915  0.0173  0.0882 -0.1114
   82MOL    C3926121   3.834   6.338   2.939 -0.0660 -0.5831  0.0409
   82MOL    C4026122   3.602   6.413   3.016  0.9475  0.4336 -0.4361
   82MOL    C4126123   3.478   6.469   3.000  0.1676  0.4619 -0.3977
   82MOL    H4226124   3.295   6.686   2.918 -1.0417 -0.0346 -0.0997
   82MOL    H4326125   3.304   6.630   2.750  2.3437 -0.6021 -0.4779
   82MOL    H4426126   3.536   6.613   2.693  3.3781 -0.6663 -0.5574
   82MOL    H4526127   3.749   6.502   2.723 -2.3608  1.2993 -0.7916
   82MOL    H4626128   3.827   6.284   3.034  1.2425  0.2540  0.6161
   82MOL    H4726129   3.844   6.255   2.869 -0.2507 -0.2445 -0.3826
   82MOL    H4826130   3.611   6.355   3.106 -0.1468  0.5532 -0.2449
   82MOL    H4926131   3.395   6.443   3.065  0.3086 -0.3743 -0.5422
   82MOL    C5026132   3.954   6.429   2.934  0.2470 -0.7113  0.0542
   82MOL    C5126133   4.082   6.352   2.935  0.2662 -0.0048  0.0398
   82MOL    C5226134   4.144   6.321   3.059 -0.7510  0.4681 -0.0917
   82MOL    C5326135   4.260   6.245   3.062  0.5099  0.8250  0.1723
   82MOL    C5426136   4.321   6.203   2.942 -0.2864 -0.0321 -0.1160
   82MOL    C5526137   4.457   6.129   2.945 -0.7035 -0.2583  0.6237
   82MOL    C5626138   4.262   6.241   2.820  0.0152  0.1866 -0.6813
   82MOL    C5726139   4.141   6.317   2.813  1.1795  0.0186 -0.1525
   82MOL    H5826140   3.942   6.501   3.015 -2.1501  0.1413 -1.0367
   82MOL    H5926141   3.950   6.481   2.838  1.3086  2.1949  1.5260
   82MOL    H6026142   4.103   6.350   3.155  1.4046 -3.5834  2.1548
   82MOL    H6126143   4.311   6.212   3.152  0.8425  1.0948  0.0843
   82MOL    H6226144   4.464   6.062   3.031  1.8612 -0.3423  0.3965
   82MOL    H6326145   4.459   6.063   2.858  0.9436  0.8565 -0.2179
   82MOL    H6426146   4.306   6.209   2.727  0.1972 -0.1701 -0.4746
   82MOL    H6526147   4.098   6.342   2.717 -0.9231 -1.9153  0.2248
   82MOL    C6626148   4.579   6.227   2.949 -0.4136  0.2793 -0.0108
   82MOL    C6726149   4.703   6.158   2.989 -0.1139 -0.0481  0.3765
   82MOL    C6826150   4.730   6.131   3.125  0.0691  0.1592  0.4374
   82MOL    C6926151   4.854   6.072   3.159 -0.1528 -0.7604 -0.0869
   82MOL    C7026152   4.946   6.051   3.053 -0.1537  0.5875  0.7098
   82MOL    C7126153   5.090   6.007   3.087  0.2477  0.0588  0.6739
   82MOL    C7226154   4.921   6.084   2.920  0.1793 -0.5175  0.5174
   82MOL    C7326155   4.795   6.128   2.887 -0.2346  0.7855  0.4692
   82MOL    H7426156   4.569   6.304   3.026  0.6789  0.9418 -0.5164
   82MOL    H7526157   4.584   6.280   2.853  1.1938 -2.3447 -1.4284
   82MOL    H7626158   4.667   6.177   3.199  1.5234 -1.0481  2.4775
   82MOL    H7726159   4.875   6.050   3.263 -0.4594  1.1626  0.3926
   82MOL    H7826160   5.099   6.003   3.195 -4.2241 -0.2832  1.1553
   82MOL    H7926161   5.147   6.088   3.042  0.4102 -0.0512  0.6808
   82MOL    H8026162   4.995   6.070   2.843 -1.5153 -2.2841 -0.8244
   82MOL    H8126163   4.758   6.139   2.786  0.2909  0.6745  0.2665
   82MOL    C8226164   5.126   5.864   3.028  0.0400  0.2075 -0.4427
   82MOL    C8326165   5.272   5.832   3.055  0.5171  0.0547  0.6714
   82MOL    C8426166   5.366   5.826   2.947  0.0553 -0.8252 -0.2564
   82MOL    C8526167   5.494   5.784   2.967 -0.2843 -0.2463  0.2736
   82MOL    C8626168   5.533   5.744   3.092 -0.1011 -0.2441 -0.4058
   82MOL    C8726169   5.672   5.682   3.118 -0.4596  0.7213  0.5577
   82MOL    C8826170   5.448   5.756   3.201 -0.0427 -0.0368  0.2359
   82MOL    C8926171   5.318   5.792   3.186  0.4462  0.5763  0.1067
   82MOL    H9026172   5.105   5.862   2.921  0.1924 -0.7467 -0.4541
   82MOL    H9126173   5.065   5.790   3.079 -1.7449 -0.6112 -3.5969
   82MOL    H9226174   5.335   5.863   2.850 -0.5189 -2.1337 -0.5753
   82MOL    H9326175   5.557   5.763   2.881 -0.4026 -0.2853  0.1956
   82MOL    H9426176   5.705   5.610   3.042  1.9612  1.6279  0.6937
   82MOL    H9526177   5.679   5.628   3.213 -0.0068  0.8514  0.6009
   82MOL    H9626178   5.473   5.711   3.296  2.3980 -1.0248 -0.8268
   82MOL    H9726179   5.255   5.789   3.274  2.1042  0.4866  1.3092
   82MOL    C9826180   5.789   5.788   3.117  0.3745  0.2288  0.1932
   82MOL    C9926181   5.926   5.728   3.140 -0.0241 -0.5376  0.2516
   82MOL   C10026182   6.003   5.683   3.028 -0.2841 -0.5003 -0.5279
   82MOL   C10126183   6.117   5.604   3.041  0.3267 -0.1196  0.6595
   82MOL   C10226184   6.175   5.600   3.171  0.1206  0.1830 -0.6312
   82MOL   C10326185   6.312   5.531   3.186  0.5161  0.7741  0.4085
   82MOL   C10426186   6.120   5.671   3.278  0.7196 -0.2809  0.0363
   82MOL   C10526187   5.990   5.725   3.270 -0.0184 -0.3941  0.2505
   82MOL   H10626188   5.766   5.869   3.187 -2.1491 -1.5133  1.4843
   82MOL   H10726189   5.794   5.843   3.023 -0.1115 -0.8647 -0.4764
   82MOL   H10826190   5.971   5.692   2.925 -2.5793 -2.6036 -0.0335
   82MOL   H10926191   6.156   5.543   2.961 -1.4537 -2.2313  1.3695
   82MOL   H11026192   6.311   5.482   3.283 -0.7857  0.1812  0.1011
   82MOL   H11126193   6.313   5.450   3.113  0.5358 -0.8281  2.1671
   82MOL   H11226194   6.175   5.670   3.371  0.0071 -0.9975  0.4525
   82MOL   H11326195   5.943   5.775   3.353 -0.5981 -1.8703  0.8235
   82MOL   C11426196   6.425   5.629   3.174 -0.2339  0.0223 -0.1499
   82MOL   C11526197   6.555   5.562   3.152  0.0754  0.0893  0.9085
   82MOL   C11626198   6.627   5.519   3.263  0.6757 -0.3848  0.5928
   82MOL   C11726199   6.755   5.469   3.253  0.5733  0.4217  0.3075
   82MOL   C11826200   6.815   5.453   3.126 -0.3760  0.1956  0.3134
   82MOL   C11926201   6.947   5.377   3.112 -0.2650 -0.2898  0.2497
   82MOL   C12026202   6.746   5.506   3.011 -0.4014 -0.4025 -0.2379
   82MOL   C12126203   6.616   5.556   3.026 -0.2087  0.6412  0.3933
   82MOL   H12226204   6.429   5.696   3.259 -2.3003 -1.6851  1.3370
   82MOL   H12326205   6.405   5.699   3.092 -0.0249 -1.2185 -1.2900
   82MOL   H12426206   6.585   5.532   3.362  2.3399 -0.6126  1.3435
   82MOL   H12526207   6.801   5.436   3.344  0.9149 -0.6709 -0.2558
   82MOL   H12626208   6.955   5.305   3.194 -0.9224 -0.5813  0.0687
   82MOL   H12726209   6.939   5.324   3.017  2.1290 -1.4661  0.6593
   82MOL   H12826210   6.790   5.501   2.913  1.9837 -2.4799  0.8730
   82MOL   H12926211   6.565   5.600   2.941  1.2147  0.1841 -0.7105
   82MOL   C13026212   7.068   5.472   3.113 -0.7013  0.1865 -0.4271
   82MOL   C13126213   7.193   5.395   3.119  0.5045  0.2044  0.5998
   82MOL   C13226214   7.258   5.362   3.243  0.2412 -0.3604  0.1784
   82MOL   C13326215   7.381   5.303   3.240  0.1761 -0.0168 -0.5634
   82MOL   C13426216   7.452   5.273   3.124  0.4856 -0.9514 -0.2837
   82MOL   C13526217   7.589   5.214   3.128  0.1071  0.5332 -0.3500
   82MOL   C13626218   7.388   5.306   3.001 -0.1673 -0.1907 -0.7535
   82MOL   C13726219   7.259   5.364   2.996 -0.6766  0.5137 -0.2290
   82MOL   H13826220   7.067   5.543   3.196 -1.1017  0.2539 -0.4887
   82MOL   H13926221   7.059   5.526   3.019  1.5146  0.9097 -0.2543
   82MOL   H14026222   7.201   5.380   3.333 -2.0248  0.8559 -1.4592
   82MOL   H14126223   7.413   5.254   3.331 -0.4772  1.8600  0.7052
   82MOL   H14226224   7.587   5.118   3.179 -0.0682  0.8807  0.3017
   82MOL   H14326225   7.631   5.206   3.028  2.0627 -0.6882  0.5226
   82MOL   H14426226   7.439   5.286   2.908 -1.4374 -3.3687 -0.8287
   82MOL   H14526227   7.206   5.377   2.903 -0.3796  4.2790  0.0816
   82MOL   C14626228   7.690   5.315   3.205 -0.1128  0.0666  0.6093
   82MOL   C14726229   7.829   5.265   3.224 -0.2674 -0.7062  0.2572
   82MOL   C14826230   7.906   5.255   3.108  0.0072 -0.5555  0.1916
   82MOL   C14926231   8.039   5.222   3.122  0.1557 -0.4194  0.1581
   82MOL   C15026232   8.092   5.194   3.247  0.1014  0.1930  0.2488
   82MOL   C15126233   8.234   5.144   3.261  0.1092  0.5663 -0.4766
   82MOL   C15226234   8.012   5.198   3.362  0.9181  0.5808 -0.4215
   82MOL   C15326235   7.879   5.231   3.351 -0.4460  0.5390 -0.5101
   82MOL   H15426236   7.650   5.339   3.303  1.0806 -3.3669  2.0025
   82MOL   H15526237   7.696   5.404   3.141 -1.3388 -0.6877 -0.5726
   82MOL   H15626238   7.873   5.281   3.009  1.3180  1.5946  0.2983
   82MOL   H15726239   8.097   5.220   3.031 -0.7512 -1.5117 -0.4018
   82MOL   H15826240   8.231   5.056   3.326 -0.4856  1.5082  0.7815
   82MOL   H15926241   8.272   5.116   3.163 -2.0451  0.3016 -1.2702
   82MOL   H16026242   8.056   5.173   3.458  0.9584 -0.8665 -0.8040
   82MOL   H16126243   7.823   5.251   3.440  1.3716  1.5623  0.4522
   82MOL   C16226244   8.328   5.246   3.327 -0.3413  0.0630 -0.1915
   82MOL   C16326245   8.469   5.197   3.336 -0.2018  0.2728 -0.7135
   82MOL   C16426246   8.527   5.164   3.465  0.7017  0.4641  0.2175
   82MOL   C16526247   8.666   5.138   3.466  0.1238  0.2367 -0.3027
   82MOL   C16626248   8.744   5.126   3.347  0.1884  0.3140  0.0166
   82MOL   C16726249   8.889   5.080   3.357 -0.3142  0.0931  0.0227
   82MOL   C16826250   8.681   5.147   3.222  0.1228 -0.5353 -0.2967
   82MOL   C16926251   8.545   5.186   3.216 -0.2918  0.4510  0.2411
   82MOL   H17026252   8.295   5.269   3.429 -0.0876 -1.0989  0.1657
   82MOL   H17126253   8.322   5.332   3.261 -2.0673 -0.7071 -1.0806
   82MOL   H17226254   8.480   5.155   3.561 -1.0416 -1.9592 -0.8129
   82MOL   H17326255   8.716   5.111   3.558  1.3744 -0.8289 -1.2761
   82MOL   H17426256   8.898   4.998   3.428  0.4957  0.6176  0.5351
   82MOL   H17526257   8.910   5.039   3.258 -0.8032 -1.7422  0.6532
   82MOL   H17626258   8.739   5.137   3.131  2.3219 -2.3532  1.2542
   82MOL   H17726259   8.496   5.216   3.125  1.5103 -2.0484 -1.6115
   82MOL   C17826260   8.997   5.181   3.385 -0.4862 -0.0525 -0.2202
   82MOL   C17926261   9.133   5.116   3.405 -0.0305  0.1102  1.1345
   82MOL   C18026262   9.200   5.058   3.297 -0.5489 -0.1928  0.1200
   82MOL   C18126263   9.327   5.003   3.309  0.1574 -0.3869  0.1426
   82MOL   C18226264   9.397   5.016   3.428  0.1519  0.0687  0.0192
   82MOL   C18326265   9.534   4.957   3.438  0.1423 -0.2517 -0.2507
   82MOL   C18426266   9.326   5.076   3.540  0.7136  0.1981  0.2431
   82MOL   C18526267   9.195   5.120   3.533  0.4493  0.5294  0.4072
   82MOL   H18626268   8.978   5.244   3.472 -1.4177  1.3138 -1.3952
   82MOL   H18726269   9.009   5.252   3.303  0.9134 -0.3268 -0.2641
   82MOL   H18826270   9.149   5.051   3.202 -1.3649 -2.2955  0.6934
   82MOL   H18926271   9.378   4.952   3.228 -1.5133 -1.6243 -0.1514
   82MOL   H19026272   9.552   4.966   3.545 -1.8536  2.4271 -0.0983
   82MOL   H19126273   9.536   4.849   3.430  3.5200 -0.3792  1.1970
   82MOL   H19226274   9.380   5.103   3.629  1.9370 -0.6766 -0.2219
   82MOL   H19326275   9.143   5.154   3.621  0.7596  0.3489  0.6613
   82MOL   C19426276   9.627   5.028   3.343 -0.3552 -0.3003  0.6620
   82MOL   C19526277   9.768   4.966   3.354 -0.5687  0.2234  0.1712
   82MOL   C19626278   9.808   4.847   3.286  0.2043  0.0735 -0.5964
   82MOL   C19726279   9.940   4.799   3.301 -0.0976 -0.7907  0.1074
   82MOL   C19826280  10.036   4.876   3.368 -0.3649 -0.6950 -0.5086
   82MOL   C19926281  10.183   4.847   3.364  0.0948  0.1050  0.5795
   82MOL   C20026282   9.996   4.995   3.431  0.7678  0.0114 -0.2532
   82MOL   C20126283   9.860   5.031   3.438 -0.3022  0.0476  0.0153
   82MOL   H20226284   9.625   5.134   3.364  3.1273  0.1811 -1.0884
   82MOL   H20326285   9.591   5.014   3.241 -0.7875  3.0647  0.3208
   82MOL   H20426286   9.740   4.789   3.226 -0.6144  0.6976 -0.2831
   82MOL   H20526287   9.971   4.721   3.233 -1.0896  0.2624 -1.5868
   82MOL   H20626288  10.208   4.805   3.267  0.6593  1.5481  0.0890
   82MOL   H20726289  10.234   4.943   3.359  0.2036  0.0251  0.1209
   82MOL   H20826290  10.070   5.059   3.476 -0.1138  1.2593 -0.5667
   82MOL   H20926291   9.836   5.120   3.493  0.8949  1.1116 -1.1597
   82MOL   C21026292  10.244   4.779   3.484  0.2090 -0.4092 -0.1650
   82MOL   C21126293  10.398   4.778   3.476 -0.2495 -0.2866  0.2066
   82MOL   C21226294  10.468   4.871   3.557 -0.0783 -0.0530  0.5027
   82MOL   C21326295  10.604   4.858   3.571 -0.5071  0.0132 -0.2458
   82MOL   C21426296  10.677   4.756   3.514 -0.2086  0.5270 -0.4192
   82MOL   C21526297  10.827   4.749   3.531  0.4051  0.2613 -0.3149
   82MOL   C21626298  10.609   4.666   3.431 -0.0238  0.6851 -0.3675
   82MOL   C21726299  10.471   4.679   3.409  0.2363 -0.2712 -0.1265
   82MOL   H21826300  10.203   4.678   3.494 -1.2221  0.2300  0.5370
   82MOL   H21926301  10.220   4.838   3.572  2.9964  0.4838  0.0607
   82MOL   H22026302  10.421   4.947   3.616  1.5637  2.2988 -1.1400
   82MOL   H22126303  10.647   4.920   3.649 -3.4090  0.5196  1.0257
   82MOL   H22226304  10.855   4.724   3.428 -1.0332 -1.0934 -0.3903
   82MOL   H22326305  10.867   4.848   3.551 -1.2221  0.2105  3.5110
   82MOL   H22426306  10.670   4.590   3.384  1.5380  1.4483  0.3758
   82MOL   H22526307  10.425   4.621   3.330 -1.1062  0.6226 -0.0220
   82MOL   C22626308  10.867   4.638   3.635  0.7728  0.1104 -0.3115
   82MOL   C22726309  11.021   4.633   3.650  1.1212  0.0129  0.5385
   82MOL   C22826310  11.095   4.732   3.719 -0.1559  0.1349 -0.3306
   82MOL   C22926311  11.234   4.735   3.720 -0.6455 -0.6142  0.1678
   82MOL   C23026312  11.304   4.631   3.653  0.0354 -0.4045  0.0879
   82MOL   C23126313  11.453   4.620   3.656  0.1855 -0.3137 -0.1994
   82MOL   C23226314  11.229   4.530   3.596  0.0809 -0.1615 -0.0113
   82MOL   C23326315  11.093   4.528   3.583 -0.0469 -0.6904 -0.4874
   82MOL   H23426316  10.841   4.545   3.586  1.6301 -0.5258  0.4202
   82MOL   H23526317  10.827   4.658   3.735 -0.5003  1.4228 -1.0590
   82MOL   H23626318  11.044   4.806   3.779  0.0382 -0.7837  0.9953
   82MOL   H23726319  11.297   4.804   3.774 -0.4222  0.4396 -1.4198
   82MOL   H23826320  11.488   4.566   3.569 -0.7096 -1.1941 -0.0249
   82MOL   H23926321  11.481   4.724   3.639  1.9253 -1.0421 -1.9275
   82MOL   H24026322  11.279   4.450   3.543  0.8398  0.8682 -0.8851
   82MOL   H24126323  11.041   4.463   3.513 -0.9958 -1.7380  1.1679
   82MOL   C24226324  11.512   4.544   3.781 -0.5420 -0.3268 -0.8307
   82MOL   C24326325  11.664   4.530   3.791  0.6307 -0.7188  0.5433
   82MOL   C24426326  11.732   4.642   3.845  0.6805 -0.3113  0.6303
   82MOL   C24526327  11.868   4.639   3.872 -0.5641 -0.1884  0.2381
   82MOL   C24626328  11.943   4.527   3.826 -0.5775  0.3737 -0.0627
   82MOL   C24726329  12.093   4.516   3.846 -0.8235  0.0301  0.3496
   82MOL   C24826330  11.878   4.418   3.769  0.4386  0.1439 -0.0733
   82MOL   C24926331  11.737   4.420   3.752 -0.1304  0.0142 -0.5009
   82MOL   H25026332  11.463   4.604   3.859 -1.1291 -0.0481 -1.4080
   82MOL   H25126333  11.471   4.443   3.784 -0.3970 -0.3816 -0.6396
   82MOL   H25226334  11.673   4.723   3.885 -2.3696 -1.0667 -2.1483
   82MOL   H25326335  11.918   4.710   3.937 -0.1132 -1.5783  1.4371
   82MOL   H25426336  12.104   4.516   3.955  2.7974  0.1270  0.0625
   82MOL   H25526337  12.141   4.430   3.799 -0.9941  0.8615 -1.3710
   82MOL   H25626338  11.943   4.341   3.729 -0.8627  0.7619 -3.4990
   82MOL   H25726339  11.697   4.334   3.700 -3.4254  0.6304  0.9047
   82MOL   C25826340  12.163   4.645   3.804  0.2979 -0.1105 -0.6046
   82MOL   C25926341  12.313   4.647   3.815  0.3376 -0.5826  0.5333
   82MOL   C26026342  12.389   4.715   3.715  0.1971  0.4866  0.3853
   82MOL   C26126343  12.526   4.730   3.726 -0.0237 -0.0477 -0.8048
   82MOL   C26226344  12.596   4.657   3.825 -0.0785 -0.2220  0.3884
   82MOL   C26326345  12.747   4.683   3.843  0.8947 -0.2322 -0.2846
   82MOL   C26426346  12.526   4.578   3.918 -0.4344  0.5390 -0.2127
   82MOL   C26526347  12.384   4.569   3.905  0.0424 -0.2218  0.2048
   82MOL   H26626348  12.122   4.727   3.862  1.3005 -0.5793  0.8002
   82MOL   H26726349  12.131   4.659   3.701 -0.1995  2.0071 -0.1839
   82MOL   H26826350  12.327   4.753   3.636  2.0551  2.8507  0.0068
   82MOL   H26926351  12.587   4.778   3.651  1.8236  0.6122  1.0853
   82MOL   H27026352  12.777   4.731   3.750 -0.6436 -1.4976 -1.4723
   82MOL   H27126353  12.774   4.743   3.929  0.0115 -0.6643  0.3011
   82MOL   H27226354  12.571   4.518   3.996  0.7832  0.0811 -1.2579
   82MOL   H27326355  12.345   4.499   3.977 -0.6839 -0.7837 -0.7268
   82MOL   C27426356  12.817   4.552   3.834  0.6811 -0.3920  0.0175
   82MOL   C27526357  12.970   4.579   3.831  0.9656 -0.0883  0.0206
   82MOL   C27626358  13.031   4.614   3.957 -0.1731 -0.0503  0.1898
   82MOL   C27726359  13.171   4.635   3.957 -0.5712 -0.1829  0.4972
   82MOL   C27826360  13.246   4.620   3.841  0.0215  0.1961 -0.1254
   82MOL   C27926361  13.396   4.610   3.858  0.2996 -0.2138 -0.0624
   82MOL   C28026362  13.185   4.584   3.715 -0.5955  0.5074 -0.4561
   82MOL   C28126363  13.044   4.565   3.712 -0.0814  0.1850 -0.5795
   82MOL   H28226364  12.795   4.490   3.921  1.9927 -0.3562  0.3909
   82MOL   H28326365  12.793   4.518   3.734  0.3901 -2.5211  0.7932
   82MOL   H28426366  12.983   4.630   4.052  2.4840  0.2348  1.5506
   82MOL   H28526367  13.229   4.668   4.043 -0.5383  1.0337  0.0176
   82MOL   H28626368  13.452   4.638   3.769 -1.1319  0.1092 -0.8686
   82MOL   H28726369  13.436   4.686   3.925  1.3972 -0.9752  0.1587
   82MOL   H28826370  13.255   4.567   3.635  2.2157  1.3283  1.7472
   82MOL   H28926371  12.992   4.531   3.623 -1.0262 -2.4510  0.9333
   82MOL   C29026372  13.442   4.468   3.890 -0.2839 -0.1878 -0.3966
   82MOL   C29126373  13.597   4.464   3.889  0.1917  0.7053  0.2465
   82MOL   C29226374  13.672   4.494   4.005  0.2837 -0.4540 -0.1056
   82MOL   C29326375  13.815   4.509   4.002  0.4564  0.6733  0.0580
   82MOL   C29426376  13.886   4.474   3.887 -0.2734  0.0837  0.1492
   82MOL   C29526377  14.032   4.489   3.878  0.2370 -0.3296  0.0274
   82MOL   C29626378  13.815   4.422   3.778 -0.3613 -0.2770 -0.0283
   82MOL   C29726379  13.673   4.419   3.777  0.4091 -0.3572  0.3052
   82MOL   H29826380  13.411   4.390   3.821  1.8230  1.2193 -3.0359
   82MOL   H29926381  13.397   4.435   3.984 -1.5425  0.6474 -0.6951
   82MOL   H30026382  13.616   4.520   4.093 -0.3517  1.0470 -0.9284
   82MOL   H30126383  13.864   4.545   4.092 -1.2087  0.0582  1.2378
   82MOL   H30226384  14.062   4.504   3.774 -1.7094 -0.3519 -0.5500
   82MOL   H30326385  14.068   4.571   3.941 -1.3520 -0.3191  0.9337
   82MOL   H30426386  13.858   4.396   3.682  0.3476  0.9477 -0.0560
   82MOL   H30526387  13.611   4.399   3.692  1.1902 -0.8768 -0.1438
   82MOL   C30626388  14.085   4.357   3.942  0.2479 -0.5162 -0.3679
   82MOL   C30726389  14.237   4.339   3.963  0.0668 -0.1511  0.0628
   82MOL   C30826390  14.308   4.432   4.041 -0.1380 -1.1258  0.7127
   82MOL   C30926391  14.451   4.422   4.032 -0.6953  0.6640 -0.1588
   82MOL   C31026392  14.516   4.312   3.976 -0.7813  0.4547 -0.1763
   82MOL   C31126393  14.664   4.304   3.992 -0.0910 -0.5386 -0.6372
   82MOL   C31226394  14.445   4.214   3.901  0.5559 -1.3180  0.6258
   82MOL   C31326395  14.303   4.232   3.894 -0.1155  0.2121 -0.2165
   82MOL   H31426396  14.035   4.270   3.901 -0.3341  0.1615 -1.1265
   82MOL   H31526397  14.043   4.351   4.043  2.3962 -0.6500  0.5640
   82MOL   H31626398  14.263   4.511   4.100  0.0045 -1.3242  1.0882
   82MOL   H31726399  14.506   4.499   4.084  0.4694  0.7996 -1.5748
   82MOL   H31826400  14.695   4.220   4.055  0.8934  0.1001 -0.2580
   82MOL   H31926401  14.701   4.285   3.891  1.6426 -1.5277  0.1745
   82MOL   H32026402  14.495   4.134   3.850 -0.8564 -1.1722 -1.0018
   82MOL   H32126403  14.245   4.168   3.829 -1.0456 -0.3834  1.1819
   82MOL   H32226404  14.710   4.392   4.037 -1.0813 -0.5062  0.3441
   83MOL     C126405   2.726   4.031   0.511 -0.0619 -0.0847  0.1707
   83MOL     C226406   2.856   3.957   0.480 -0.4091 -0.3117  0.1861
   83MOL     C326407   2.970   3.972   0.563 -0.5078 -0.7000 -0.4041
   83MOL     C426408   3.088   3.901   0.532 -0.0890  0.6693 -0.1191
   83MOL     C526409   3.102   3.822   0.417 -0.1087  0.0208  0.0797
   83MOL     C626410   3.231   3.737   0.390  0.0968  0.2596  0.0652
   83MOL     C726411   2.989   3.810   0.333  0.0378 -0.4085  0.3752
   83MOL     C826412   2.863   3.873   0.364 -0.8070 -0.5017 -0.1626
   83MOL     H926413   2.641   3.981   0.465  1.5966 -1.5086 -1.4211
   83MOL    H1026414   2.708   4.054   0.616  0.6147  0.4766  0.1706
   83MOL    H1126415   2.977   4.046   0.641 -0.1216  1.0949 -2.0962
   83MOL    H1226416   3.171   3.919   0.600 -1.0300 -1.7921  1.7887
   83MOL    H1326417   3.241   3.662   0.469 -1.1477 -1.2370 -1.1632
   83MOL    H1426418   3.205   3.688   0.296 -3.1395  0.8458  0.6039
   83MOL    H1526419   3.004   3.744   0.249  0.8951 -0.8422  0.8600
   83MOL    H1626420   2.784   3.862   0.291  0.4646 -1.9527 -1.3500
   83MOL    H1726421   2.733   4.121   0.449  3.5007 -0.8841 -0.6932
   83MOL    C1826422   3.358   3.820   0.369 -0.4625  1.2359  0.1100
   83MOL    C1926423   3.471   3.738   0.310 -0.3617 -0.3820  0.4089
   83MOL    C2026424   3.511   3.768   0.176  0.2222 -0.2816  0.2922
   83MOL    C2126425   3.620   3.698   0.116  0.0301 -0.9674  0.0344
   83MOL    C2226426   3.685   3.597   0.193 -0.1633 -0.9262  0.6093
   83MOL    C2326427   3.816   3.540   0.132 -0.4268  0.7231 -0.1425
   83MOL    C2426428   3.639   3.563   0.322 -0.1040  0.2663 -0.6140
   83MOL    C2526429   3.533   3.630   0.379 -0.4321 -0.3154  0.3406
   83MOL    H2626430   3.342   3.904   0.302 -3.1676  1.7561  1.3585
   83MOL    H2726431   3.387   3.873   0.460  1.4416 -0.3813  0.4801
   83MOL    H2826432   3.467   3.847   0.118  0.6782 -1.5723 -1.8471
   83MOL    H2926433   3.658   3.746   0.026  0.3623  1.3794  1.3753
   83MOL    H3026434   3.900   3.560   0.198 -0.7832 -1.0506  0.9019
   83MOL    H3126435   3.841   3.595   0.042  0.0319 -1.0784 -1.1378
   83MOL    H3226436   3.699   3.488   0.372 -0.3612 -0.0610 -0.7962
   83MOL    H3326437   3.504   3.597   0.478  0.8518  1.3056  1.2926
   83MOL    C3426438   3.807   3.387   0.112 -0.1676 -0.4650 -0.5621
   83MOL    C3526439   3.939   3.325   0.090  0.1954  0.9941 -0.3431
   83MOL    C3626440   3.984   3.296  -0.034  0.6461  0.2266  0.2327
   83MOL    C3726441   4.103   3.220  -0.059  0.0391 -0.0579 -0.5872
   83MOL    C3826442   4.179   3.177   0.053 -0.3205 -0.2388  0.1024
   83MOL    C3926443   4.311   3.127   0.037  0.7854 -0.4637 -0.1855
   83MOL    C4026444   4.122   3.196   0.183 -1.4383 -0.3582 -0.2083
   83MOL    C4126445   4.002   3.264   0.204 -0.3561 -0.0432  0.4722
   83MOL    H4226446   3.737   3.360   0.033 -0.0385 -1.5514 -0.3264
   83MOL    H4326447   3.749   3.336   0.190  1.7290 -0.3452  0.9630
   83MOL    H4426448   3.921   3.321  -0.118 -0.6695 -2.6767  0.3073
   83MOL    H4526449   4.139   3.210  -0.160  0.6174 -0.5222 -0.3416
   83MOL    H4626450   4.363   3.214  -0.005 -1.1599  0.7971 -0.0479
   83MOL    H4726451   4.360   3.119   0.134 -0.6897 -0.2770  0.5866
   83MOL    H4826452   4.172   3.171   0.276  0.6745  0.2541 -1.1404
   83MOL    H4926453   3.966   3.267   0.306  1.2813 -0.5165  1.0930
   83MOL    C5026454   4.314   2.999  -0.055  1.0177  0.0897  0.4666
   83MOL    C5126455   4.451   2.968  -0.106  0.6839 -0.8795 -0.4820
   83MOL    C5226456   4.502   3.038  -0.218 -1.1185 -0.6650 -0.1659
   83MOL    C5326457   4.626   3.003  -0.270  0.0946 -0.5103  0.4430
   83MOL    C5426458   4.704   2.903  -0.211  0.0607 -0.7675 -1.0133
   83MOL    C5526459   4.844   2.876  -0.266 -0.2370 -0.1657  0.1054
   83MOL    C5626460   4.651   2.834  -0.104 -0.4417 -0.1535  0.2113
   83MOL    C5726461   4.532   2.873  -0.045  0.0687  0.2651 -0.5044
   83MOL    H5826462   4.252   3.013  -0.144  0.9854 -0.9069  0.3295
   83MOL    H5926463   4.275   2.915   0.001  0.9427 -0.7154 -0.7652
   83MOL    H6026464   4.442   3.117  -0.259  0.2651  0.1711 -0.6083
   83MOL    H6126465   4.662   3.048  -0.361  0.5694  0.0669  0.9168
   83MOL    H6226466   4.900   2.969  -0.256 -0.4569  0.2215 -1.9684
   83MOL    H6326467   4.883   2.793  -0.207  0.2085 -0.8395 -1.1163
   83MOL    H6426468   4.716   2.760  -0.060 -0.0479  0.7922  1.2607
   83MOL    H6526469   4.494   2.812   0.035  1.6070 -0.6856 -0.4744
   83MOL    C6626470   4.848   2.832  -0.416 -0.3623  0.4444  0.2792
   83MOL    C6726471   4.985   2.783  -0.471  0.2878  0.1340 -0.7372
   83MOL    C6826472   5.107   2.848  -0.437  0.6749 -0.6353 -0.4505
   83MOL    C6926473   5.222   2.815  -0.505 -0.4036  0.4257 -0.1497
   83MOL    C7026474   5.224   2.707  -0.598 -0.9616  0.2585  0.0607
   83MOL    C7126475   5.356   2.657  -0.659  0.5958 -0.8945  0.2109
   83MOL    C7226476   5.100   2.651  -0.640 -0.1271 -0.0609 -0.0168
   83MOL    C7326477   4.979   2.689  -0.578  0.0814 -0.0435  0.7406
   83MOL    H7426478   4.821   2.910  -0.487  0.3211  2.0061  1.7075
   83MOL    H7526479   4.783   2.745  -0.423  1.2277 -0.8364  1.0985
   83MOL    H7626480   5.109   2.934  -0.372  0.4148 -0.7110 -0.3423
   83MOL    H7726481   5.307   2.878  -0.483 -0.3190  0.0086  0.7253
   83MOL    H7826482   5.409   2.751  -0.674 -1.3537  0.2189  0.1451
   83MOL    H7926483   5.343   2.622  -0.761  1.0968  0.5116 -0.3385
   83MOL    H8026484   5.096   2.570  -0.711  0.9747 -1.5237  1.5368
   83MOL    H8126485   4.886   2.644  -0.609  0.4581 -0.3546  0.0342
   83MOL    C8226486   5.436   2.557  -0.573 -0.6169 -0.2310  0.3597
   83MOL    C8326487   5.570   2.535  -0.638 -0.3324 -0.5691  0.0460
   83MOL    C8426488   5.684   2.617  -0.602 -0.4148 -0.0682  0.4790
   83MOL    C8526489   5.813   2.592  -0.656  0.0239  0.2744  0.3393
   83MOL    C8626490   5.826   2.476  -0.740 -0.1345  0.7076 -0.1410
   83MOL    C8726491   5.957   2.436  -0.794  0.2960 -0.0168  0.6336
   83MOL    C8826492   5.712   2.403  -0.778  0.2092 -0.1252 -0.2644
   83MOL    C8926493   5.585   2.438  -0.735  0.1245 -0.0718 -0.6245
   83MOL    H9026494   5.381   2.464  -0.554 -1.8376  0.7521  1.7642
   83MOL    H9126495   5.450   2.586  -0.469  0.9206 -0.6629  0.2887
   83MOL    H9226496   5.666   2.696  -0.531  0.2418  0.6200 -0.1017
   83MOL    H9326497   5.899   2.652  -0.630 -1.1243  1.4708  1.4731
   83MOL    H9426498   6.024   2.521  -0.785 -0.4475  0.4851  1.4505
   83MOL    H9526499   5.950   2.414  -0.901 -0.8377 -0.0022  0.6992
   83MOL    H9626500   5.728   2.324  -0.850 -0.4518  0.4548 -1.0463
   83MOL    H9726501   5.497   2.380  -0.758 -0.5327  1.1067 -1.1816
   83MOL    C9826502   6.023   2.321  -0.706 -0.9866 -0.5891 -0.2309
   83MOL    C9926503   6.164   2.285  -0.754  0.2097 -0.4377 -0.4917
   83MOL   C10026504   6.264   2.384  -0.733 -0.2116  0.6728 -0.0093
   83MOL   C10126505   6.393   2.358  -0.789 -0.0098  0.0633 -0.0446
   83MOL   C10226506   6.431   2.226  -0.823 -0.5703  0.1207 -0.4587
   83MOL   C10326507   6.566   2.194  -0.874  0.3782  0.3854 -0.0440
   83MOL   C10426508   6.327   2.129  -0.835 -0.5202  0.2246 -0.1916
   83MOL   C10526509   6.195   2.155  -0.797  0.2256  0.1717  0.1436
   83MOL   H10626510   5.950   2.241  -0.719  0.9798 -2.3361 -0.7318
   83MOL   H10726511   6.031   2.355  -0.603 -2.7648 -1.7212  0.3003
   83MOL   H10826512   6.231   2.482  -0.701 -0.7473  1.5391 -3.0432
   83MOL   H10926513   6.460   2.443  -0.795 -0.6038  0.4328 -1.5002
   83MOL   H11026514   6.579   2.136  -0.965 -0.5956  1.0461 -0.6041
   83MOL   H11126515   6.623   2.280  -0.908 -1.0035  1.0087 -0.7968
   83MOL   H11226516   6.360   2.030  -0.865  1.1423  0.8710 -0.5582
   83MOL   H11326517   6.111   2.088  -0.793  0.3839  0.0399  1.4798
   83MOL   C11426518   6.647   2.106  -0.780  0.0752  0.3210  0.1394
   83MOL   C11526519   6.782   2.074  -0.834  0.9067 -0.5636 -0.0140
   83MOL   C11626520   6.892   2.150  -0.781 -0.1547 -0.0675  0.3294
   83MOL   C11726521   7.017   2.128  -0.843  0.1157  0.4510  0.0867
   83MOL   C11826522   7.032   2.032  -0.946 -0.1899  0.5916 -0.0007
   83MOL   C11926523   7.173   2.018  -1.000 -0.8882 -0.1049 -1.0057
   83MOL   C12026524   6.921   1.950  -0.991 -0.6413  0.2309  0.8016
   83MOL   C12126525   6.793   1.974  -0.938 -0.4995  0.8102 -0.1280
   83MOL   H12226526   6.593   2.014  -0.755 -1.1868  0.8827 -0.4720
   83MOL   H12326527   6.653   2.146  -0.679 -1.4104 -0.4877  0.5690
   83MOL   H12426528   6.879   2.229  -0.708 -2.6526 -0.9739  0.8854
   83MOL   H12526529   7.106   2.167  -0.797 -0.1707  1.2724 -0.0414
   83MOL   H12626530   7.172   1.934  -1.070 -0.4918 -2.0201  1.2155
   83MOL   H12726531   7.200   2.107  -1.058  3.1322 -1.2191 -1.0282
   83MOL   H12826532   6.932   1.876  -1.069 -2.2878  1.3856 -0.5784
   83MOL   H12926533   6.706   1.916  -0.965 -0.6260  1.4308 -1.0685
   83MOL   C13026534   7.276   1.988  -0.894  0.0206 -0.0889 -0.4495
   83MOL   C13126535   7.416   1.964  -0.956  0.6845 -0.1262 -0.8354
   83MOL   C13226536   7.514   2.063  -0.937 -0.4992  0.1769  0.3992
   83MOL   C13326537   7.645   2.034  -0.978 -0.3356  0.1282 -0.2950
   83MOL   C13426538   7.677   1.910  -1.032 -1.1731  0.0970  0.4968
   83MOL   C13526539   7.821   1.872  -1.066  0.2882  0.7652  0.8761
   83MOL   C13626540   7.578   1.810  -1.049  0.2782 -0.2138 -0.7561
   83MOL   C13726541   7.450   1.835  -1.006  0.6010  0.2890  0.4856
   83MOL   H13826542   7.240   1.904  -0.836 -2.2629  0.7582 -0.6043
   83MOL   H13926543   7.287   2.071  -0.824 -3.8431 -0.8905  1.2096
   83MOL   H14026544   7.486   2.157  -0.893 -1.7640 -0.2512  0.5226
   83MOL   H14126545   7.721   2.107  -0.955 -1.1947  0.8057  0.4187
   83MOL   H14226546   7.814   1.846  -1.171  2.1296  2.0258  0.4321
   83MOL   H14326547   7.878   1.964  -1.051 -0.2188  1.5961 -2.0421
   83MOL   H14426548   7.609   1.718  -1.096  2.8110  1.2534 -2.1005
   83MOL   H14526549   7.377   1.756  -1.010  0.9636 -0.0054 -0.2701
   83MOL   C14626550   7.883   1.761  -0.985 -0.1207 -0.3893 -0.6514
   83MOL   C14726551   8.028   1.754  -1.035 -0.2624 -0.5929  1.1633
   83MOL   C14826552   8.125   1.854  -1.006 -0.0850 -0.3979  0.3577
   83MOL   C14926553   8.259   1.845  -1.062  0.0989  0.8879  0.0651
   83MOL   C15026554   8.291   1.736  -1.147  0.1762  0.4238 -0.1841
   83MOL   C15126555   8.432   1.721  -1.192  0.1702 -0.2075 -0.5399
   83MOL   C15226556   8.193   1.641  -1.174 -0.2623 -0.0936  0.1620
   83MOL   C15326557   8.061   1.646  -1.122  0.7244 -0.0178 -0.2915
   83MOL   H15426558   7.837   1.663  -0.999 -1.4361  0.0938  0.1614
   83MOL   H15526559   7.879   1.795  -0.881  0.0052  3.8329 -1.9320
   83MOL   H15626560   8.108   1.946  -0.951  0.5433 -0.5815  0.8687
   83MOL   H15726561   8.341   1.916  -1.057  1.1106 -0.1292 -1.5686
   83MOL   H15826562   8.452   1.730  -1.299  1.4306  0.3969 -0.2634
   83MOL   H15926563   8.497   1.793  -1.143  0.3958 -0.4742 -0.4501
   83MOL   H16026564   8.222   1.560  -1.239  2.2743  0.8643  0.0328
   83MOL   H16126565   7.985   1.571  -1.137  0.3308  0.3332 -0.0697
   83MOL   C16226566   8.482   1.580  -1.173  0.4864 -0.0550 -0.3362
   83MOL   C16326567   8.625   1.561  -1.225  1.0461  0.5237 -0.2682
   83MOL   C16426568   8.731   1.643  -1.181 -0.6346  0.1521  0.2190
   83MOL   C16526569   8.863   1.629  -1.224 -0.3565 -0.4892  0.3783
   83MOL   C16626570   8.895   1.529  -1.317  0.8454  0.3466 -0.0510
   83MOL   C16726571   9.034   1.513  -1.372 -0.1782 -0.3706 -0.1240
   83MOL   C16826572   8.791   1.440  -1.356 -1.0676 -0.1814  0.5887
   83MOL   C16926573   8.659   1.458  -1.315 -0.3813 -0.0815 -0.0004
   83MOL   H17026574   8.417   1.505  -1.218 -0.9683  1.2437 -0.4290
   83MOL   H17126575   8.491   1.556  -1.067  3.6170  1.8745 -0.1118
   83MOL   H17226576   8.718   1.714  -1.100 -1.8554 -1.0997  1.1431
   83MOL   H17326577   8.942   1.692  -1.185  1.2167 -1.2018 -1.5945
   83MOL   H17426578   9.030   1.490  -1.479  1.1812 -1.0329 -0.0402
   83MOL   H17526579   9.074   1.613  -1.357  3.0907 -1.5112 -0.8434
   83MOL   H17626580   8.816   1.360  -1.424 -0.5503  2.5549 -2.5539
   83MOL   H17726581   8.580   1.393  -1.351 -0.7070 -0.8934  2.1006
   83MOL   C17826582   9.114   1.404  -1.295 -0.2513 -0.1038  0.0298
   83MOL   C17926583   9.261   1.394  -1.337  0.2607 -0.1589 -0.1729
   83MOL   C18026584   9.363   1.448  -1.257  0.3926  0.2428 -0.5085
   83MOL   C18126585   9.497   1.444  -1.303 -0.2129  0.4104  0.0686
   83MOL   C18226586   9.532   1.378  -1.421 -0.2929  0.2888 -0.0491
   83MOL   C18326587   9.674   1.380  -1.465  0.1231  0.2049  0.0386
   83MOL   C18426588   9.433   1.314  -1.499 -0.3342 -0.3113  0.0093
   83MOL   C18526589   9.294   1.318  -1.454  0.0051 -0.8489  0.3131
   83MOL   H18626590   9.079   1.304  -1.323  2.4446 -0.9856 -0.3480
   83MOL   H18726591   9.104   1.399  -1.187 -1.7473  0.8211 -0.0530
   83MOL   H18826592   9.337   1.495  -1.164  1.0580 -1.4791  0.5773
   83MOL   H18926593   9.562   1.508  -1.245  1.5283 -0.4964 -0.8182
   83MOL   H19026594   9.679   1.347  -1.569  1.0382 -1.3791  0.5672
   83MOL   H19126595   9.715   1.480  -1.472  1.6713 -0.5235 -1.7917
   83MOL   H19226596   9.460   1.269  -1.594  3.0488  2.8247 -0.6390
   83MOL   H19326597   9.213   1.276  -1.514  0.2152  1.5769 -1.7534
   83MOL   C19426598   9.767   1.305  -1.376 -1.3388 -0.0180  0.0967
   83MOL   C19526599   9.901   1.272  -1.444 -0.2936  0.3138  0.4683
   83MOL   C19626600   9.908   1.195  -1.559 -0.1811  0.1516  0.3978
   83MOL   C19726601  10.031   1.166  -1.618  0.1994  0.1670  0.8839
   83MOL   C19826602  10.150   1.218  -1.558 -0.2873  0.7342 -0.1532
   83MOL   C19926603  10.285   1.199  -1.626 -0.3191  0.7963 -0.2062
   83MOL   C20026604  10.139   1.300  -1.441 -0.2443 -0.4665  0.3250
   83MOL   C20126605  10.015   1.316  -1.382 -0.5545 -0.5028 -0.1930
   83MOL   H20226606   9.724   1.211  -1.340  0.5039 -0.8781  0.1097
   83MOL   H20326607   9.784   1.368  -1.288  1.7290 -2.0944  1.0608
   83MOL   H20426608   9.818   1.150  -1.597  0.7098 -0.3229 -1.1828
   83MOL   H20526609  10.042   1.100  -1.702  1.2988 -0.5108  1.5430
   83MOL   H20626610  10.257   1.196  -1.732 -4.1330  3.5194  0.5876
   83MOL   H20726611  10.357   1.280  -1.611 -2.2019  2.1167  2.1431
   83MOL   H20826612  10.224   1.349  -1.398 -1.0623  1.4815 -0.2027
   83MOL   H20926613  10.011   1.377  -1.293  0.8592 -0.4886 -0.1273
   83MOL   C21026614  10.340   1.065  -1.573  0.2047 -0.3619  0.2305
   83MOL   C21126615  10.471   1.030  -1.637  0.3267  0.6165  0.6185
   83MOL   C21226616  10.588   1.091  -1.589 -0.3538  0.1029  0.2764
   83MOL   C21326617  10.713   1.060  -1.639  0.4231  0.4160 -0.2285
   83MOL   C21426618  10.727   0.961  -1.738 -0.3104 -0.5925  0.5751
   83MOL   C21526619  10.869   0.934  -1.791  0.4928 -0.1175  0.4524
   83MOL   C21626620  10.613   0.885  -1.781 -0.6125 -0.1177  0.4550
   83MOL   C21726621  10.487   0.916  -1.729  0.0225  0.1336 -0.0653
   83MOL   H21826622  10.267   0.986  -1.591 -1.3298  1.1319 -0.2010
   83MOL   H21926623  10.343   1.070  -1.464 -1.6027 -1.2505  0.3427
   83MOL   H22026624  10.575   1.171  -1.517 -1.0435 -0.0197  0.2887
   83MOL   H22126625  10.802   1.113  -1.608  0.6310 -0.9562  1.6057
   83MOL   H22226626  10.856   0.869  -1.877 -0.9099  0.0437  0.5341
   83MOL   H22326627  10.904   1.030  -1.829 -2.4351  1.4073  1.4225
   83MOL   H22426628  10.617   0.802  -1.850  1.6462  1.4211 -1.3606
   83MOL   H22526629  10.393   0.875  -1.762 -0.6359 -0.4628  2.4476
   83MOL   C22626630  10.961   0.876  -1.689 -0.2681 -0.0308 -0.0801
   83MOL   C22726631  11.102   0.842  -1.747  0.2998 -0.1739  0.0517
   83MOL   C22826632  11.117   0.736  -1.841 -0.6867 -0.3771 -0.1569
   83MOL   C22926633  11.249   0.710  -1.886  0.2275  0.4353  0.0596
   83MOL   C23026634  11.358   0.788  -1.849  0.0823  0.1908 -0.3856
   83MOL   C23126635  11.491   0.783  -1.929 -0.0283  0.0130 -0.4998
   83MOL   C23226636  11.342   0.886  -1.747 -0.2386  0.0698  0.7256
   83MOL   C23326637  11.214   0.910  -1.694  0.0778  0.4367  0.7724
   83MOL   H23426638  10.908   0.788  -1.652 -1.3063  1.6135  2.4855
   83MOL   H23526639  10.977   0.942  -1.604  1.2092  0.2611 -0.5787
   83MOL   H23626640  11.038   0.679  -1.888 -1.0040 -0.5017  0.5195
   83MOL   H23726641  11.255   0.635  -1.963  2.8517  0.0680  0.5751
   83MOL   H23826642  11.504   0.675  -1.934  2.0199  0.1161  1.5959
   83MOL   H23926643  11.473   0.825  -2.028  0.7775 -0.5883 -0.9105
   83MOL   H24026644  11.427   0.938  -1.707  0.6638 -0.0281 -1.0246
   83MOL   H24126645  11.202   0.978  -1.611  2.7481  0.1758  1.4201
   83MOL   C24226646  11.609   0.848  -1.856  0.3725 -0.5867  1.0512
   83MOL   C24326647  11.731   0.803  -1.924  0.0675 -0.1721 -0.3154
   83MOL   C24426648  11.811   0.716  -1.852 -0.4151  0.0540  0.1318
   83MOL   C24526649  11.931   0.662  -1.904  0.4559 -0.1070  0.1759
   83MOL   C24626650  11.981   0.710  -2.026 -0.4100  0.0105 -0.4314
   83MOL   C24726651  12.118   0.660  -2.072 -0.7276 -0.0850 -0.0980
   83MOL   C24826652  11.893   0.790  -2.105 -0.2807 -0.9012 -0.0391
   83MOL   C24926653  11.765   0.834  -2.055 -0.4577 -0.2502  0.2345
   83MOL   H25026654  11.606   0.957  -1.857  3.6996 -0.4262 -1.4742
   83MOL   H25126655  11.608   0.814  -1.753  1.0376 -0.4718  1.0942
   83MOL   H25226656  11.765   0.691  -1.758  1.0899  0.8382  1.1067
   83MOL   H25326657  11.995   0.603  -1.840 -0.2507 -1.1420 -0.0779
   83MOL   H25426658  12.128   0.551  -2.082  2.4089 -0.1199  2.4544
   83MOL   H25526659  12.128   0.704  -2.172 -0.0970  1.2981  0.5606
   83MOL   H25626660  11.925   0.819  -2.204  1.6477 -0.7878  0.5858
   83MOL   H25726661  11.703   0.897  -2.117 -0.4350 -1.7866 -1.3882
   83MOL   C25826662  12.231   0.716  -1.982 -0.4122  0.3045  0.0015
   83MOL   C25926663  12.369   0.666  -2.018 -0.6847  0.4108  0.1026
   83MOL   C26026664  12.460   0.661  -1.914  0.4025 -0.0885 -0.6659
   83MOL   C26126665  12.592   0.609  -1.939  0.2447  0.4264  0.0908
   83MOL   C26226666  12.630   0.565  -2.070  0.3307 -0.4823  0.1437
   83MOL   C26326667  12.772   0.513  -2.088  0.7888  0.1537  0.0299
   83MOL   C26426668  12.537   0.567  -2.178  0.8806  0.3097 -0.5891
   83MOL   C26526669  12.410   0.614  -2.145  0.3912  0.6374  0.1236
   83MOL   H26626670  12.202   0.683  -1.882 -1.8710 -0.0311 -0.5086
   83MOL   H26726671  12.237   0.823  -1.966 -0.4926  0.2299  0.5338
   83MOL   H26826672  12.430   0.682  -1.812 -0.5363 -1.8205 -0.5667
   83MOL   H26926673  12.663   0.592  -1.860  2.6968  0.4687 -2.0708
   83MOL   H27026674  12.779   0.411  -2.050 -0.5234 -1.3696 -3.6150
   83MOL   H27126675  12.775   0.501  -2.196  1.3885 -1.5945  0.2191
   83MOL   H27226676  12.558   0.520  -2.273 -1.6677  0.2329 -1.1544
   83MOL   H27326677  12.346   0.618  -2.231  1.2419  0.3080 -0.5353
   83MOL   C27426678  12.875   0.606  -2.023 -1.0664  0.4904  0.2685
   83MOL   C27526679  13.020   0.563  -2.042  0.5300  0.0431 -0.8674
   83MOL   C27626680  13.113   0.643  -1.984 -0.7566  0.3623 -0.2146
   83MOL   C27726681  13.255   0.632  -2.004  0.2030  0.0144 -0.2333
   83MOL   C27826682  13.295   0.521  -2.080  0.1815 -0.0695  0.0833
   83MOL   C27926683  13.441   0.486  -2.089 -0.0947 -0.3847 -0.2573
   83MOL   C28026684  13.201   0.429  -2.137 -0.0965 -0.0776  0.3432
   83MOL   C28126685  13.060   0.455  -2.120 -0.3668 -0.6309 -0.0049
   83MOL   H28226686  12.859   0.706  -2.063 -2.7230 -0.6059 -1.8970
   83MOL   H28326687  12.860   0.627  -1.917 -1.9133  1.1934  0.0197
   83MOL   H28426688  13.078   0.723  -1.922 -1.5031 -0.1959  0.0810
   83MOL   H28526689  13.326   0.701  -1.960 -0.2326  0.5332 -0.3440
   83MOL   H28626690  13.499   0.525  -2.005 -0.6106 -2.7642  1.2456
   83MOL   H28726691  13.453   0.378  -2.090 -0.8777 -0.4808  0.9010
   83MOL   H28826692  13.231   0.338  -2.187  1.9287  0.3543  0.7237
   83MOL   H28926693  12.979   0.397  -2.160  0.6132 -1.3404 -0.9945
   83MOL   C29026694  13.514   0.528  -2.218  0.1878  0.7648 -0.6097
   83MOL   C29126695  13.653   0.462  -2.242 -0.2614 -0.3653 -0.2726
   83MOL   C29226696  13.664   0.356  -2.332  0.0590  0.4222 -0.0465
   83MOL   C29326697  13.799   0.310  -2.365  0.0367 -1.1314  0.4333
   83MOL   C29426698  13.913   0.370  -2.305  0.1200  0.2034 -0.2871
   83MOL   C29526699  14.056   0.316  -2.340 -0.0556 -0.0438 -0.2983
   83MOL   C29626700  13.897   0.485  -2.228  0.1607 -0.5992 -0.5103
   83MOL   C29726701  13.771   0.525  -2.196  0.4015 -0.1697  0.5981
   83MOL   H29826702  13.518   0.635  -2.241  2.0831  0.6580 -0.8339
   83MOL   H29926703  13.448   0.492  -2.297 -0.3539  0.9229 -0.2328
   83MOL   H30026704  13.576   0.311  -2.375  0.8319 -0.0049 -1.2239
   83MOL   H30126705  13.802   0.224  -2.431 -1.5273  0.9665 -2.4970
   83MOL   H30226706  14.105   0.272  -2.253  1.5954  2.3300  0.0037
   83MOL   H30326707  14.053   0.225  -2.401  0.3939 -0.9908  1.0527
   83MOL   H30426708  13.984   0.533  -2.185 -0.6001 -1.3825  1.9912
   83MOL   H30526709  13.751   0.609  -2.131  0.8180  1.0138 -0.7965
   83MOL   C30626710  14.145   0.423  -2.415  0.2903 -0.3948  0.5461
   83MOL   C30726711  14.271   0.357  -2.465 -0.3072 -0.2862  0.0337
   83MOL   C30826712  14.377   0.348  -2.376  0.2798  1.1949 -0.8555
   83MOL   C30926713  14.487   0.275  -2.416 -0.3428  0.1728  0.9625
   83MOL   C31026714  14.503   0.221  -2.545  0.1574 -0.1197 -0.3552
   83MOL   C31126715  14.631   0.148  -2.578 -0.6900  0.2337 -0.3968
   83MOL   C31226716  14.396   0.236  -2.631 -0.1173  0.4978 -0.7743
   83MOL   C31326717  14.282   0.304  -2.594  0.2278 -0.1318 -0.0690
   83MOL   H31426718  14.176   0.489  -2.334  0.3133  1.2359 -0.7784
   83MOL   H31526719  14.083   0.483  -2.481  2.0579  1.3771  0.4375
   83MOL   H31626720  14.379   0.394  -2.279  0.0217 -0.3398 -0.1061
   83MOL   H31726721  14.572   0.275  -2.349  0.6179  3.4875 -0.1492
   83MOL   H31826722  14.600   0.071  -2.649 -0.8213  1.9695 -2.2870
   83MOL   H31926723  14.703   0.200  -2.641 -2.2957  3.8291  0.6002
   83MOL   H32026724  14.397   0.201  -2.733  1.8812  0.5192 -0.7827
   83MOL   H32126725  14.191   0.304  -2.652  0.4097 -0.9810 -0.3648
   83MOL   H32226726  14.678   0.108  -2.489 -2.7653 -0.4865  0.3981
   84MOL     C126727   0.384   6.777   6.851  0.2106 -0.4207  0.3708
   84MOL     C226728   0.527   6.734   6.861  0.6671  0.4705  0.2355
   84MOL     C326729   0.632   6.810   6.915  0.1522 -0.1650 -0.7010
   84MOL     C426730   0.758   6.759   6.927 -0.1615  0.1152  0.7842
   84MOL     C526731   0.787   6.631   6.885 -0.1637 -0.6158  0.5628
   84MOL     C626732   0.931   6.579   6.893  0.4893 -0.0328 -0.0296
   84MOL     C726733   0.686   6.556   6.824  0.7030 -0.1732  0.0041
   84MOL     C826734   0.555   6.601   6.821 -0.3928 -0.6509  0.2029
   84MOL     H926735   0.384   6.874   6.801  1.2318 -1.3405 -1.4733
   84MOL    H1026736   0.315   6.712   6.797  0.3983 -1.0030  0.8350
   84MOL    H1126737   0.611   6.905   6.962  1.7559 -0.8802  1.5430
   84MOL    H1226738   0.832   6.812   6.983 -1.6800  1.4465  1.5762
   84MOL    H1326739   0.988   6.609   6.980  2.2831 -0.8686 -0.8863
   84MOL    H1426740   0.931   6.470   6.901 -2.5738 -0.0370  0.6715
   84MOL    H1526741   0.699   6.459   6.779  1.1269  0.4388 -1.2007
   84MOL    H1626742   0.474   6.535   6.793  1.0058 -2.3398  0.1042
   84MOL    H1726743   0.349   6.794   6.952 -0.5453  1.0492 -0.1171
   84MOL    C1826744   1.017   6.610   6.774 -0.6216  0.8082 -0.1413
   84MOL    C1926745   1.148   6.545   6.781 -0.4288  0.7595 -0.2234
   84MOL    C2026746   1.265   6.621   6.814 -0.4707 -0.3994  0.2874
   84MOL    C2126747   1.393   6.561   6.807  0.3228 -0.3272  0.2744
   84MOL    C2226748   1.404   6.428   6.761 -0.4708 -0.0344 -0.6211
   84MOL    C2326749   1.540   6.370   6.763 -0.1350  0.9175 -0.6604
   84MOL    C2426750   1.292   6.351   6.722 -0.3781  0.2221 -1.1231
   84MOL    C2526751   1.163   6.409   6.735 -0.0295 -0.1025 -0.0974
   84MOL    H2626752   0.968   6.561   6.690  2.0311  0.0370 -1.2827
   84MOL    H2726753   1.020   6.718   6.766  0.3831  0.7077 -1.3179
   84MOL    H2826754   1.252   6.723   6.847 -0.9142 -0.2723 -0.2728
   84MOL    H2926755   1.475   6.623   6.841  0.4008  0.7973 -1.8203
   84MOL    H3026756   1.546   6.263   6.779 -0.1479  0.4493 -3.5571
   84MOL    H3126757   1.599   6.402   6.849 -0.1065  1.8279 -1.0161
   84MOL    H3226758   1.295   6.246   6.695 -0.8636 -0.2465  0.5830
   84MOL    H3326759   1.075   6.353   6.709 -1.0002  1.5947 -0.4990
   84MOL    C3426760   1.624   6.395   6.638 -0.0684 -0.1848 -0.3753
   84MOL    C3526761   1.762   6.335   6.654 -0.4924  0.4043 -0.2143
   84MOL    C3626762   1.867   6.411   6.705 -0.8618 -0.0598 -0.5067
   84MOL    C3726763   1.992   6.354   6.714 -0.2586 -0.6574  0.4205
   84MOL    C3826764   2.018   6.226   6.669  0.8513  0.9518  0.5620
   84MOL    C3926765   2.162   6.172   6.677 -0.0431 -0.0508 -0.1359
   84MOL    C4026766   1.907   6.154   6.616 -0.2389  0.1402  0.6508
   84MOL    C4126767   1.781   6.205   6.608  0.9306 -0.9910 -0.3616
   84MOL    H4226768   1.640   6.503   6.630 -2.1049  0.0455 -1.7211
   84MOL    H4326769   1.576   6.362   6.546  0.2666 -0.6469 -0.3817
   84MOL    H4426770   1.846   6.511   6.742 -0.6455 -0.5158  0.9101
   84MOL    H4526771   2.066   6.423   6.751 -0.2899 -0.5768  0.3328
   84MOL    H4626772   2.218   6.220   6.757  0.5093 -1.2055  0.1921
   84MOL    H4726773   2.150   6.066   6.702  1.5641 -0.6278 -1.7136
   84MOL    H4826774   1.921   6.050   6.591 -1.5155  0.2658 -0.5978
   84MOL    H4926775   1.700   6.138   6.582 -0.5972  0.7520 -0.1700
   84MOL    C5026776   2.225   6.179   6.527  0.5068  0.5995  0.0449
   84MOL    C5126777   2.365   6.111   6.508  0.1454 -0.3493  0.0503
   84MOL    C5226778   2.374   5.977   6.467  0.2354  0.2336 -0.2679
   84MOL    C5326779   2.494   5.911   6.470 -0.2031 -0.1917 -0.5894
   84MOL    C5426780   2.614   5.970   6.511  0.1435  0.2217  0.4843
   84MOL    C5526781   2.741   5.887   6.507  0.7131 -0.0513 -0.2811
   84MOL    C5626782   2.607   6.110   6.540 -0.4857  0.1582  0.0807
   84MOL    C5726783   2.485   6.180   6.536  0.0484  0.1625  0.0706
   84MOL    H5826784   2.235   6.285   6.502  2.1430  0.7525  1.3105
   84MOL    H5926785   2.147   6.135   6.464 -0.9566  1.0462  1.4964
   84MOL    H6026786   2.290   5.917   6.437 -0.5327 -0.1105  2.3895
   84MOL    H6126787   2.504   5.806   6.445 -2.3397 -0.4434 -0.4141
   84MOL    H6226788   2.788   5.910   6.602 -0.2598  1.9843 -0.2535
   84MOL    H6326789   2.730   5.779   6.504 -0.9790  0.1088 -0.1948
   84MOL    H6426790   2.700   6.163   6.550 -1.1027  1.2267  0.1435
   84MOL    H6526791   2.480   6.279   6.577  0.0458  0.8663 -1.5929
   84MOL    C6626792   2.828   5.919   6.387  0.4654  1.2559  0.1092
   84MOL    C6726793   2.961   5.844   6.382 -0.2766  0.3140 -0.1259
   84MOL    C6826794   2.981   5.743   6.283  0.1399  0.1383  0.0268
   84MOL    C6926795   3.108   5.686   6.270  0.0440 -0.5893 -0.1830
   84MOL    C7026796   3.210   5.716   6.363 -0.4084 -0.1718  0.1100
   84MOL    C7126797   3.342   5.640   6.364  0.4510  0.1506  0.3583
   84MOL    C7226798   3.190   5.812   6.465 -0.3911  0.5058 -0.3531
   84MOL    C7326799   3.066   5.880   6.469 -0.7006 -0.0667  0.3727
   84MOL    H7426800   2.829   6.028   6.377 -1.2328  1.0663 -2.3250
   84MOL    H7526801   2.776   5.888   6.297  0.8452  0.9179  0.0026
   84MOL    H7626802   2.901   5.707   6.219  0.1847  0.9541 -0.4932
   84MOL    H7726803   3.122   5.606   6.199  1.3130  0.1323 -0.7772
   84MOL    H7826804   3.323   5.533   6.370  0.2521  0.2127  0.8847
   84MOL    H7926805   3.407   5.657   6.451 -0.9179 -0.1032  1.4402
   84MOL    H8026806   3.274   5.832   6.531 -0.4875  1.4572 -0.5146
   84MOL    H8126807   3.070   5.961   6.541  2.3407  0.3050 -0.1595
   84MOL    C8226808   3.417   5.658   6.229  0.4435  0.0664 -0.2680
   84MOL    C8326809   3.527   5.557   6.205 -0.0182  0.2717 -0.3377
   84MOL    C8426810   3.507   5.442   6.129 -0.0742  0.1534  0.1241
   84MOL    C8526811   3.617   5.356   6.103 -0.7517 -0.2162 -0.4684
   84MOL    C8626812   3.743   5.371   6.173 -1.0646 -0.0214  0.5891
   84MOL    C8726813   3.853   5.275   6.158 -0.2066  0.2651  0.1747
   84MOL    C8826814   3.760   5.489   6.246  0.5054 -0.1859 -0.2995
   84MOL    C8926815   3.655   5.577   6.266 -0.1619  1.0558 -0.4029
   84MOL    H9026816   3.458   5.758   6.218 -0.1533  0.2114 -1.2017
   84MOL    H9126817   3.350   5.659   6.144  1.0615 -0.2166 -0.7659
   84MOL    H9226818   3.420   5.424   6.067  0.1271  0.3273 -0.2119
   84MOL    H9326819   3.612   5.273   6.034 -0.7300 -1.6753  1.2485
   84MOL    H9426820   3.827   5.189   6.219 -1.7254 -1.1389 -2.3297
   84MOL    H9526821   3.942   5.326   6.194  0.2160  0.3474 -0.9707
   84MOL    H9626822   3.855   5.512   6.291 -0.7636  1.4975  1.5724
   84MOL    H9726823   3.680   5.666   6.324  0.3063 -0.1503  1.2895
   84MOL    C9826824   3.885   5.248   6.008  0.0215  0.1743 -0.3155
   84MOL    C9926825   4.007   5.153   5.994 -0.6917 -0.5285 -0.2427
   84MOL   C10026826   4.069   5.158   5.870 -0.1892  0.5248 -0.4585
   84MOL   C10126827   4.172   5.068   5.834  1.1122  0.0979 -0.4253
   84MOL   C10226828   4.211   4.975   5.934  0.2876  0.0924  0.0478
   84MOL   C10326829   4.325   4.875   5.903 -0.3796  0.2317  0.2265
   84MOL   C10426830   4.157   4.978   6.061 -0.0668  0.5015 -0.4179
   84MOL   C10526831   4.050   5.059   6.086 -0.0139 -0.1019  0.4080
   84MOL   H10626832   3.896   5.341   5.952 -2.7359  1.3327  0.9735
   84MOL   H10726833   3.807   5.190   5.958 -0.0306  0.1945 -0.2589
   84MOL   H10826834   4.036   5.233   5.800 -0.7725 -0.4327 -1.2186
   84MOL   H10926835   4.214   5.064   5.735  2.8684  1.8475  0.2052
   84MOL   H11026836   4.332   4.866   5.794  0.3831  2.5378  0.0398
   84MOL   H11126837   4.430   4.900   5.923 -0.0626 -1.3355  0.5290
   84MOL   H11226838   4.199   4.920   6.142  2.1707  1.3532 -0.9261
   84MOL   H11326839   4.005   5.064   6.184  1.0156 -1.5435  0.9649
   84MOL   C11426840   4.303   4.733   5.965 -0.2839  0.4131 -0.2239
   84MOL   C11526841   4.201   4.659   5.886 -0.4116  0.0361 -0.3130
   84MOL   C11626842   4.227   4.574   5.778  0.4672 -0.6007 -0.1298
   84MOL   C11726843   4.129   4.514   5.699  0.2121  0.3925 -0.6714
   84MOL   C11826844   3.995   4.538   5.735  0.3604 -0.1185  0.5222
   84MOL   C11926845   3.879   4.496   5.648 -0.3789 -0.8401  0.1884
   84MOL   C12026846   3.965   4.612   5.850  0.2582  0.2420 -0.5735
   84MOL   C12126847   4.066   4.670   5.929 -0.0722  0.3426 -0.3543
   84MOL   H12226848   4.277   4.733   6.071 -0.8073  0.9429 -0.3455
   84MOL   H12326849   4.395   4.675   5.955  0.0738  0.9573 -0.0902
   84MOL   H12426850   4.329   4.565   5.744  0.2498  1.6637 -1.4836
   84MOL   H12526851   4.143   4.467   5.603  1.4440  1.2962 -0.9472
   84MOL   H12626852   3.841   4.590   5.609  0.3012 -0.8598 -0.5303
   84MOL   H12726853   3.932   4.448   5.566  1.3862  0.6231  0.4396
   84MOL   H12826854   3.867   4.647   5.877  0.5797 -0.1651  1.1979
   84MOL   H12926855   4.038   4.738   6.008  1.6592  1.0574 -0.3169
   84MOL   C13026856   3.792   4.394   5.719  0.5625  0.2974 -0.7189
   84MOL   C13126857   3.658   4.358   5.653 -0.3586 -0.7989 -0.1769
   84MOL   C13226858   3.544   4.437   5.659  0.1049 -0.1116 -0.4899
   84MOL   C13326859   3.427   4.407   5.587 -0.6290  0.2029  0.3481
   84MOL   C13426860   3.413   4.292   5.507  0.1445 -0.0783  0.1714
   84MOL   C13526861   3.282   4.271   5.436  0.1562 -0.0309  0.0603
   84MOL   C13626862   3.536   4.215   5.495 -0.4879  0.2954  0.0308
   84MOL   C13726863   3.656   4.253   5.561 -0.1496 -0.1848  0.6978
   84MOL   H13826864   3.769   4.427   5.820 -0.4532 -1.6876 -0.2614
   84MOL   H13926865   3.852   4.303   5.726  0.3510  0.2619  0.6464
   84MOL   H14026866   3.537   4.522   5.725 -1.3195  0.2701 -1.1167
   84MOL   H14126867   3.345   4.475   5.605 -3.0082 -0.9349 -4.9228
   84MOL   H14226868   3.218   4.359   5.432 -0.3187 -0.3655  0.1944
   84MOL   H14326869   3.305   4.236   5.335 -0.9237 -0.3437 -0.0819
   84MOL   H14426870   3.532   4.121   5.441 -0.4032  1.0210 -1.2543
   84MOL   H14526871   3.744   4.195   5.540  0.9998  2.0423 -0.8271
   84MOL   C14626872   3.197   4.159   5.508 -1.2736 -0.6957 -0.2274
   84MOL   C14726873   3.068   4.130   5.447 -0.2191  0.1030  0.1288
   84MOL   C14826874   2.955   4.205   5.491 -0.1908 -0.1654 -0.3849
   84MOL   C14926875   2.830   4.177   5.430 -0.0124 -0.5241  0.3656
   84MOL   C15026876   2.827   4.088   5.320 -0.2310  0.0426 -0.7758
   84MOL   C15126877   2.696   4.058   5.254 -0.4638  0.1429 -0.0062
   84MOL   C15226878   2.944   4.026   5.265  0.6456  0.3884 -0.3013
   84MOL   C15326879   3.067   4.044   5.334 -0.4698 -0.0168  0.3616
   84MOL   H15426880   3.184   4.196   5.610  0.2295 -0.8785  0.0408
   84MOL   H15526881   3.259   4.072   5.528 -0.2456  0.2368  0.7203
   84MOL   H15626882   2.962   4.276   5.572 -2.2588  0.8216 -1.0442
   84MOL   H15726883   2.736   4.225   5.455 -1.5592 -3.7118  0.9669
   84MOL   H15826884   2.636   4.148   5.266  1.4191  1.3603  0.6151
   84MOL   H15926885   2.716   4.042   5.148 -1.2198 -1.2099  0.0373
   84MOL   H16026886   2.935   3.966   5.176  0.5267  3.1928 -2.2595
   84MOL   H16126887   3.156   3.999   5.293  0.1162  2.0891 -0.7694
   84MOL   C16226888   2.612   3.945   5.306 -0.0671  0.0415 -0.5078
   84MOL   C16326889   2.479   3.952   5.241  0.3966  0.4753 -0.0350
   84MOL   C16426890   2.444   3.845   5.158 -0.1055 -0.3429  0.1356
   84MOL   C16526891   2.316   3.847   5.095  0.2275  0.4005  0.0290
   84MOL   C16626892   2.219   3.949   5.129  0.1128  0.2377  0.2132
   84MOL   C16726893   2.071   3.920   5.092 -0.5504 -0.7369 -0.0581
   84MOL   C16826894   2.256   4.050   5.217  0.5883  0.2516  0.5176
   84MOL   C16926895   2.389   4.058   5.265 -0.1928  0.4188 -0.1788
   84MOL   H17026896   2.601   3.963   5.413 -0.2709  0.4091 -0.5928
   84MOL   H17126897   2.644   3.841   5.298 -0.6522 -0.0808 -1.3964
   84MOL   H17226898   2.509   3.762   5.134 -0.6335 -1.1697  1.4710
   84MOL   H17326899   2.287   3.772   5.022  1.0745 -0.0894  0.1986
   84MOL   H17426900   2.053   3.814   5.110 -1.5748 -0.5851 -0.1636
   84MOL   H17526901   2.007   3.980   5.157  0.6505  1.1668 -0.5783
   84MOL   H17626902   2.189   4.129   5.244  1.2430  1.3436 -1.0054
   84MOL   H17726903   2.415   4.146   5.322 -1.9488  2.0884 -1.8825
   84MOL   C17826904   2.036   3.954   4.945  0.1875 -0.0208 -0.2621
   84MOL   C17926905   1.886   3.961   4.911  0.0636 -0.1848 -0.1824
   84MOL   C18026906   1.803   4.057   4.971 -0.0764 -0.0145  0.3899
   84MOL   C18126907   1.667   4.060   4.941  0.2439 -0.4381  0.1722
   84MOL   C18226908   1.611   3.971   4.848  0.2070 -0.3942 -0.4466
   84MOL   C18326909   1.461   3.964   4.808  0.0943  0.9275 -0.0778
   84MOL   C18426910   1.693   3.878   4.785 -0.0205 -0.0369  0.0541
   84MOL   C18526911   1.824   3.868   4.823  0.3585  0.0946 -0.5993
   84MOL   H18626912   2.098   3.892   4.880  0.7880  2.8563 -2.5137
   84MOL   H18726913   2.083   4.050   4.923  0.5700  0.5104  2.6382
   84MOL   H18826914   1.840   4.133   5.038  1.7745 -1.3922  0.9822
   84MOL   H18926915   1.621   4.144   4.990  4.1421  1.9956 -0.1505
   84MOL   H19026916   1.415   3.868   4.829  0.2510  0.4971 -1.6717
   84MOL   H19126917   1.409   4.045   4.858 -0.6373 -0.4860  1.4921
   84MOL   H19226918   1.648   3.804   4.721  0.0928 -1.4555  1.5859
   84MOL   H19326919   1.888   3.795   4.776 -0.7559  0.7535 -3.2365
   84MOL   C19426920   1.444   3.985   4.654  0.0759  0.0127  0.3469
   84MOL   C19526921   1.302   3.959   4.612  0.6355  0.1420 -0.6380
   84MOL   C19626922   1.225   4.061   4.563 -0.4896 -0.6040  0.1682
   84MOL   C19726923   1.097   4.044   4.511  0.6398 -0.3439  0.2087
   84MOL   C19826924   1.040   3.918   4.515  0.7308  0.2055  0.2074
   84MOL   C19926925   0.912   3.897   4.446  0.1981 -0.6787  0.0486
   84MOL   C20026926   1.116   3.810   4.571  0.3641 -0.6314  0.5944
   84MOL   C20126927   1.246   3.828   4.618  0.8424  0.5555 -0.8313
   84MOL   H20226928   1.503   3.918   4.592 -0.8671  0.7124 -1.3363
   84MOL   H20326929   1.483   4.086   4.640 -1.1137  0.7535  2.2010
   84MOL   H20426930   1.270   4.159   4.552  1.9746 -1.6833  0.3256
   84MOL   H20526931   1.041   4.128   4.472 -0.8578 -1.3833  0.1121
   84MOL   H20626932   0.929   3.928   4.343  0.5115 -1.8616 -0.2586
   84MOL   H20726933   0.891   3.791   4.436 -2.9267  0.0957 -2.5021
   84MOL   H20826934   1.064   3.715   4.573  1.4292 -1.2616 -0.7094
   84MOL   H20926935   1.305   3.743   4.649 -1.7624 -1.5094 -1.3668
   84MOL   C21026936   0.788   3.960   4.520 -0.2833 -0.2307 -0.0738
   84MOL   C21126937   0.664   3.950   4.446  0.3598  0.6134 -0.3544
   84MOL   C21226938   0.638   4.044   4.341  0.0816  0.0508 -0.3950
   84MOL   C21326939   0.510   4.029   4.277  0.4961  0.2699  0.3806
   84MOL   C21426940   0.431   3.919   4.305 -0.2040 -0.2121 -0.2339
   84MOL   C21526941   0.293   3.911   4.245 -0.4075 -0.2279  0.8388
   84MOL   C21626942   0.456   3.831   4.412 -0.0844  0.1905 -0.5364
   84MOL   C21726943   0.576   3.843   4.478  0.8120  0.0687  0.3427
   84MOL   H21826944   0.798   4.065   4.549  0.5663  0.0630 -1.3957
   84MOL   H21926945   0.783   3.910   4.617  2.5571 -0.8511 -0.1897
   84MOL   H22026946   0.705   4.125   4.314 -2.2357  2.8747  1.9203
   84MOL   H22126947   0.480   4.094   4.196 -1.2989 -0.5405  0.3641
   84MOL   H22226948   0.290   3.928   4.137 -0.0742 -1.0431  0.6991
   84MOL   H22326949   0.248   3.814   4.266 -1.5775  0.3378  0.9943
   84MOL   H22426950   0.373   3.767   4.439  1.6778 -1.7796  0.3424
   84MOL   H22526951   0.597   3.779   4.562  0.3333  1.4835  1.5714
   84MOL   C22626952   0.202   4.021   4.300 -0.0500  0.5799 -0.0004
   84MOL   C22726953   0.059   4.009   4.252  0.0903 -0.5813  0.2345
   84MOL   C22826954  -0.023   3.905   4.301 -0.0201 -0.0619  0.0792
   84MOL   C22926955  -0.158   3.897   4.262  0.3080  0.1105  0.3158
   84MOL   C23026956  -0.211   3.994   4.178  0.1731 -0.2207 -0.2354
   84MOL   C23126957  -0.364   3.991   4.154  0.3936  0.3424  0.8740
   84MOL   C23226958  -0.132   4.093   4.125  0.4016 -0.8970 -0.5139
   84MOL   C23326959   0.006   4.097   4.153  0.4986  0.1259 -0.1161
   84MOL   H23426960   0.236   4.114   4.255 -2.3293  0.9392 -1.0786
   84MOL   H23526961   0.205   4.018   4.409  3.3880  0.5072 -0.0659
   84MOL   H23626962   0.011   3.836   4.377 -1.2815 -0.3144  0.4389
   84MOL   H23726963  -0.217   3.821   4.310  0.1969  1.5251  2.5174
   84MOL   H23826964  -0.374   4.027   4.052 -0.2374  2.3057  1.6122
   84MOL   H23926965  -0.389   3.885   4.146  1.5405  0.2160 -1.3365
   84MOL   H24026966  -0.183   4.171   4.070 -0.9511  0.6914  2.8575
   84MOL   H24126967   0.069   4.164   4.098  0.1367  1.5875  1.2157
   84MOL   C24226968  -0.453   4.058   4.249  0.6340 -0.0995  0.1933
   84MOL   C24326969  -0.599   4.027   4.210 -0.7001  0.2984  0.0456
   84MOL   C24426970  -0.684   4.125   4.157  0.3530 -0.0746  0.1762
   84MOL   C24526971  -0.808   4.094   4.109  1.0647 -0.1289 -0.3695
   84MOL   C24626972  -0.863   3.964   4.130 -0.3520 -0.0947  0.0849
   84MOL   C24726973  -1.006   3.930   4.073 -1.3662 -0.0303  0.2771
   84MOL   C24826974  -0.781   3.861   4.184 -0.3122 -0.0724 -0.7049
   84MOL   C24926975  -0.653   3.893   4.213 -0.1806 -0.1734  0.4899
   84MOL   H25026976  -0.456   4.022   4.352 -3.7110  0.6299  0.4186
   84MOL   H25126977  -0.448   4.167   4.248 -0.4278 -0.0379 -0.4977
   84MOL   H25226978  -0.659   4.230   4.160  1.8450 -0.3688 -1.3313
   84MOL   H25326979  -0.868   4.170   4.061 -1.2663 -1.2085  0.7283
   84MOL   H25426980  -1.048   4.013   4.017  0.1334  1.0528  0.7260
   84MOL   H25526981  -0.999   3.844   4.006  0.3620 -0.6866  1.2669
   84MOL   H25626982  -0.811   3.757   4.189  0.4718 -0.2001  3.0688
   84MOL   H25726983  -0.590   3.811   4.244 -0.8826 -0.4062  1.3336
   84MOL   C25826984  -1.097   3.886   4.191  0.1663  0.3837 -0.4909
   84MOL   C25926985  -1.247   3.875   4.147 -1.0944 -0.5846  0.1396
   84MOL   C26026986  -1.306   3.763   4.083  0.5116 -0.0579 -0.5688
   84MOL   C26126987  -1.436   3.773   4.035  0.4479  0.1498 -0.2406
   84MOL   C26226988  -1.514   3.885   4.065  0.5938 -0.1410 -0.3605
   84MOL   C26326989  -1.659   3.886   4.014  0.7627  0.2855 -0.1943
   84MOL   C26426990  -1.456   3.992   4.131  0.7895  0.2072 -0.8251
   84MOL   C26526991  -1.320   3.986   4.173 -0.0893 -0.8429 -0.4504
   84MOL   H26626992  -1.094   3.952   4.278 -0.1036  0.8343 -0.8256
   84MOL   H26726993  -1.060   3.789   4.226 -2.3419 -0.4643 -0.0535
   84MOL   H26826994  -1.249   3.673   4.067  1.8785  0.7347 -0.3168
   84MOL   H26926995  -1.483   3.686   3.992 -0.4884 -0.1720  1.3944
   84MOL   H27026996  -1.649   3.943   3.921  0.2301 -0.1798 -0.5408
   84MOL   H27126997  -1.681   3.787   3.973  0.4960 -0.7922  2.5021
   84MOL   H27226998  -1.512   4.083   4.146 -0.5669 -0.8713  0.7646
   84MOL   H27326999  -1.272   4.073   4.216 -0.8587 -0.6256 -0.0093
   84MOL   C27427000  -1.761   3.949   4.119 -0.9196 -0.5117  0.3574
   84MOL   C27527001  -1.898   3.964   4.056 -0.4797 -0.1695  0.4401
   84MOL   C27627002  -1.963   4.093   4.068 -0.1354  0.5501  0.5795
   84MOL   C27727003  -2.083   4.114   3.997  0.9950 -0.1121 -0.1606
   84MOL   C27827004  -2.148   4.010   3.936 -0.0023 -0.1059 -0.5902
   84MOL   C27927005  -2.286   4.041   3.871 -0.9233 -0.2455  0.2594
   84MOL   C28027006  -2.095   3.881   3.938  0.1444 -0.2666  0.0607
   84MOL   C28127007  -1.967   3.856   3.997 -0.6957 -0.2877  0.0589
   84MOL   H28227008  -1.755   3.900   4.216 -1.3146  1.2808  1.3299
   84MOL   H28327009  -1.747   4.053   4.148 -0.8586 -0.8632  1.5916
   84MOL   H28427010  -1.909   4.177   4.107  0.9027 -0.9384  2.3928
   84MOL   H28527011  -2.129   4.211   4.004 -0.6391 -0.7701 -1.3495
   84MOL   H28627012  -2.272   4.136   3.819  3.1730 -0.9977 -0.1546
   84MOL   H28727013  -2.300   3.960   3.798 -0.5826 -0.4331  0.4002
   84MOL   H28827014  -2.158   3.811   3.884 -0.3930  0.7246 -0.6270
   84MOL   H28927015  -1.930   3.754   4.001  0.9101  0.3374  1.6106
   84MOL   C29027016  -2.383   4.044   3.985  0.7067 -0.4161 -0.6750
   84MOL   C29127017  -2.523   4.088   3.955  0.0924  0.4602  0.6355
   84MOL   C29227018  -2.624   4.081   4.056  0.2725  0.3642  0.2120
   84MOL   C29327019  -2.758   4.110   4.027  0.7959 -0.2241 -0.2533
   84MOL   C29427020  -2.797   4.148   3.896 -0.0958  0.0159 -0.4657
   84MOL   C29527021  -2.939   4.185   3.865 -0.2286  0.2913  0.7047
   84MOL   C29627022  -2.697   4.165   3.794 -0.7845  0.0827  0.1089
   84MOL   C29727023  -2.566   4.130   3.823 -0.2174 -0.4531 -0.3956
   84MOL   H29827024  -2.350   4.113   4.063  1.0364 -1.2601 -0.0545
   84MOL   H29927025  -2.385   3.942   4.025  0.2523 -0.0729  0.2043
   84MOL   H30027026  -2.595   4.053   4.156  1.5857 -1.5781 -0.6915
   84MOL   H30127027  -2.823   4.118   4.113  2.6926 -1.7461  1.3766
   84MOL   H30227028  -2.979   4.256   3.937 -1.6022  0.8319 -0.5573
   84MOL   H30327029  -2.943   4.238   3.770  2.3871 -1.1442 -0.2713
   84MOL   H30427030  -2.724   4.184   3.691  0.3163 -0.3545 -0.2573
   84MOL   H30527031  -2.498   4.134   3.740 -0.1930  1.6878 -0.3242
   84MOL   C30627032  -3.029   4.061   3.855  0.8520  0.3505  0.1802
   84MOL   C30727033  -3.177   4.091   3.848 -0.4234  0.7616 -0.2619
   84MOL   C30827034  -3.220   4.203   3.780  0.3961 -0.5217  0.2355
   84MOL   C30927035  -3.355   4.246   3.787  0.6409  0.0398 -0.1501
   84MOL   C31027036  -3.454   4.172   3.858 -0.8102  0.4136  0.2066
   84MOL   C31127037  -3.603   4.211   3.854 -0.0644 -0.3601  0.1947
   84MOL   C31227038  -3.406   4.055   3.929  0.3610 -0.3935 -0.3866
   84MOL   C31327039  -3.272   4.024   3.929 -0.2744  0.2294  0.6806
   84MOL   H31427040  -3.011   3.995   3.940 -3.9513  0.3898  1.3565
   84MOL   H31527041  -2.996   4.006   3.767 -0.1174  1.4347 -0.8768
   84MOL   H31627042  -3.149   4.265   3.727  0.0763 -0.9777 -0.7297
   84MOL   H31727043  -3.378   4.330   3.723 -0.7994  1.6161  2.3566
   84MOL   H31827044  -3.670   4.145   3.909  0.6880  0.7052  2.4903
   84MOL   H31927045  -3.616   4.312   3.892 -0.4959  0.8519 -3.0723
   84MOL   H32027046  -3.483   4.000   3.982 -2.2655  4.5776  1.2709
   84MOL   H32127047  -3.246   3.936   3.986 -0.2712  0.0482  0.4023
   84MOL   H32227048  -3.643   4.218   3.753 -0.6561  2.3146  0.5676
   85MOL     C127049   7.494   0.069   2.714  0.1149  0.5980 -0.2782
   85MOL     C227050   7.372   0.149   2.688 -0.1182 -0.5269  0.2935
   85MOL     C327051   7.268   0.112   2.599  0.2015  0.2725 -0.6531
   85MOL     C427052   7.163   0.198   2.566  0.3691 -0.0977  0.6700
   85MOL     C527053   7.163   0.322   2.633  0.2255 -0.4211 -0.1674
   85MOL     C627054   7.050   0.421   2.609 -0.1091  0.0038  0.4507
   85MOL     C727055   7.263   0.364   2.721  0.6553  0.5333  0.4243
   85MOL     C827056   7.371   0.277   2.744 -0.0048  0.0196 -1.1039
   85MOL     H927057   7.471  -0.026   2.666 -3.2040  1.2220 -0.0305
   85MOL    H1027058   7.583   0.118   2.675 -0.6302  1.7918 -0.5037
   85MOL    H1127059   7.265   0.012   2.559 -1.8133 -0.4719  1.2373
   85MOL    H1227060   7.075   0.166   2.513  0.5536 -0.1419  0.3922
   85MOL    H1327061   7.056   0.501   2.682 -2.0855  0.3920  0.2160
   85MOL    H1427062   7.069   0.467   2.512  1.7194  1.6932  1.5701
   85MOL    H1527063   7.259   0.457   2.777 -0.3798  0.0473  1.1815
   85MOL    H1627064   7.439   0.302   2.824 -2.9041  1.8112  0.9007
   85MOL    H1727065   7.519   0.055   2.819 -0.2192 -0.2572 -0.3077
   85MOL    C1827066   6.916   0.358   2.638  0.2224 -0.0690  0.3194
   85MOL    C1927067   6.794   0.443   2.625  0.3291  0.3947  0.0969
   85MOL    C2027068   6.699   0.432   2.516 -0.3196  0.3293 -0.9208
   85MOL    C2127069   6.588   0.518   2.514  0.3967 -0.3311 -0.4243
   85MOL    C2227070   6.564   0.608   2.619  0.2239  1.2960 -0.2950
   85MOL    C2327071   6.434   0.691   2.606 -0.5157  0.3449 -0.6787
   85MOL    C2427072   6.643   0.604   2.736  0.4887  0.2387  0.2904
   85MOL    C2527073   6.763   0.532   2.734 -0.0184 -0.3291 -0.3939
   85MOL    H2627074   6.886   0.275   2.574  0.1685 -0.2576  0.5910
   85MOL    H2727075   6.925   0.325   2.741  2.3310 -1.1050 -0.1659
   85MOL    H2827076   6.731   0.361   2.441  0.9387 -0.2920  0.1641
   85MOL    H2927077   6.515   0.508   2.435 -1.5138 -1.8567  1.4699
   85MOL    H3027078   6.409   0.705   2.500 -1.5238 -2.2856 -0.8172
   85MOL    H3127079   6.445   0.790   2.651  0.0659 -0.0386  0.0338
   85MOL    H3227080   6.616   0.671   2.816  0.6632 -0.2254  0.7369
   85MOL    H3327081   6.823   0.523   2.823  0.0802  2.0511 -0.1928
   85MOL    C3427082   6.316   0.613   2.668 -0.4640 -0.5902  0.4403
   85MOL    C3527083   6.180   0.679   2.658  0.7957 -0.3610 -0.0280
   85MOL    C3627084   6.120   0.735   2.771  0.2371 -0.6098 -0.3505
   85MOL    C3727085   5.992   0.793   2.760 -0.6524 -0.1661  0.3778
   85MOL    C3827086   5.925   0.803   2.633 -0.2486  0.7191  0.3012
   85MOL    C3927087   5.797   0.878   2.626  0.5073 -0.5226 -0.2174
   85MOL    C4027088   5.988   0.743   2.523  0.0039 -0.1737 -0.2080
   85MOL    C4127089   6.107   0.678   2.538 -1.1965 -0.7549 -0.4178
   85MOL    H4227090   6.336   0.590   2.773 -1.0714  0.0840  0.7097
   85MOL    H4327091   6.311   0.515   2.621 -0.1702 -0.8607  0.9720
   85MOL    H4427092   6.183   0.742   2.859 -1.2137 -1.8416  0.8367
   85MOL    H4527093   5.944   0.835   2.847 -0.0836  0.7973  0.2337
   85MOL    H4627094   5.799   0.949   2.708  0.3001 -2.2302  1.3061
   85MOL    H4727095   5.775   0.942   2.541 -1.1606  0.9039  1.2511
   85MOL    H4827096   5.935   0.753   2.429  2.8299  1.5940 -1.6926
   85MOL    H4927097   6.146   0.632   2.449  2.2084  0.7697  0.2101
   85MOL    C5027098   5.670   0.784   2.646  0.3130 -0.2384 -0.2381
   85MOL    C5127099   5.542   0.863   2.660 -0.3117 -0.1766 -0.3560
   85MOL    C5227100   5.449   0.882   2.557 -0.5679 -0.2325  0.4275
   85MOL    C5327101   5.332   0.962   2.571 -0.2790  0.5644 -0.2768
   85MOL    C5427102   5.303   1.003   2.703 -1.0116 -1.0251  0.7363
   85MOL    C5527103   5.169   1.078   2.731  0.3548 -0.5371 -0.4908
   85MOL    C5627104   5.394   0.992   2.809 -0.2503 -0.0372  0.2752
   85MOL    C5727105   5.515   0.924   2.789  0.0703 -0.3886 -0.0121
   85MOL    H5827106   5.676   0.723   2.736 -0.0403  0.4392  0.2498
   85MOL    H5927107   5.646   0.715   2.565  0.9912 -0.3508 -0.3477
   85MOL    H6027108   5.476   0.832   2.465  0.5029  3.5450 -1.4432
   85MOL    H6127109   5.251   0.963   2.500 -0.5361  1.7255  0.0344
   85MOL    H6227110   5.172   1.153   2.810 -1.3179  0.0470 -0.9610
   85MOL    H6327111   5.155   1.146   2.647  1.5962 -0.8647 -0.9692
   85MOL    H6427112   5.375   1.047   2.901 -2.0945 -0.6643  0.2974
   85MOL    H6527113   5.590   0.919   2.866  2.1805  0.7268 -1.9282
   85MOL    C6627114   5.041   0.992   2.745  0.8379  0.5406 -0.1942
   85MOL    C6727115   4.909   1.065   2.756 -0.3687 -0.8010  0.6598
   85MOL    C6827116   4.810   1.038   2.660  1.0295 -0.3275  0.4365
   85MOL    C6927117   4.693   1.108   2.655 -0.1346 -0.1056  0.2275
   85MOL    C7027118   4.656   1.201   2.755  0.2273  0.4324  0.1102
   85MOL    C7127119   4.528   1.287   2.742  0.2856  0.4084 -0.0901
   85MOL    C7227120   4.748   1.217   2.863 -0.3055  0.3208  0.4331
   85MOL    C7327121   4.875   1.151   2.869 -0.0954 -1.0257  0.4791
   85MOL    H7427122   5.050   0.927   2.832  0.8830 -2.6225 -2.4796
   85MOL    H7527123   5.040   0.930   2.656  1.8071 -0.9596  0.8243
   85MOL    H7627124   4.841   0.974   2.578 -0.7224  1.3631 -1.5925
   85MOL    H7727125   4.618   1.097   2.578 -1.8164  1.0869  1.6273
   85MOL    H7827126   4.499   1.259   2.641 -2.4056 -1.2083  1.0958
   85MOL    H7927127   4.564   1.390   2.737 -0.4585  0.7357  1.0590
   85MOL    H8027128   4.719   1.292   2.935 -4.2522  0.2767 -0.9685
   85MOL    H8127129   4.944   1.171   2.949  0.2638  2.3194 -0.5906
   85MOL    C8227130   4.416   1.273   2.843  0.3483  0.8545 -0.0350
   85MOL    C8327131   4.292   1.343   2.814  0.4758 -0.0060 -0.4643
   85MOL    C8427132   4.249   1.445   2.898 -0.3915  0.7501  0.6582
   85MOL    C8527133   4.137   1.519   2.873 -0.0256 -0.4639 -0.7423
   85MOL    C8627134   4.051   1.480   2.770  0.6054  0.6381 -0.3078
   85MOL    C8727135   3.917   1.554   2.759  0.0183 -0.0308 -0.7882
   85MOL    C8827136   4.087   1.367   2.687  0.7406  0.4877  0.2211
   85MOL    C8927137   4.211   1.304   2.703  0.5338 -0.0281  0.4400
   85MOL    H9027138   4.466   1.296   2.938 -0.4010  1.4523  0.2149
   85MOL    H9127139   4.397   1.166   2.835 -0.7623  1.1047 -0.7602
   85MOL    H9227140   4.314   1.473   2.980  1.7057 -1.2567 -0.2740
   85MOL    H9327141   4.115   1.598   2.943 -1.0908 -1.0994 -0.3506
   85MOL    H9427142   3.871   1.539   2.662  1.2257  0.8591 -1.5263
   85MOL    H9527143   3.930   1.662   2.768 -0.5185 -0.0057 -0.3017
   85MOL    H9627144   4.015   1.337   2.612  0.9545  0.8060 -0.1141
   85MOL    H9727145   4.239   1.216   2.647  1.2913  0.1891  0.4616
   85MOL    C9827146   3.822   1.519   2.872 -0.1088  0.3463  0.3243
   85MOL    C9927147   3.699   1.599   2.856 -0.3798  0.3758  0.1290
   85MOL   C10027148   3.682   1.714   2.935  0.1304 -0.1377 -0.4793
   85MOL   C10127149   3.571   1.800   2.913 -0.2534 -0.4415 -0.3472
   85MOL   C10227150   3.469   1.763   2.819 -0.4732 -0.0539  0.4391
   85MOL   C10327151   3.341   1.843   2.798  0.3177 -0.4989  0.0367
   85MOL   C10427152   3.487   1.640   2.747  0.3455 -0.2417  0.1572
   85MOL   C10527153   3.601   1.556   2.766  0.1491  0.6675 -0.3790
   85MOL   H10627154   3.870   1.545   2.966  0.9140 -1.6189  0.3822
   85MOL   H10727155   3.799   1.412   2.875  2.2704 -0.2439 -1.0839
   85MOL   H10827156   3.752   1.736   3.014  1.7697 -2.7201 -1.1404
   85MOL   H10927157   3.554   1.888   2.973 -0.9111 -0.7949 -0.0144
   85MOL   H11027158   3.366   1.949   2.805  1.1957 -0.6208 -1.1583
   85MOL   H11127159   3.307   1.813   2.699 -1.4130 -0.0986  0.4901
   85MOL   H11227160   3.426   1.616   2.661  0.0072 -0.1074  0.3591
   85MOL   H11327161   3.616   1.468   2.705 -0.1845 -0.1353  0.6955
   85MOL   C11427162   3.234   1.812   2.905 -0.2736 -0.6056  0.0387
   85MOL   C11527163   3.107   1.886   2.881 -0.4557  0.1875  0.2812
   85MOL   C11627164   3.067   1.990   2.964 -0.5313 -0.2079 -0.0205
   85MOL   C11727165   2.939   2.048   2.950 -0.5381 -0.0892  0.3175
   85MOL   C11827166   2.850   2.000   2.857  0.3123  0.6886  0.6717
   85MOL   C11927167   2.704   2.041   2.862  0.0341 -0.2284  0.3792
   85MOL   C12027168   2.890   1.892   2.770  0.7520 -0.1856 -0.3044
   85MOL   C12127169   3.020   1.841   2.779  0.0971  0.2130  0.1887
   85MOL   H12227170   3.269   1.838   3.005  1.5287  0.7505 -0.9111
   85MOL   H12327171   3.201   1.709   2.892 -0.5344 -1.0182  3.5328
   85MOL   H12427172   3.138   2.022   3.039  2.8183 -0.7208 -2.8922
   85MOL   H12527173   2.910   2.119   3.026  1.1617  0.3590  0.5704
   85MOL   H12627174   2.699   2.128   2.927 -1.5387 -0.4561  0.5773
   85MOL   H12727175   2.674   2.075   2.763  0.2179  2.0260  1.0772
   85MOL   H12827176   2.818   1.860   2.696  0.5797  0.2663 -0.3313
   85MOL   H12927177   3.052   1.769   2.705 -1.5059  1.5812 -1.8999
   85MOL   C13027178   2.619   1.921   2.915  0.0684  0.5455  0.7342
   85MOL   C13127179   2.473   1.930   2.901 -1.4255 -0.1229 -0.2914
   85MOL   C13227180   2.393   1.815   2.931 -0.1889  0.2260  0.0168
   85MOL   C13327181   2.253   1.811   2.920 -0.4730 -0.1085  0.0061
   85MOL   C13427182   2.192   1.932   2.873 -0.1337 -0.1716  0.4193
   85MOL   C13527183   2.041   1.921   2.851  0.1722  0.4622  0.3690
   85MOL   C13627184   2.273   2.044   2.834  0.2602 -0.6872  0.4907
   85MOL   C13727185   2.410   2.048   2.852 -0.9430 -0.6735  0.0577
   85MOL   H13827186   2.651   1.915   3.019  3.1078  0.8190 -0.1196
   85MOL   H13927187   2.642   1.821   2.878  0.9778  1.2061 -0.5336
   85MOL   H14027188   2.435   1.727   2.976 -3.1065 -0.8497  0.7521
   85MOL   H14127189   2.187   1.731   2.950 -0.1666 -0.1483  0.5849
   85MOL   H14227190   2.024   1.947   2.746 -0.8405 -0.7314  0.2170
   85MOL   H14327191   2.011   1.816   2.853  2.5071 -0.2156  0.7979
   85MOL   H14427192   2.222   2.126   2.785  1.8905 -1.8000 -3.1907
   85MOL   H14527193   2.460   2.133   2.809 -1.8175 -0.2155 -0.0615
   85MOL   C14627194   1.959   2.017   2.944  0.3424  0.1676  0.2039
   85MOL   C14727195   1.806   2.018   2.913  0.0229  1.2006 -1.1723
   85MOL   C14827196   1.728   1.906   2.939  0.1024  0.3465  0.5305
   85MOL   C14927197   1.590   1.916   2.903 -0.3783  0.0935 -0.1281
   85MOL   C15027198   1.528   2.031   2.848 -0.5855  0.1010 -0.3290
   85MOL   C15127199   1.377   2.036   2.828  0.0948  0.0407  0.4041
   85MOL   C15227200   1.614   2.136   2.823 -0.3034 -0.3382 -0.7540
   85MOL   C15327201   1.751   2.132   2.856  0.3961 -0.7859 -0.8587
   85MOL   H15427202   2.003   2.115   2.928  0.5506  0.1342  0.5675
   85MOL   H15527203   1.980   1.991   3.048 -2.2010  2.3936  1.3214
   85MOL   H15627204   1.763   1.822   2.996 -2.3379 -1.1782 -0.1227
   85MOL   H15727205   1.529   1.830   2.928  1.7895 -0.7960  2.2141
   85MOL   H15827206   1.362   2.082   2.730  2.5190  3.6270  1.6126
   85MOL   H15927207   1.330   1.939   2.812  1.1135 -0.3000 -0.6100
   85MOL   H16027208   1.572   2.231   2.794  1.4231  0.2098 -1.5432
   85MOL   H16127209   1.812   2.221   2.845 -1.8740  0.9620  0.2670
   85MOL   C16227210   1.300   2.125   2.930 -0.9053 -0.1503 -0.2078
   85MOL   C16327211   1.148   2.125   2.914  0.8135  0.1089  0.2202
   85MOL   C16427212   1.071   2.012   2.937  0.3010 -0.0121  0.0913
   85MOL   C16527213   0.936   2.007   2.904  0.2753  0.1565 -0.7224
   85MOL   C16627214   0.870   2.129   2.879  0.6601  1.2337 -0.1411
   85MOL   C16727215   0.719   2.138   2.875 -0.2989  0.0224  0.9183
   85MOL   C16827216   0.943   2.249   2.862  0.1519  0.3617 -0.2655
   85MOL   C16927217   1.082   2.244   2.869  0.2238  0.2608 -0.0206
   85MOL   H17027218   1.334   2.228   2.920  0.7173 -0.5456  1.0345
   85MOL   H17127219   1.319   2.095   3.033  2.2637 -3.2115 -1.6026
   85MOL   H17227220   1.122   1.922   2.970 -0.7251 -1.1721 -1.3726
   85MOL   H17327221   0.887   1.913   2.920  0.4461  0.0708 -0.6968
   85MOL   H17427222   0.701   2.210   2.795 -0.7698  0.2595  1.2347
   85MOL   H17527223   0.678   2.039   2.852  0.4132  0.0271 -0.4361
   85MOL   H17627224   0.893   2.344   2.849  3.1456  1.8339 -1.2612
   85MOL   H17727225   1.144   2.332   2.857 -0.9992  1.1233 -0.1505
   85MOL   C17827226   0.660   2.194   3.008 -0.3990 -0.1612  0.1237
   85MOL   C17927227   0.508   2.229   3.002 -0.0462  0.5627  0.0396
   85MOL   C18027228   0.451   2.351   2.968 -0.4635  0.1051 -0.5596
   85MOL   C18127229   0.308   2.371   2.985  0.1415 -0.5969  0.1199
   85MOL   C18227230   0.230   2.260   3.016  0.9428  0.4534 -0.1234
   85MOL   C18327231   0.079   2.273   3.043 -0.0515 -0.9415  0.1061
   85MOL   C18427232   0.286   2.135   3.047  0.2345  0.3331 -0.2074
   85MOL   C18527233   0.423   2.122   3.041  0.3644 -0.4334 -0.4837
   85MOL   H18627234   0.715   2.284   3.034 -0.1001 -0.0591 -0.8168
   85MOL   H18727235   0.680   2.132   3.094  0.6993  2.2478  1.6502
   85MOL   H18827236   0.511   2.437   2.941  0.8966 -1.0421 -1.2963
   85MOL   H18927237   0.255   2.463   2.964  1.5333 -0.1619 -1.7379
   85MOL   H19027238   0.043   2.364   2.995  1.1667 -0.3642  0.2816
   85MOL   H19127239   0.029   2.188   2.996 -1.4207  0.1535 -0.4963
   85MOL   H19227240   0.219   2.051   3.062 -1.3307  0.7741 -4.0555
   85MOL   H19327241   0.465   2.028   3.076  0.8892  0.3638  1.0881
   85MOL   C19427242   0.036   2.279   3.185 -0.0087 -0.0972 -0.9400
   85MOL   C19527243  -0.115   2.321   3.205 -0.3659  0.2300 -0.0032
   85MOL   C19627244  -0.145   2.457   3.231 -0.0167 -0.1631  0.5707
   85MOL   C19727245  -0.278   2.497   3.243 -0.5737  0.0959  0.3847
   85MOL   C19827246  -0.381   2.405   3.245  0.1181 -0.1446 -0.5798
   85MOL   C19927247  -0.521   2.443   3.266 -0.6146 -0.0192  0.1066
   85MOL   C20027248  -0.351   2.268   3.224  0.1636  0.1753 -0.5557
   85MOL   C20127249  -0.221   2.227   3.207  0.5111  0.3316  0.3865
   85MOL   H20227250   0.090   2.348   3.249  0.5881 -0.0364 -1.5074
   85MOL   H20327251   0.053   2.180   3.227 -2.4944 -0.4077 -0.5369
   85MOL   H20427252  -0.062   2.526   3.238 -0.4719  0.3710  0.8059
   85MOL   H20527253  -0.303   2.602   3.250 -1.2806  0.0822 -1.5767
   85MOL   H20627254  -0.521   2.551   3.256  1.4509 -0.0112  0.1233
   85MOL   H20727255  -0.577   2.406   3.180 -1.4486  0.5302  0.3980
   85MOL   H20827256  -0.424   2.192   3.248 -1.2381  1.1077 -1.8409
   85MOL   H20927257  -0.201   2.121   3.196 -2.9443 -0.4076  0.5301
   85MOL   C21027258  -0.586   2.400   3.401 -0.7322  0.3281 -0.7511
   85MOL   C21127259  -0.721   2.459   3.439 -0.6688 -0.2808 -0.6840
   85MOL   C21227260  -0.826   2.432   3.361  0.4443 -0.0729  0.0732
   85MOL   C21327261  -0.953   2.484   3.389 -0.6119 -0.0313  0.1563
   85MOL   C21427262  -0.974   2.559   3.503 -0.3029 -0.1786 -0.3401
   85MOL   C21527263  -1.106   2.632   3.523 -0.5154 -0.3585 -0.0345
   85MOL   C21627264  -0.869   2.577   3.596  1.0504  0.4828  0.1633
   85MOL   C21727265  -0.743   2.528   3.560  0.6736 -0.0564 -0.4809
   85MOL   H21827266  -0.509   2.421   3.475  1.1975  0.5364 -2.7348
   85MOL   H21927267  -0.601   2.292   3.401  0.9901  0.0646 -0.1752
   85MOL   H22027268  -0.811   2.376   3.270  3.0273 -0.6884  0.8433
   85MOL   H22127269  -1.033   2.468   3.319 -2.5242 -0.6956  2.4341
   85MOL   H22227270  -1.090   2.700   3.607  1.6244  0.1836 -0.8309
   85MOL   H22327271  -1.111   2.699   3.437 -0.1922 -2.2489 -1.5488
   85MOL   H22427272  -0.873   2.627   3.691 -0.7039 -0.0709  0.3883
   85MOL   H22527273  -0.661   2.539   3.629 -0.0302 -1.0261  0.5495
   85MOL   C22627274  -1.228   2.536   3.531 -0.1817  0.4118  0.2868
   85MOL   C22727275  -1.351   2.615   3.523  0.2969  0.2496  0.0168
   85MOL   C22827276  -1.445   2.601   3.416 -0.2530  0.2709  0.2789
   85MOL   C22927277  -1.573   2.665   3.423 -0.8103  0.4226  0.6016
   85MOL   C23027278  -1.595   2.753   3.528 -0.3175  0.0548  0.2560
   85MOL   C23127279  -1.728   2.828   3.532  0.1806  0.0569 -0.3432
   85MOL   C23227280  -1.500   2.774   3.633  0.6195 -0.2907 -0.4505
   85MOL   C23327281  -1.381   2.697   3.632 -0.3666  0.8475  0.5318
   85MOL   H23427282  -1.229   2.483   3.626  2.8250  0.4356  0.3830
   85MOL   H23527283  -1.226   2.463   3.450 -2.9720 -0.6105  1.0629
   85MOL   H23627284  -1.431   2.543   3.326  2.4585 -0.4014  1.0693
   85MOL   H23727285  -1.641   2.642   3.342  0.8992  1.4067 -1.1565
   85MOL   H23827286  -1.737   2.919   3.592 -1.7360 -2.3417  3.2141
   85MOL   H23927287  -1.758   2.837   3.427 -3.2268  1.8525  0.6855
   85MOL   H24027288  -1.523   2.843   3.713  0.2313  0.3348 -1.1027
   85MOL   H24127289  -1.303   2.708   3.706  1.3191 -1.4715 -0.8331
   85MOL   C24227290  -1.827   2.738   3.610  0.0933  0.4096 -0.2231
   85MOL   C24327291  -1.961   2.795   3.599 -0.0272 -0.6224 -0.0182
   85MOL   C24427292  -2.036   2.790   3.476 -0.5447 -0.6182  0.3616
   85MOL   C24527293  -2.164   2.852   3.471  0.2997  0.4230 -0.3066
   85MOL   C24627294  -2.219   2.916   3.586 -0.3581 -0.1610  0.2660
   85MOL   C24727295  -2.361   2.980   3.576 -0.9015 -1.1521 -0.1823
   85MOL   C24827296  -2.143   2.918   3.708  0.1915 -0.6294 -0.7353
   85MOL   C24927297  -2.015   2.861   3.706 -0.3650 -0.3558  0.7944
   85MOL   H25027298  -1.832   2.638   3.567  1.6061 -0.7177  2.1121
   85MOL   H25127299  -1.805   2.721   3.716 -3.0029 -1.5981  0.1739
   85MOL   H25227300  -1.994   2.746   3.387 -1.5033 -1.8240  0.5015
   85MOL   H25327301  -2.226   2.848   3.382 -1.0681 -1.2612  0.6936
   85MOL   H25427302  -2.377   3.045   3.662  1.1803 -1.7938  0.7135
   85MOL   H25527303  -2.371   3.035   3.483 -1.2921 -1.4057 -0.2897
   85MOL   H25627304  -2.181   2.960   3.800  0.7011  0.2720 -0.9363
   85MOL   H25727305  -1.954   2.865   3.796  2.2323  0.2070 -0.9357
   85MOL   C25827306  -2.472   2.878   3.591 -0.2578  0.6360 -0.3587
   85MOL   C25927307  -2.608   2.941   3.577 -0.2404 -0.1868  0.6606
   85MOL   C26027308  -2.689   2.928   3.457  0.1012 -0.6170  0.1929
   85MOL   C26127309  -2.810   2.996   3.440  0.0940  0.1339 -0.3783
   85MOL   C26227310  -2.869   3.063   3.552  0.3333  0.1594  0.3834
   85MOL   C26327311  -3.012   3.127   3.546 -0.2181 -0.2287  0.7167
   85MOL   C26427312  -2.799   3.059   3.673 -0.5406 -0.2347  0.5330
   85MOL   C26527313  -2.669   3.007   3.686 -0.9245  0.2313  0.2341
   85MOL   H26627314  -2.464   2.830   3.689 -1.6064 -0.4686 -0.7693
   85MOL   H26727315  -2.475   2.793   3.523 -2.1101 -0.2061  0.7304
   85MOL   H26827316  -2.653   2.867   3.375  1.4046  0.8059 -0.3444
   85MOL   H26927317  -2.863   2.989   3.346  1.5829 -1.8312 -1.1266
   85MOL   H27027318  -3.056   3.146   3.644  1.7442 -0.1742  1.6178
   85MOL   H27127319  -3.001   3.228   3.506 -3.1709  0.3580  1.3270
   85MOL   H27227320  -2.829   3.127   3.751  0.8018  0.9868  0.0118
   85MOL   H27327321  -2.616   3.018   3.780 -0.2634  0.4888 -0.1650
   85MOL   C27427322  -3.121   3.052   3.466 -0.8027  0.7648  0.0810
   85MOL   C27527323  -3.241   3.134   3.451 -0.5270 -0.2725  0.6468
   85MOL   C27627324  -3.339   3.128   3.551 -0.0661 -1.0334  0.3238
   85MOL   C27727325  -3.465   3.201   3.538 -0.2200  0.0105 -0.1916
   85MOL   C27827326  -3.482   3.286   3.425 -0.5675 -0.0383  0.2160
   85MOL   C27927327  -3.613   3.358   3.394 -0.6022 -0.9436 -0.2522
   85MOL   C28027328  -3.376   3.291   3.332  0.0537  0.1449 -0.8033
   85MOL   C28127329  -3.256   3.217   3.341  0.2361 -0.0578 -0.3972
   85MOL   H28227330  -3.081   3.043   3.364 -1.5059 -0.3595 -0.1100
   85MOL   H28327331  -3.155   2.954   3.499 -0.5975 -0.3013 -2.6888
   85MOL   H28427332  -3.325   3.062   3.635 -0.9471 -2.4861 -0.6457
   85MOL   H28527333  -3.534   3.182   3.619  1.3476  0.6266  1.3242
   85MOL   H28627334  -3.640   3.406   3.488  2.1192 -1.9904  1.1280
   85MOL   H28727335  -3.602   3.430   3.312 -0.8827 -1.1028 -0.4314
   85MOL   H28827336  -3.376   3.366   3.254  1.2604 -1.4895 -2.4354
   85MOL   H28927337  -3.174   3.234   3.273 -0.9947 -0.3630 -1.9840
   85MOL   C29027338  -3.712   3.247   3.359  0.5958 -0.4161  0.6607
   85MOL   C29127339  -3.842   3.310   3.311 -0.3347 -0.3265  0.7261
   85MOL   C29227340  -3.932   3.365   3.405  0.4592  0.3153  0.0429
   85MOL   C29327341  -4.056   3.415   3.358  0.1276 -0.5825  0.0460
   85MOL   C29427342  -4.095   3.403   3.223 -0.2116 -0.2517  0.5505
   85MOL   C29527343  -4.232   3.444   3.174  0.3745  0.0908 -0.6918
   85MOL   C29627344  -4.000   3.355   3.132  0.3783 -0.2647  0.4480
   85MOL   C29727345  -3.878   3.303   3.180  0.0841  0.2091  0.5519
   85MOL   H29827346  -3.730   3.177   3.440  0.0318  0.7896  1.5948
   85MOL   H29927347  -3.676   3.184   3.278  0.0037  0.5760 -0.3874
   85MOL   H30027348  -3.905   3.364   3.510  1.8263 -0.0295 -0.2905
   85MOL   H30127349  -4.124   3.464   3.426  0.7663 -0.7243  0.7876
   85MOL   H30227350  -4.267   3.350   3.132 -1.0845  0.3856 -0.1680
   85MOL   H30327351  -4.300   3.474   3.254  1.1383 -0.4047  0.1511
   85MOL   H30427352  -4.009   3.349   3.024  0.9411  2.2939  0.2141
   85MOL   H30527353  -3.816   3.260   3.102 -0.4103  3.3561 -1.6665
   85MOL   C30627354  -4.231   3.558   3.075 -0.3980 -0.4289  0.5086
   85MOL   C30727355  -4.373   3.581   3.024  0.2228 -0.0996  0.5327
   85MOL   C30827356  -4.462   3.660   3.100  0.1401  0.2879 -0.5006
   85MOL   C30927357  -4.578   3.702   3.040 -0.0848 -0.3570  0.4497
   85MOL   C31027358  -4.611   3.658   2.907  0.1121 -0.6484 -0.1158
   85MOL   C31127359  -4.735   3.707   2.840 -0.1245  0.5236  0.1503
   85MOL   C31227360  -4.530   3.564   2.841 -0.7562 -0.0463  0.1874
   85MOL   C31327361  -4.405   3.532   2.897  0.3069  0.4027 -0.3268
   85MOL   H31427362  -4.153   3.538   3.002  0.6892  2.0847  0.9662
   85MOL   H31527363  -4.201   3.656   3.112 -0.5612 -0.0473 -0.3645
   85MOL   H31627364  -4.435   3.696   3.199 -0.8831  1.4507 -0.6290
   85MOL   H31727365  -4.643   3.766   3.098 -0.0599 -1.2783  1.5050
   85MOL   H31827366  -4.802   3.716   2.925 -0.0109  2.8037  0.0296
   85MOL   H31927367  -4.729   3.803   2.789 -0.0800  0.3892 -0.1030
   85MOL   H32027368  -4.556   3.532   2.741  6.5374  1.3450 -2.4713
   85MOL   H32127369  -4.336   3.474   2.837  0.8190  0.2193  0.4334
   85MOL   H32227370  -4.775   3.630   2.773 -0.9673  1.3822 -0.3436
   86MOL     C127371   0.452   0.406   0.609 -0.0685 -0.5921 -0.2714
   86MOL     C227372   0.320   0.443   0.677  0.6831  0.4527  0.4755
   86MOL     C327373   0.311   0.575   0.738 -0.4789 -0.4585 -0.9590
   86MOL     C427374   0.190   0.605   0.803 -0.0924  0.3708 -0.0826
   86MOL     C527375   0.084   0.516   0.806 -0.0391 -0.0657  0.2409
   86MOL     C627376  -0.050   0.553   0.869 -0.0305  0.0767 -0.0572
   86MOL     C727377   0.095   0.390   0.750 -0.8783 -0.5831  0.4838
   86MOL     C827378   0.212   0.349   0.683 -0.4775 -0.0828  0.0348
   86MOL     H927379   0.532   0.461   0.659 -1.5706  1.2016  0.2237
   86MOL    H1027380   0.473   0.301   0.631  0.0890 -0.8666 -1.6695
   86MOL    H1127381   0.390   0.648   0.739  0.3812 -1.3924  0.1331
   86MOL    H1227382   0.172   0.698   0.856 -1.3909 -0.7632  1.5181
   86MOL    H1327383  -0.079   0.464   0.927  0.4150 -0.0539 -0.0341
   86MOL    H1427384  -0.042   0.643   0.930 -0.7865  2.9742 -4.0347
   86MOL    H1527385   0.016   0.317   0.746 -2.0502  0.4661  3.4676
   86MOL    H1627386   0.209   0.250   0.640  0.9141  0.5172 -1.4992
   86MOL    H1727387   0.439   0.428   0.503  0.1554  0.0822 -0.1581
   86MOL    C1827388  -0.157   0.585   0.762 -0.0545  0.1071 -0.0269
   86MOL    C1927389  -0.289   0.626   0.823  0.3288 -0.1987  0.5202
   86MOL    C2027390  -0.385   0.530   0.854  0.2079 -0.2069 -0.1256
   86MOL    C2127391  -0.507   0.571   0.914 -0.0988  0.2844 -0.3346
   86MOL    C2227392  -0.526   0.705   0.953  0.2037 -0.5661  0.0785
   86MOL    C2327393  -0.658   0.754   1.012  0.2457  0.3319 -0.4237
   86MOL    C2427394  -0.420   0.801   0.936  0.2879 -0.6656  0.5321
   86MOL    C2527395  -0.304   0.766   0.866 -0.0125  0.3862 -0.3722
   86MOL    H2627396  -0.120   0.666   0.699 -0.4923  0.1348 -0.2527
   86MOL    H2727397  -0.182   0.497   0.703  1.8664 -0.2992 -0.2866
   86MOL    H2827398  -0.377   0.428   0.820  1.5490 -0.1848  0.0942
   86MOL    H2927399  -0.585   0.498   0.933 -0.9707  1.5412  1.0368
   86MOL    H3027400  -0.717   0.778   0.923 -0.7285 -1.7159 -0.3597
   86MOL    H3127401  -0.632   0.847   1.062 -0.7000 -0.1107  0.9181
   86MOL    H3227402  -0.435   0.901   0.974  0.4835 -1.5423  2.9829
   86MOL    H3327403  -0.220   0.832   0.855 -0.5283  0.6799 -2.7433
   86MOL    C3427404  -0.749   0.662   1.098  0.0739  0.7244 -0.8760
   86MOL    C3527405  -0.894   0.716   1.119  0.0376  0.4515  0.2155
   86MOL    C3627406  -0.926   0.790   1.234 -0.2514  0.1447  0.0937
   86MOL    C3727407  -1.054   0.843   1.247  0.4097  0.6520 -0.0087
   86MOL    C3827408  -1.158   0.796   1.160  0.4370 -0.1629  1.5867
   86MOL    C3927409  -1.298   0.855   1.153  0.5081 -0.3103 -0.5567
   86MOL    C4027410  -1.122   0.715   1.044 -0.0839 -0.7846 -0.2457
   86MOL    C4127411  -0.991   0.670   1.025  1.0632  0.1546  0.2873
   86MOL    H4227412  -0.724   0.640   1.202  1.4047  1.5080 -1.0155
   86MOL    H4327413  -0.769   0.563   1.057 -0.7062 -0.2791  1.8131
   86MOL    H4427414  -0.861   0.808   1.319 -0.6615 -2.0061  0.8885
   86MOL    H4527415  -1.086   0.886   1.341 -0.7432 -0.5622  0.1756
   86MOL    H4627416  -1.355   0.793   1.222 -1.6345 -0.7269 -2.6388
   86MOL    H4727417  -1.289   0.952   1.203 -0.3792  0.6767 -2.2650
   86MOL    H4827418  -1.192   0.685   0.967  1.6791  0.1620 -2.2666
   86MOL    H4927419  -0.975   0.605   0.941 -2.0512 -0.7754  0.3242
   86MOL    C5027420  -1.368   0.875   1.020 -0.2292  0.0829 -0.4835
   86MOL    C5127421  -1.501   0.944   1.034  0.3102  1.0925  0.0672
   86MOL    C5227422  -1.504   1.083   1.058 -0.0170 -0.6772 -0.1291
   86MOL    C5327423  -1.626   1.148   1.099  0.0451  0.2256  0.1522
   86MOL    C5427424  -1.753   1.082   1.077  0.1871 -0.0032 -0.2956
   86MOL    C5527425  -1.882   1.152   1.106  0.7888  0.1208 -0.1567
   86MOL    C5627426  -1.751   0.945   1.039  0.6016  0.1966  0.3137
   86MOL    C5727427  -1.628   0.875   1.022 -0.2507  0.6341 -0.3602
   86MOL    H5827428  -1.402   0.777   0.986 -0.7725 -0.7626  2.3050
   86MOL    H5927429  -1.305   0.929   0.950  2.4610 -2.3165 -0.0118
   86MOL    H6027430  -1.413   1.138   1.078 -0.3478  0.2970 -1.2329
   86MOL    H6127431  -1.613   1.252   1.127  1.4396 -0.0348  0.4966
   86MOL    H6227432  -1.943   1.092   1.173  1.7610 -0.9378 -0.1928
   86MOL    H6327433  -1.862   1.245   1.159  1.0635 -0.0923  0.1137
   86MOL    H6427434  -1.845   0.892   1.038  2.6583 -3.5796 -1.9642
   86MOL    H6527435  -1.629   0.772   0.988  0.8696  0.7228 -0.6987
   86MOL    C6627436  -1.955   1.192   0.974 -0.0518  0.4439 -0.4581
   86MOL    C6727437  -2.085   1.256   1.003 -0.6473  0.8488  0.0313
   86MOL    C6827438  -2.158   1.223   1.118 -0.3836  0.4481  0.2493
   86MOL    C6927439  -2.280   1.293   1.151 -0.1924 -0.1067 -0.5492
   86MOL    C7027440  -2.315   1.410   1.081 -0.5631  0.6176  0.3479
   86MOL    C7127441  -2.455   1.467   1.114  0.2178 -0.7490 -0.3945
   86MOL    C7227442  -2.233   1.448   0.974 -0.3995 -0.2421  0.3314
   86MOL    C7327443  -2.123   1.372   0.937 -1.2033 -0.1834 -0.5106
   86MOL    H7427444  -1.982   1.099   0.924  1.5735 -0.3545  0.1341
   86MOL    H7527445  -1.904   1.261   0.907 -1.9530 -0.0716 -2.5080
   86MOL    H7627446  -2.136   1.136   1.179  2.6640  1.4020  0.6273
   86MOL    H7727447  -2.343   1.263   1.234  1.4898  2.4872  1.7738
   86MOL    H7827448  -2.517   1.399   1.174 -2.8654 -0.6603 -3.2793
   86MOL    H7927449  -2.509   1.478   1.020  1.3362  1.8696 -0.7500
   86MOL    H8027450  -2.250   1.534   0.910  0.3168  0.2563  0.8106
   86MOL    H8127451  -2.057   1.413   0.862 -3.3895 -0.1904 -2.4763
   86MOL    C8227452  -2.448   1.604   1.186 -0.4757 -0.7743  0.0573
   86MOL    C8327453  -2.577   1.645   1.250  0.0116  1.2047 -0.4171
   86MOL    C8427454  -2.656   1.740   1.184 -0.0818  0.0330 -0.2119
   86MOL    C8527455  -2.766   1.805   1.247  0.0213 -0.4416  0.7026
   86MOL    C8627456  -2.818   1.756   1.369 -0.3669 -0.8899  0.5401
   86MOL    C8727457  -2.937   1.824   1.432  0.1091  0.8519  0.4411
   86MOL    C8827458  -2.745   1.653   1.435  0.3261 -0.5701 -0.0473
   86MOL    C8927459  -2.625   1.602   1.378  0.4314  1.2109  0.0279
   86MOL    H9027460  -2.429   1.688   1.119 -1.6988  0.8150  1.6765
   86MOL    H9127461  -2.370   1.597   1.261 -1.0603 -0.8007  0.6688
   86MOL    H9227462  -2.631   1.796   1.096  1.5391 -1.3464 -0.6481
   86MOL    H9327463  -2.824   1.879   1.194 -2.5044 -1.8931  1.3247
   86MOL    H9427464  -2.932   1.931   1.412  0.5235  0.6954 -0.2855
   86MOL    H9527465  -2.937   1.815   1.541 -0.6145  0.7116  0.4382
   86MOL    H9627466  -2.786   1.614   1.527  1.8272  3.0194  2.2889
   86MOL    H9727467  -2.569   1.532   1.438  0.4470  1.5152  0.3693
   86MOL    C9827468  -3.070   1.785   1.368  0.1665  0.3290  0.7895
   86MOL    C9927469  -3.180   1.865   1.421 -0.4853 -1.3257  0.1135
   86MOL   C10027470  -3.234   1.978   1.350  0.1534 -0.1504  0.2052
   86MOL   C10127471  -3.348   2.052   1.391 -0.6322 -0.4076  0.1460
   86MOL   C10227472  -3.402   2.031   1.516 -0.8204 -1.0315 -0.3663
   86MOL   C10327473  -3.520   2.115   1.575  0.1828 -0.1649  1.0601
   86MOL   C10427474  -3.346   1.929   1.598 -0.4288 -0.3404 -0.0783
   86MOL   C10527475  -3.236   1.852   1.546  0.2725  0.4815 -0.6245
   86MOL   H10627476  -3.103   1.686   1.398 -2.2006  0.3920 -1.3929
   86MOL   H10727477  -3.058   1.794   1.259 -1.5298 -1.9356  0.3951
   86MOL   H10827478  -3.199   2.006   1.252 -0.3541 -0.4767 -0.0720
   86MOL   H10927479  -3.381   2.132   1.325  0.9177  0.2583  0.1600
   86MOL   H11027480  -3.534   2.103   1.683  3.7695  0.2266  1.6468
   86MOL   H11127481  -3.506   2.223   1.573  1.4979 -0.2689  2.7713
   86MOL   H11227482  -3.379   1.912   1.700  0.9614  0.9133  0.6034
   86MOL   H11327483  -3.199   1.771   1.606  0.5116  0.3026 -1.0153
   86MOL   C11427484  -3.645   2.086   1.494 -0.2318  0.3183  0.0278
   86MOL   C11527485  -3.766   2.158   1.547 -0.2394  0.1781  0.9267
   86MOL   C11627486  -3.849   2.103   1.655 -0.4455 -0.0690  0.0680
   86MOL   C11727487  -3.950   2.170   1.710 -0.5467  0.2650 -0.2523
   86MOL   C11827488  -4.000   2.283   1.646  0.3063  0.1998  0.3805
   86MOL   C11927489  -4.121   2.356   1.699  0.5138 -0.8208  0.5660
   86MOL   C12027490  -3.940   2.327   1.522 -0.4349 -0.2640  0.3898
   86MOL   C12127491  -3.819   2.266   1.474  0.1160 -0.1452 -0.4963
   86MOL   H12227492  -3.665   1.979   1.499 -2.3900  0.6581 -0.5957
   86MOL   H12327493  -3.642   2.107   1.388 -1.6402 -0.0768 -0.1054
   86MOL   H12427494  -3.817   2.010   1.701 -1.5845  0.5190  2.0615
   86MOL   H12527495  -3.997   2.141   1.803 -1.7947  0.7907 -0.6997
   86MOL   H12627496  -4.127   2.359   1.808  2.9082  2.0159  0.6848
   86MOL   H12727497  -4.116   2.458   1.662 -1.1110 -0.8861  0.1064
   86MOL   H12827498  -3.992   2.406   1.470 -1.1301 -0.5318  0.6729
   86MOL   H12927499  -3.772   2.301   1.383 -1.1132 -0.6541 -1.3425
   86MOL   C13027500  -4.246   2.295   1.626 -0.1130  0.0713 -0.2257
   86MOL   C13127501  -4.362   2.372   1.665 -0.8254 -0.7144 -0.3546
   86MOL   C13227502  -4.387   2.496   1.596 -0.4683  0.5260  0.1702
   86MOL   C13327503  -4.509   2.560   1.619  0.4183 -0.2904  0.2289
   86MOL   C13427504  -4.593   2.517   1.723 -0.4104  0.4289  0.0410
   86MOL   C13527505  -4.721   2.590   1.744 -0.0302 -0.0360  0.0239
   86MOL   C13627506  -4.560   2.403   1.799  0.0033 -1.3798 -0.3713
   86MOL   C13727507  -4.451   2.324   1.770 -0.2963  0.0208  0.6104
   86MOL   H13827508  -4.264   2.196   1.666 -2.0067 -0.2370 -1.7421
   86MOL   H13927509  -4.232   2.290   1.518 -1.5628 -1.7295 -0.3498
   86MOL   H14027510  -4.311   2.541   1.533 -1.4973 -0.7141 -1.9960
   86MOL   H14127511  -4.528   2.654   1.569  0.2451 -0.4229  0.0436
   86MOL   H14227512  -4.733   2.624   1.847 -1.4236  1.2545 -0.5364
   86MOL   H14327513  -4.727   2.690   1.702 -0.7638 -0.6659 -1.3863
   86MOL   H14427514  -4.634   2.361   1.865 -0.2406  2.7027  2.0826
   86MOL   H14527515  -4.439   2.234   1.828 -0.0090 -0.0903  0.3830
   86MOL   C14627516  -4.844   2.514   1.692 -0.5576  0.9923 -1.1706
   86MOL   C14727517  -4.970   2.592   1.735 -0.2240 -0.2283 -0.5365
   86MOL   C14827518  -4.996   2.710   1.664 -0.3611 -0.4286 -0.2430
   86MOL   C14927519  -5.107   2.785   1.702  0.7140  0.2528  0.0685
   86MOL   C15027520  -5.195   2.748   1.810  0.2384  0.7327 -0.1254
   86MOL   C15127521  -5.320   2.828   1.841 -0.1484  0.2342 -0.0964
   86MOL   C15227522  -5.164   2.625   1.880  0.0024  0.1553  0.3883
   86MOL   C15327523  -5.053   2.545   1.844  0.4074  0.1484 -0.2645
   86MOL   H15427524  -4.842   2.424   1.753 -1.6631  2.3949  1.0161
   86MOL   H15527525  -4.839   2.501   1.584 -2.2317 -1.2265 -1.0140
   86MOL   H15627526  -4.927   2.734   1.585 -0.5587 -1.2956 -0.6926
   86MOL   H15727527  -5.120   2.877   1.647 -2.3840 -1.2693 -1.9278
   86MOL   H15827528  -5.319   2.848   1.948  0.9895  0.1062 -0.0753
   86MOL   H15927529  -5.310   2.923   1.790 -2.4354  0.6034  0.0926
   86MOL   H16027530  -5.232   2.583   1.952 -1.3763 -2.2942 -2.2483
   86MOL   H16127531  -5.026   2.452   1.892  1.7226 -0.3107 -1.8332
   86MOL   C16227532  -5.451   2.760   1.789 -0.4753  0.1476 -0.0808
   86MOL   C16327533  -5.567   2.852   1.799 -0.6172 -0.3602  0.2639
   86MOL   C16427534  -5.667   2.842   1.901 -0.4961  0.2858  0.3145
   86MOL   C16527535  -5.771   2.940   1.911  0.0509  0.0440 -0.0016
   86MOL   C16627536  -5.784   3.037   1.809 -0.1519  0.6311 -0.1643
   86MOL   C16727537  -5.904   3.126   1.804  0.4245  0.4682  0.3263
   86MOL   C16827538  -5.684   3.049   1.703 -0.0906  0.5021  0.0191
   86MOL   C16927539  -5.575   2.957   1.701  0.5529  0.6620 -0.0516
   86MOL   H17027540  -5.468   2.665   1.842 -0.9752 -0.8675 -2.0230
   86MOL   H17127541  -5.445   2.722   1.687  1.0669  0.5539 -0.1630
   86MOL   H17227542  -5.663   2.761   1.973 -0.4779  2.0564  2.3638
   86MOL   H17327543  -5.847   2.942   1.987 -0.0182 -2.2500  0.0156
   86MOL   H17427544  -5.918   3.180   1.897  0.7974  1.9161 -0.4438
   86MOL   H17527545  -5.891   3.209   1.735  3.5394 -0.0248  0.2659
   86MOL   H17627546  -5.698   3.131   1.634  1.3869 -0.4069 -1.4030
   86MOL   H17727547  -5.498   2.969   1.626  0.2704  1.1051 -0.2746
   86MOL   C17827548  -6.027   3.043   1.764 -0.4485 -0.9081 -0.3394
   86MOL   C17927549  -6.147   3.132   1.759  0.2358 -0.0203 -0.0653
   86MOL   C18027550  -6.252   3.109   1.842  0.2474 -0.1758 -0.5487
   86MOL   C18127551  -6.357   3.203   1.852  0.0772  0.1860 -0.3930
   86MOL   C18227552  -6.366   3.310   1.760 -0.0145  0.1937 -0.1393
   86MOL   C18327553  -6.483   3.410   1.762 -0.1313  0.1393 -0.2803
   86MOL   C18427554  -6.273   3.320   1.663 -0.6739 -0.8358  0.7927
   86MOL   C18527555  -6.160   3.242   1.673  0.1146  0.4611 -0.2849
   86MOL   H18627556  -6.032   2.958   1.832  1.5644  0.7125  1.9086
   86MOL   H18727557  -6.014   3.012   1.660  0.9963  0.2582 -0.5146
   86MOL   H18827558  -6.263   3.019   1.901 -1.4891 -0.4215 -1.2250
   86MOL   H18927559  -6.435   3.183   1.924  1.9042 -0.6387  1.3771
   86MOL   H19027560  -6.505   3.430   1.867 -0.8265  0.2584 -0.4467
   86MOL   H19127561  -6.447   3.500   1.713  1.8695  0.4829  1.7579
   86MOL   H19227562  -6.284   3.389   1.581 -0.3160  1.0038  2.2829
   86MOL   H19327563  -6.073   3.276   1.617  1.8889 -2.1120  0.8085
   86MOL   C19427564  -6.603   3.369   1.666 -0.0251 -0.7711  0.3364
   86MOL   C19527565  -6.690   3.482   1.618 -0.1124  1.2657 -0.2115
   86MOL   C19627566  -6.725   3.579   1.715 -0.8015  0.2459  0.4233
   86MOL   C19727567  -6.808   3.685   1.669 -0.5909 -0.2475  0.1542
   86MOL   C19827568  -6.835   3.701   1.531 -0.5516  0.4986 -0.1528
   86MOL   C19927569  -6.926   3.813   1.479 -0.3361  0.2362  0.5118
   86MOL   C20027570  -6.790   3.609   1.430  0.1524  0.1131 -0.5641
   86MOL   C20127571  -6.721   3.497   1.474 -0.6478  0.4228  0.8357
   86MOL   H20227572  -6.668   3.293   1.708 -0.4918 -0.4911  0.1194
   86MOL   H20327573  -6.561   3.316   1.580 -0.6673 -2.4636  1.0533
   86MOL   H20427574  -6.686   3.565   1.814 -0.0352 -0.4292  0.0314
   86MOL   H20527575  -6.854   3.755   1.737 -0.6011 -0.1257  0.0222
   86MOL   H20627576  -6.887   3.913   1.501 -2.8051  1.2744  0.2947
   86MOL   H20727577  -6.921   3.824   1.371  1.2382 -1.5325  0.3716
   86MOL   H20827578  -6.818   3.637   1.329  0.0074  2.3666  0.0733
   86MOL   H20927579  -6.684   3.414   1.414 -2.2275 -0.6924  1.3582
   86MOL   C21027580  -7.072   3.810   1.533 -0.8460 -0.1243  0.2931
   86MOL   C21127581  -7.152   3.926   1.487  0.4530  1.1654  0.0661
   86MOL   C21227582  -7.193   4.023   1.581  0.3503  0.2234 -0.0936
   86MOL   C21327583  -7.251   4.147   1.535 -0.1764 -0.7893 -0.4711
   86MOL   C21427584  -7.270   4.172   1.398 -0.2458 -0.9182 -0.1507
   86MOL   C21527585  -7.343   4.290   1.354 -0.4922 -0.5584  0.6482
   86MOL   C21627586  -7.231   4.079   1.309 -0.5772  0.1376  0.4182
   86MOL   C21727587  -7.173   3.952   1.351  0.1306 -0.9646  0.0420
   86MOL   H21827588  -7.066   3.806   1.641 -2.2157 -0.6061  0.3554
   86MOL   H21927589  -7.117   3.722   1.486  1.4339 -0.7964 -0.7037
   86MOL   H22027590  -7.181   4.005   1.687  2.7735  1.4891 -0.1162
   86MOL   H22127591  -7.278   4.224   1.607  0.6703  1.5258 -2.5491
   86MOL   H22227592  -7.317   4.384   1.402  2.1853  0.0517 -1.8716
   86MOL   H22327593  -7.312   4.298   1.250  1.1952 -0.0610  1.1723
   86MOL   H22427594  -7.243   4.099   1.203 -1.6317 -0.0820  0.4893
   86MOL   H22527595  -7.131   3.887   1.276 -1.1130 -0.8227 -0.7877
   86MOL   C22627596  -7.492   4.281   1.369  0.4234  0.2469 -0.9696
   86MOL   C22727597  -7.535   4.277   1.517  0.4273 -0.0336  0.0685
   86MOL   C22827598  -7.526   4.394   1.595 -0.2786  0.2217  0.4381
   86MOL   C22927599  -7.567   4.394   1.724  0.0231 -0.7110 -0.0968
   86MOL   C23027600  -7.619   4.274   1.787  0.0551 -0.7213  0.1407
   86MOL   C23127601  -7.673   4.272   1.927 -0.2077 -0.7035 -0.2496
   86MOL   C23227602  -7.630   4.160   1.706  0.2603 -0.1328 -0.0164
   86MOL   C23327603  -7.587   4.162   1.573  0.0096 -0.7735 -0.0027
   86MOL   H23427604  -7.525   4.193   1.313 -0.2960  1.3430 -2.2937
   86MOL   H23527605  -7.535   4.368   1.320  1.0719  1.4313  0.5424
   86MOL   H23627606  -7.468   4.481   1.567  1.4706 -0.6250  1.3703
   86MOL   H23727607  -7.545   4.483   1.782  1.8333 -0.2581 -1.4067
   86MOL   H23827608  -7.665   4.375   1.960 -1.7342 -0.5984 -0.1962
   86MOL   H23927609  -7.777   4.256   1.901 -0.6036  0.7131  0.4640
   86MOL   H24027610  -7.657   4.064   1.746 -0.0531  0.6210  1.6048
   86MOL   H24127611  -7.598   4.079   1.505 -0.1281 -1.1893  0.5179
   86MOL   C24227612  -7.613   4.179   2.034 -0.3367 -0.0698  0.3853
   86MOL   C24327613  -7.460   4.191   2.047 -0.7040  0.3682  1.0500
   86MOL   C24427614  -7.367   4.153   1.947  0.0990 -0.2751  0.5430
   86MOL   C24527615  -7.222   4.161   1.972 -1.0296  0.4269  0.2029
   86MOL   C24627616  -7.179   4.195   2.102 -0.2824  0.2814 -0.0332
   86MOL   C24727617  -7.032   4.198   2.138  0.0737  0.0418  0.3840
   86MOL   C24827618  -7.273   4.242   2.193  0.5150  0.9434 -0.5490
   86MOL   C24927619  -7.410   4.240   2.166  0.1143 -0.7680  0.5106
   86MOL   H25027620  -7.667   4.215   2.121 -0.0320  1.1956  0.0640
   86MOL   H25127621  -7.640   4.077   2.007 -1.5245  0.7713 -1.7792
   86MOL   H25227622  -7.404   4.100   1.860  1.6338 -0.1998 -0.1635
   86MOL   H25327623  -7.149   4.127   1.901 -2.6680 -0.0981 -1.2632
   86MOL   H25427624  -6.969   4.162   2.056  2.1727 -0.4169  2.1499
   86MOL   H25527625  -7.004   4.302   2.154 -1.3643  0.1864  2.0404
   86MOL   H25627626  -7.243   4.277   2.291  0.0334 -1.1193  0.3758
   86MOL   H25727627  -7.484   4.276   2.236  1.0300 -1.0073  1.6164
   86MOL   C25827628  -7.002   4.125   2.260 -0.2855 -0.4728  0.4221
   86MOL   C25927629  -6.856   4.087   2.297 -0.2447 -0.5007 -0.3601
   86MOL   C26027630  -6.753   4.184   2.288 -0.5452  0.2589  0.2222
   86MOL   C26127631  -6.619   4.153   2.318  0.0858  0.2930  0.9521
   86MOL   C26227632  -6.588   4.028   2.372  0.2559  0.3947 -0.8175
   86MOL   C26327633  -6.451   4.003   2.427 -0.3868  0.2765  0.4685
   86MOL   C26427634  -6.697   3.932   2.386  0.2430 -0.0053 -0.7570
   86MOL   C26527635  -6.824   3.960   2.347 -0.2615  0.3752  0.4505
   86MOL   H26627636  -7.055   4.030   2.250  3.7308 -2.8329  0.3853
   86MOL   H26727637  -7.052   4.185   2.336  1.4621  0.5634  0.7829
   86MOL   H26827638  -6.784   4.280   2.250 -1.9605  0.1202  0.9842
   86MOL   H26927639  -6.545   4.229   2.301 -0.3236  0.2100 -1.2390
   86MOL   H27027640  -6.406   4.071   2.499  1.4529 -0.4158  0.0147
   86MOL   H27127641  -6.459   3.910   2.483 -2.4804 -0.3792 -0.8501
   86MOL   H27227642  -6.679   3.830   2.418  1.4413  0.6959  0.9092
   86MOL   H27327643  -6.906   3.890   2.346 -0.5623  0.7219 -0.7132
   86MOL   C27427644  -6.357   3.967   2.312 -0.4634  0.3543  0.2545
   86MOL   C27527645  -6.226   3.906   2.348  0.4887 -0.8004 -1.0541
   86MOL   C27627646  -6.118   3.983   2.297 -0.0401  0.5334  0.4979
   86MOL   C27727647  -5.988   3.938   2.328 -0.2689  0.5879  0.6220
   86MOL   C27827648  -5.960   3.825   2.402  0.3239  0.4067  0.4299
   86MOL   C27927649  -5.821   3.768   2.417 -0.0146  0.3297  0.3321
   86MOL   C28027650  -6.074   3.746   2.452 -0.4430  0.3691  0.0128
   86MOL   C28127651  -6.207   3.785   2.425  0.2804 -0.0173 -0.3393
   86MOL   H28227652  -6.407   3.899   2.243 -0.6122  0.4610  0.2592
   86MOL   H28327653  -6.351   4.057   2.251 -0.2302 -0.8075 -1.4657
   86MOL   H28427654  -6.125   4.074   2.240 -0.8832  0.4023  0.3921
   86MOL   H28527655  -5.909   3.998   2.285 -1.7686  1.8435 -0.4669
   86MOL   H28627656  -5.740   3.840   2.425  0.2797  0.0910 -0.4655
   86MOL   H28727657  -5.825   3.710   2.510  2.9726 -2.8157 -1.3955
   86MOL   H28827658  -6.055   3.660   2.513  0.5976  0.2724 -0.4278
   86MOL   H28927659  -6.291   3.725   2.457  0.4687 -1.0104 -1.6723
   86MOL   C29027660  -5.776   3.683   2.287 -0.0462  0.3945  0.2696
   86MOL   C29127661  -5.631   3.642   2.309 -0.3953 -0.2752 -0.4430
   86MOL   C29227662  -5.525   3.709   2.249  0.2483  0.0135  0.1620
   86MOL   C29327663  -5.392   3.657   2.255 -0.1255  0.0308  0.2294
   86MOL   C29427664  -5.368   3.548   2.344  0.0748  0.0005  0.2598
   86MOL   C29527665  -5.231   3.480   2.345 -0.1376  0.0876  0.0546
   86MOL   C29627666  -5.472   3.475   2.400 -0.3738 -0.1582  0.4579
   86MOL   C29727667  -5.602   3.526   2.385 -0.0137 -0.0622  0.3540
   86MOL   H29827668  -5.784   3.747   2.199 -0.2459 -2.9475 -2.2116
   86MOL   H29927669  -5.841   3.597   2.270 -0.2168  0.4208  0.7636
   86MOL   H30027670  -5.546   3.789   2.179 -1.5180 -1.6021 -1.2254
   86MOL   H30127671  -5.314   3.708   2.199 -0.2335  0.2588  0.2852
   86MOL   H30227672  -5.214   3.426   2.439  2.4458 -1.6153 -1.3273
   86MOL   H30327673  -5.237   3.396   2.275  1.0884  0.0317  0.0040
   86MOL   H30427674  -5.456   3.383   2.455 -0.3286 -1.8306 -2.2764
   86MOL   H30527675  -5.684   3.464   2.419  1.4888 -1.7624  0.9531
   86MOL   C30627676  -5.103   3.565   2.310 -0.4892 -0.4478 -0.4335
   86MOL   C30727677  -4.973   3.502   2.339  0.2845  0.0593  0.2265
   86MOL   C30827678  -4.887   3.438   2.244 -0.3046 -0.3091 -1.0893
   86MOL   C30927679  -4.764   3.379   2.277 -0.0303  0.1194 -0.0730
   86MOL   C31027680  -4.725   3.370   2.406 -0.0103 -0.2520 -0.9703
   86MOL   C31127681  -4.598   3.295   2.439  0.2719 -0.2322  0.7249
   86MOL   C31227682  -4.808   3.435   2.506 -0.1985 -0.1405  0.3163
   86MOL   C31327683  -4.929   3.493   2.471 -0.5477  0.2846  0.1110
   86MOL   H31427684  -5.116   3.652   2.374  0.3001 -0.6538  0.0106
   86MOL   H31527685  -5.103   3.600   2.206 -2.6540  0.6002 -0.0981
   86MOL   H31627686  -4.913   3.436   2.139 -0.2392  3.0809 -1.2406
   86MOL   H31727687  -4.708   3.338   2.194 -1.6022 -2.3503  0.0034
   86MOL   H31827688  -4.513   3.337   2.386  0.7731 -0.5596  1.2503
   86MOL   H31927689  -4.577   3.285   2.546 -1.0277 -1.6496  0.8778
   86MOL   H32027690  -4.784   3.432   2.611  0.5754 -0.7018  0.1274
   86MOL   H32127691  -4.977   3.544   2.554  0.7103 -0.6707  1.4528
   86MOL   H32227692  -4.615   3.198   2.392  1.9086  1.1157 -2.7590
   87MOL     C127693   3.589   3.215   2.873  0.1629  0.1480  0.1586
   87MOL     C227694   3.707   3.133   2.907 -0.4199 -0.0350  0.1720
   87MOL     C327695   3.802   3.100   2.807 -0.4666  0.1189  0.7555
   87MOL     C427696   3.916   3.028   2.845 -0.6595 -0.3808  0.0548
   87MOL     C527697   3.930   2.980   2.976 -0.3469  0.0713  0.0988
   87MOL     C627698   4.049   2.888   3.012  0.6248 -0.0871  0.7998
   87MOL     C727699   3.830   3.014   3.073 -0.3396  0.6223 -0.0742
   87MOL     C827700   3.719   3.083   3.038 -0.5247  0.3251  0.3832
   87MOL     H927701   3.511   3.154   2.829  0.0120  2.0548 -2.3446
   87MOL    H1027702   3.553   3.257   2.968  0.3187 -3.3018  1.8059
   87MOL    H1127703   3.793   3.135   2.706  1.1842  2.0867  1.2403
   87MOL    H1227704   3.992   3.000   2.773 -1.8601 -2.6496 -0.3970
   87MOL    H1327705   4.009   2.812   3.079 -3.1056  0.8674 -0.2007
   87MOL    H1427706   4.091   2.834   2.928 -1.1142  0.3361 -0.3638
   87MOL    H1527707   3.844   2.981   3.175 -2.6845  0.7805  0.3301
   87MOL    H1627708   3.644   3.114   3.110  0.6260  2.0473  0.8830
   87MOL    H1727709   3.604   3.291   2.797 -2.5310 -0.4528 -1.0238
   87MOL    C1827710   4.155   2.970   3.094 -0.7506  0.2011  0.3871
   87MOL    C1927711   4.278   2.895   3.137  1.0025  0.7498 -0.2901
   87MOL    C2027712   4.280   2.754   3.154 -0.1714  0.4740 -0.6757
   87MOL    C2127713   4.392   2.682   3.193 -0.3094  1.1187 -0.6218
   87MOL    C2227714   4.516   2.753   3.208 -0.0350 -0.2552  0.4417
   87MOL    C2327715   4.639   2.675   3.247 -0.1917  0.0935 -0.4903
   87MOL    C2427716   4.515   2.896   3.204  0.0020  0.0647  0.2162
   87MOL    C2527717   4.396   2.968   3.167  0.4615  0.0478 -0.5935
   87MOL    H2627718   4.180   3.060   3.039  2.0601 -1.0429 -0.4780
   87MOL    H2727719   4.111   2.996   3.190  1.0581 -1.3983  1.7034
   87MOL    H2827720   4.191   2.697   3.133  0.3795 -0.2786 -1.0000
   87MOL    H2927721   4.374   2.575   3.195 -2.1998  1.4173 -0.4626
   87MOL    H3027722   4.617   2.573   3.280 -4.2057  1.4308  1.2299
   87MOL    H3127723   4.696   2.728   3.324 -1.2121 -1.4101  1.3346
   87MOL    H3227724   4.600   2.962   3.212 -1.9609  2.5805  1.1486
   87MOL    H3327725   4.397   3.075   3.174  0.5910 -0.0314  0.7307
   87MOL    C3427726   4.736   2.651   3.131  0.6754  0.3183  0.6271
   87MOL    C3527727   4.870   2.582   3.164  0.4902 -0.1383  0.2351
   87MOL    C3627728   4.886   2.442   3.145 -0.3964  0.1503  0.6341
   87MOL    C3727729   5.007   2.379   3.179 -0.4260 -0.0946 -0.1653
   87MOL    C3827730   5.117   2.450   3.227  0.0884 -0.2474 -0.1062
   87MOL    C3927731   5.260   2.386   3.246  0.2768 -0.5241  0.7683
   87MOL    C4027732   5.095   2.588   3.251 -0.4796 -0.1229  0.1782
   87MOL    C4127733   4.975   2.657   3.219 -0.3337  0.5976 -0.0473
   87MOL    H4227734   4.757   2.744   3.079  0.5748 -0.9346 -1.7475
   87MOL    H4327735   4.691   2.580   3.061 -0.0596 -0.0692  1.4801
   87MOL    H4427736   4.806   2.385   3.099 -0.3469  0.5744  0.0230
   87MOL    H4527737   5.013   2.276   3.148 -0.6292 -0.1914  0.1215
   87MOL    H4627738   5.294   2.369   3.144  0.1362  2.8006  0.1075
   87MOL    H4727739   5.326   2.459   3.294 -1.1692  2.1498 -1.1657
   87MOL    H4827740   5.182   2.648   3.273 -1.1621  0.4860  1.2297
   87MOL    H4927741   4.975   2.764   3.205 -3.0320  0.3008 -2.8639
   87MOL    C5027742   5.252   2.257   3.328 -0.1966  0.0725 -0.1337
   87MOL    C5127743   5.397   2.198   3.324 -0.4015 -0.3196  0.5432
   87MOL    C5227744   5.431   2.123   3.213  0.4214  0.1500  0.6125
   87MOL    C5327745   5.556   2.060   3.203  0.1107  0.4666 -0.0650
   87MOL    C5427746   5.652   2.089   3.303  0.0382  0.3594 -0.0576
   87MOL    C5527747   5.785   2.011   3.292  0.0829  0.6043 -0.0942
   87MOL    C5627748   5.623   2.175   3.409  0.8045  0.4496 -0.3793
   87MOL    C5727749   5.494   2.229   3.428  0.4422 -0.5467 -0.0053
   87MOL    H5827750   5.187   2.187   3.276 -0.1995 -0.1041  0.1031
   87MOL    H5927751   5.210   2.271   3.428 -0.9327  0.3902 -0.4865
   87MOL    H6027752   5.359   2.113   3.134  1.0133 -0.4085  0.1447
   87MOL    H6127753   5.577   2.004   3.114  1.3394  0.2881  0.3358
   87MOL    H6227754   5.829   2.007   3.392  1.9270  0.0470 -0.9051
   87MOL    H6327755   5.778   1.907   3.260 -1.3978  0.4117  0.8048
   87MOL    H6427756   5.702   2.195   3.480  1.4531  0.7241 -1.1699
   87MOL    H6527757   5.458   2.280   3.517 -0.5153  0.3695 -0.9086
   87MOL    C6627758   5.879   2.085   3.195  0.3337 -0.0905  0.1150
   87MOL    C6727759   6.016   2.021   3.196  0.0954  0.0463  0.3070
   87MOL    C6827760   6.050   1.924   3.097  0.1732 -0.1862 -0.7065
   87MOL    C6927761   6.172   1.849   3.115  0.1412  0.8847 -0.0978
   87MOL    C7027762   6.263   1.877   3.218 -0.0070  0.6527 -0.5452
   87MOL    C7127763   6.398   1.804   3.231 -0.0570 -0.4834 -0.2010
   87MOL    C7227764   6.232   1.976   3.312 -0.5564 -0.3290 -0.6630
   87MOL    C7327765   6.105   2.038   3.305 -0.6469  0.5787 -0.1007
   87MOL    H7427766   5.902   2.186   3.230  0.6621  0.1926 -0.8831
   87MOL    H7527767   5.832   2.088   3.097  0.6743 -1.2851 -0.0922
   87MOL    H7627768   5.977   1.908   3.019 -0.1917 -1.7038 -0.0545
   87MOL    H7727769   6.199   1.769   3.048 -2.4856  0.1947 -0.3617
   87MOL    H7827770   6.389   1.720   3.162  0.8567 -0.3141 -0.5428
   87MOL    H7927771   6.414   1.758   3.328  0.9318 -1.5277 -0.8341
   87MOL    H8027772   6.292   1.998   3.399 -1.4727  1.8155 -0.5378
   87MOL    H8127773   6.065   2.112   3.373 -0.9551  1.9119 -1.6926
   87MOL    C8227774   6.522   1.892   3.202  0.9626  0.0943  0.6430
   87MOL    C8327775   6.651   1.809   3.210  0.2759 -0.1953  0.6709
   87MOL    C8427776   6.681   1.722   3.096 -0.4867  0.0606  0.1084
   87MOL    C8527777   6.799   1.653   3.085  0.1890  0.0987  0.0626
   87MOL    C8627778   6.889   1.656   3.195 -0.1384  0.2879  0.3587
   87MOL    C8727779   7.021   1.580   3.186  0.0665 -0.1627 -1.2040
   87MOL    C8827780   6.861   1.747   3.296  0.6604 -0.7965  0.4740
   87MOL    C8927781   6.745   1.822   3.309 -0.3288 -0.2775  0.1220
   87MOL    H9027782   6.522   1.963   3.285  0.6287  0.0003  0.7261
   87MOL    H9127783   6.505   1.941   3.107  1.3411  0.1746  0.6143
   87MOL    H9227784   6.607   1.725   3.017 -0.6799 -0.8180  0.2541
   87MOL    H9327785   6.814   1.586   3.002  0.0405 -1.4231  1.2415
   87MOL    H9427786   6.997   1.484   3.142  3.9598 -2.3233  1.1132
   87MOL    H9527787   7.072   1.557   3.280 -2.4527  0.3382  0.3159
   87MOL    H9627788   6.930   1.773   3.376 -1.8196  0.1361  2.3808
   87MOL    H9727789   6.734   1.888   3.394  3.3807  0.5459  0.0226
   87MOL    C9827790   7.118   1.658   3.100  0.7852  0.1576 -0.0827
   87MOL    C9927791   7.251   1.595   3.083  0.3607  0.6875 -0.0287
   87MOL   C10027792   7.364   1.632   3.170  0.0860  0.4323  0.7842
   87MOL   C10127793   7.487   1.559   3.161 -0.7695 -0.0162 -0.9010
   87MOL   C10227794   7.499   1.458   3.070 -0.4987 -0.0194  0.0364
   87MOL   C10327795   7.627   1.373   3.064  0.8531  0.2997  0.0960
   87MOL   C10427796   7.399   1.430   2.975 -0.1852  0.1852 -0.5569
   87MOL   C10527797   7.277   1.496   2.987 -0.1243 -0.4656  0.2517
   87MOL   H10627798   7.145   1.752   3.148  2.0363  0.4126 -1.2834
   87MOL   H10727799   7.076   1.673   3.001 -0.4932 -0.1489  0.3970
   87MOL   H10827800   7.354   1.706   3.248 -1.4560 -0.7923  1.7691
   87MOL   H10927801   7.567   1.583   3.229 -0.0431 -1.2216 -1.3192
   87MOL   H11027802   7.678   1.367   3.160 -0.7048 -2.3655  0.8060
   87MOL   H11127803   7.614   1.268   3.037  1.6220  0.3714 -0.5614
   87MOL   H11227804   7.408   1.357   2.896 -0.3545 -0.5434  0.0923
   87MOL   H11327805   7.200   1.472   2.915 -0.5033  1.1176  0.1169
   87MOL   C11427806   7.726   1.428   2.968 -0.0802 -0.0177 -0.4980
   87MOL   C11527807   7.857   1.349   2.978 -0.1361 -0.5074  0.0574
   87MOL   C11627808   7.869   1.209   2.968  0.0460  0.2102  0.1228
   87MOL   C11727809   7.992   1.142   2.957 -0.3530  0.0130  0.5156
   87MOL   C11827810   8.111   1.217   2.970 -0.2572 -0.3594  0.4410
   87MOL   C11927811   8.249   1.142   2.973 -0.2915 -0.7237  0.9286
   87MOL   C12027812   8.110   1.358   2.980  0.3861  0.4301 -0.4660
   87MOL   C12127813   7.980   1.422   2.984 -0.0354 -0.0249 -0.0127
   87MOL   H12227814   7.743   1.534   2.986 -0.6735 -0.1213  0.6557
   87MOL   H12327815   7.687   1.426   2.866  0.9196  1.4733 -0.9150
   87MOL   H12427816   7.781   1.147   2.967  2.0295 -2.7011 -0.0409
   87MOL   H12527817   7.996   1.036   2.940  2.0315  0.4875 -2.1495
   87MOL   H12627818   8.300   1.165   3.067  0.6291  0.0545  0.2436
   87MOL   H12727819   8.232   1.035   2.962 -0.6028 -0.7783  1.8408
   87MOL   H12827820   8.206   1.407   2.970 -0.4811  2.1990 -0.1979
   87MOL   H12927821   7.967   1.529   2.971 -1.7895 -0.1921  0.1900
   87MOL   C13027822   8.337   1.174   2.853  0.4640  0.0656  0.3730
   87MOL   C13127823   8.468   1.100   2.860 -0.0668  0.2616 -0.5769
   87MOL   C13227824   8.589   1.159   2.910  0.3099 -0.6709  0.7099
   87MOL   C13327825   8.705   1.083   2.919 -0.3626 -0.0183  0.4840
   87MOL   C13427826   8.713   0.952   2.859  0.0518 -0.2296  1.1314
   87MOL   C13527827   8.851   0.886   2.848  0.0479  0.4949  0.7207
   87MOL   C13627828   8.598   0.895   2.807  0.5711 -0.0948 -0.5859
   87MOL   C13727829   8.475   0.969   2.804 -0.3158 -0.1122  0.6743
   87MOL   H13827830   8.355   1.281   2.861 -1.8001  0.4416  0.9858
   87MOL   H13927831   8.285   1.149   2.761 -0.9080  0.9055  0.9022
   87MOL   H14027832   8.586   1.257   2.956  4.4544 -0.2133  0.1476
   87MOL   H14127833   8.791   1.139   2.953 -0.8146  0.1569  1.3386
   87MOL   H14227834   8.840   0.785   2.810 -0.2643  1.3625 -1.5503
   87MOL   H14327835   8.913   0.945   2.781  0.3800 -2.3081 -1.5256
   87MOL   H14427836   8.603   0.796   2.765  0.3984  0.5338 -2.0966
   87MOL   H14527837   8.390   0.921   2.759  2.3012 -1.9632 -2.5474
   87MOL   C14627838   8.924   0.877   2.981 -0.0270  0.3029  0.3623
   87MOL   C14727839   9.062   0.812   2.962 -0.1468  0.8724 -0.4872
   87MOL   C14827840   9.078   0.673   2.969  0.0723  0.2886  0.1763
   87MOL   C14927841   9.208   0.621   2.958  0.4150 -1.2581  0.1515
   87MOL   C15027842   9.316   0.706   2.947  0.1547 -0.5194 -0.3538
   87MOL   C15127843   9.450   0.641   2.942 -1.1767 -0.1398  0.1419
   87MOL   C15227844   9.301   0.843   2.929 -0.3591  0.3863 -0.3754
   87MOL   C15327845   9.169   0.893   2.940 -0.2473 -0.7778 -0.4309
   87MOL   H15427846   8.863   0.817   3.049 -0.0719  0.0613  0.1089
   87MOL   H15527847   8.926   0.976   3.028 -0.0863  0.0190  0.9683
   87MOL   H15627848   9.000   0.598   2.977 -0.4704  0.6688 -1.4002
   87MOL   H15727849   9.212   0.513   2.964 -2.1379 -1.4608 -1.0824
   87MOL   H15827850   9.449   0.569   3.023 -0.4863 -2.4175 -1.8330
   87MOL   H15927851   9.461   0.586   2.849  1.4587  0.5180  0.0287
   87MOL   H16027852   9.386   0.909   2.922 -1.5469  2.0306  0.1469
   87MOL   H16127853   9.148   0.999   2.931  0.6513 -0.4911  0.7737
   87MOL   C16227854   9.576   0.716   2.959  0.2502 -0.3506  0.3584
   87MOL   C16327855   9.700   0.639   2.965 -0.1901  0.0477  0.1551
   87MOL   C16427856   9.725   0.506   2.999  0.2323 -0.0185 -0.1007
   87MOL   C16527857   9.856   0.452   3.022  0.1965  0.4394  0.7242
   87MOL   C16627858   9.966   0.536   2.992 -0.4086 -0.1846 -0.0626
   87MOL   C16727859  10.104   0.477   3.008 -0.3908 -0.2716 -0.2680
   87MOL   C16827860   9.942   0.671   2.955 -0.3726  0.5618 -0.1115
   87MOL   C16927861   9.814   0.717   2.939 -0.3017  0.0916  0.0254
   87MOL   H17027862   9.564   0.780   3.046  1.7726  0.0093  0.3253
   87MOL   H17127863   9.580   0.781   2.872  0.9784 -2.0359 -0.9024
   87MOL   H17227864   9.644   0.437   3.017  0.2584 -0.4774 -1.6985
   87MOL   H17327865   9.859   0.346   3.041  2.3452  0.6793  1.8317
   87MOL   H17427866  10.094   0.379   2.962 -2.8657  0.3025 -1.0528
   87MOL   H17527867  10.178   0.542   2.962 -1.6100  0.7156 -0.8614
   87MOL   H17627868  10.028   0.731   2.932 -0.6293  0.0791 -2.3658
   87MOL   H17727869   9.796   0.822   2.918 -1.4023 -0.4001 -1.6403
   87MOL   C17827870  10.141   0.456   3.159  0.3440 -0.1639  0.5308
   87MOL   C17927871  10.287   0.410   3.184  1.1114 -0.0914  0.4075
   87MOL   C18027872  10.338   0.289   3.122  0.1245  0.1870 -0.1032
   87MOL   C18127873  10.475   0.260   3.114 -0.3928 -0.0158 -0.4613
   87MOL   C18227874  10.563   0.345   3.191  0.5063  0.9581  0.0880
   87MOL   C18327875  10.709   0.313   3.184  0.0486  0.4782 -0.2332
   87MOL   C18427876  10.522   0.463   3.258  0.2463  0.2252 -0.0858
   87MOL   C18527877  10.382   0.494   3.254  0.2101 -0.8343 -0.2124
   87MOL   H18627878  10.075   0.384   3.207 -2.7103  1.1056 -1.5940
   87MOL   H18727879  10.133   0.556   3.203 -0.3542 -0.1476  0.3768
   87MOL   H18827880  10.266   0.226   3.072 -1.0115  1.6103 -0.2784
   87MOL   H18927881  10.511   0.173   3.062  0.5058 -1.3330  2.2625
   87MOL   H19027882  10.744   0.346   3.086  0.1032  0.6188 -0.1671
   87MOL   H19127883  10.753   0.376   3.261 -1.0895 -0.0892  0.9022
   87MOL   H19227884  10.595   0.534   3.293 -0.6352  0.9597  0.2841
   87MOL   H19327885  10.357   0.593   3.291  0.3883 -1.0990  0.6258
   87MOL   C19427886  10.754   0.167   3.223  0.4716  0.1125 -0.2279
   87MOL   C19527887  10.909   0.142   3.212  0.1936  0.3380  1.1540
   87MOL   C19627888  10.954   0.087   3.096  0.1303 -0.5473  0.6852
   87MOL   C19727889  11.097   0.080   3.084 -0.1313 -0.4225  0.2809
   87MOL   C19827890  11.187   0.111   3.184 -0.2647 -0.2902 -0.1978
   87MOL   C19927891  11.337   0.108   3.165 -0.0201 -0.5086 -0.2446
   87MOL   C20027892  11.131   0.165   3.303 -0.4117 -0.1586 -0.8057
   87MOL   C20127893  10.993   0.181   3.317  0.3609 -0.3704 -0.1508
   87MOL   H20227894  10.712   0.091   3.156 -3.2076  2.2691 -0.5355
   87MOL   H20327895  10.719   0.133   3.321 -3.1345 -1.1697 -1.8389
   87MOL   H20427896  10.882   0.062   3.019 -2.2827 -0.5407  2.8635
   87MOL   H20527897  11.155   0.050   2.998 -0.5300  2.9161 -1.2542
   87MOL   H20627898  11.364   0.071   3.067  2.9896 -3.0309  1.4516
   87MOL   H20727899  11.369   0.211   3.181 -0.4939  0.1715 -3.4224
   87MOL   H20827900  11.196   0.188   3.386  0.2964 -1.4072 -1.0003
   87MOL   H20927901  10.946   0.220   3.406  2.1742  2.1026 -0.2269
   87MOL   C21027902  11.398   0.019   3.278 -0.1880  0.9180 -0.1286
   87MOL   C21127903  11.545  -0.001   3.270 -0.6203 -0.0321  0.0994
   87MOL   C21227904  11.605  -0.018   3.145  0.8029 -0.1727 -0.5199
   87MOL   C21327905  11.736  -0.034   3.131  0.9462 -0.3109  0.7093
   87MOL   C21427906  11.824  -0.027   3.241  0.4173 -0.8232 -0.2666
   87MOL   C21527907  11.976  -0.035   3.213 -0.2583 -0.1502 -0.2322
   87MOL   C21627908  11.766  -0.008   3.370 -0.5917  0.0898 -0.3268
   87MOL   C21727909  11.629  -0.010   3.384  0.2203 -1.3185 -0.4858
   87MOL   H21827910  11.351  -0.079   3.274 -0.4903  1.1275 -2.1560
   87MOL   H21927911  11.376   0.058   3.378  1.6448 -2.2272  1.6212
   87MOL   H22027912  11.540  -0.018   3.059  1.0534 -1.2936 -0.7192
   87MOL   H22127913  11.777  -0.036   3.031  0.4654  2.0360  0.4279
   87MOL   H22227914  11.992  -0.009   3.109  0.9350 -0.2504 -0.0774
   87MOL   H22327915  12.024   0.043   3.272  0.3356  0.5117 -1.5806
   87MOL   H22427916  11.833   0.007   3.454 -2.8090 -0.0213  1.4837
   87MOL   H22527917  11.591   0.008   3.483  1.1501 -1.1941 -0.1439
   87MOL   C22627918  12.024  -0.181   3.241  0.4714  0.2069 -0.7424
   87MOL   C22727919  12.169  -0.218   3.212  0.7322 -0.2035 -0.6823
   87MOL   C22827920  12.202  -0.259   3.084  0.7360 -0.7054 -0.1967
   87MOL   C22927921  12.328  -0.297   3.049 -0.8360 -0.0942  0.7593
   87MOL   C23027922  12.436  -0.298   3.141 -0.2389 -0.4630 -0.6440
   87MOL   C23127923  12.583  -0.328   3.097  1.0793 -0.6283 -0.4209
   87MOL   C23227924  12.403  -0.267   3.274 -0.3548 -0.3327 -0.5890
   87MOL   C23327925  12.278  -0.225   3.310  0.0267  0.0562 -0.5854
   87MOL   H23427926  11.950  -0.245   3.191  0.0055  2.1710 -2.6274
   87MOL   H23527927  12.004  -0.205   3.346  1.4130  0.9068 -0.4079
   87MOL   H23627928  12.131  -0.265   3.003 -0.1877 -1.1899  0.6413
   87MOL   H23727929  12.344  -0.318   2.944 -1.4400 -1.1385  0.8740
   87MOL   H23827930  12.651  -0.307   3.179 -0.9023  2.5235  0.5116
   87MOL   H23927931  12.591  -0.435   3.079 -0.9512 -0.7836 -0.5135
   87MOL   H24027932  12.474  -0.274   3.355 -0.7817  0.4092 -0.1516
   87MOL   H24127933  12.259  -0.198   3.413  1.2948 -2.3542  0.3106
   87MOL   C24227934  12.624  -0.259   2.964  0.0406 -0.7868  0.6575
   87MOL   C24327935  12.757  -0.294   2.910  0.3089 -0.0444  1.1373
   87MOL   C24427936  12.783  -0.430   2.868  0.2328  0.2291 -0.1508
   87MOL   C24527937  12.895  -0.466   2.803  0.5304 -0.4780  0.1360
   87MOL   C24627938  13.002  -0.372   2.792  0.3585 -0.5524 -0.1167
   87MOL   C24727939  13.142  -0.409   2.727  0.0568  0.0734 -0.4107
   87MOL   C24827940  12.989  -0.239   2.834 -0.2208 -0.2264 -0.3254
   87MOL   C24927941  12.862  -0.195   2.892 -1.1302  0.4612  0.2872
   87MOL   H25027942  12.550  -0.294   2.892 -0.5171 -1.0059  1.3268
   87MOL   H25127943  12.601  -0.153   2.954 -3.3226 -1.4684  0.5766
   87MOL   H25227944  12.702  -0.501   2.871  2.2307 -2.0926  2.4335
   87MOL   H25327945  12.897  -0.565   2.760 -0.8539 -0.9045  1.0007
   87MOL   H25427946  13.113  -0.493   2.665  1.6917  0.1669 -1.3551
   87MOL   H25527947  13.178  -0.335   2.654  0.3434 -1.0013 -1.3741
   87MOL   H25627948  13.075  -0.174   2.823  0.3223 -1.0317 -0.9018
   87MOL   H25727949  12.857  -0.095   2.933  0.1915  1.2360 -1.3766
   87MOL   C25827950  13.244  -0.460   2.828  0.3302  0.1628 -0.4835
   87MOL   C25927951  13.374  -0.505   2.770  0.2488  0.3155  0.0562
   87MOL   C26027952  13.366  -0.617   2.685  0.3942  0.1838 -0.0266
   87MOL   C26127953  13.484  -0.671   2.632  0.0706 -0.1635  0.0005
   87MOL   C26227954  13.606  -0.610   2.666 -0.5449  0.2564  0.2223
   87MOL   C26327955  13.740  -0.668   2.622  0.2352  0.3481  0.0546
   87MOL   C26427956  13.612  -0.489   2.743 -0.1869 -0.1557 -0.5351
   87MOL   C26527957  13.495  -0.435   2.795 -0.0568 -0.4705 -1.1983
   87MOL   H26627958  13.204  -0.537   2.893 -0.6314  0.4991 -0.6712
   87MOL   H26727959  13.266  -0.392   2.910  0.0131  0.5125 -0.6925
   87MOL   H26827960  13.273  -0.667   2.665  0.6247 -0.6929  1.0323
   87MOL   H26927961  13.470  -0.763   2.578 -3.2493  0.4924 -0.3689
   87MOL   H27027962  13.730  -0.758   2.560  0.8923  0.8373 -0.7757
   87MOL   H27127963  13.802  -0.591   2.577  2.4012 -0.1072  2.1757
   87MOL   H27227964  13.707  -0.446   2.771 -0.4861 -0.0326  0.3216
   87MOL   H27327965  13.504  -0.347   2.857  2.8686 -0.3028 -1.7688
   87MOL   C27427966  13.823  -0.718   2.745  0.9358  1.0810 -0.7969
   87MOL   C27527967  13.953  -0.777   2.700  0.7561 -0.1653  0.0635
   87MOL   C27627968  13.965  -0.909   2.638  0.5665 -0.3425  0.1936
   87MOL   C27727969  14.091  -0.953   2.601 -1.0160 -0.1575 -0.8241
   87MOL   C27827970  14.209  -0.882   2.628 -0.0931 -0.0125 -0.2490
   87MOL   C27927971  14.348  -0.933   2.604  0.4638  0.0155 -0.2781
   87MOL   C28027972  14.191  -0.750   2.675  0.0265  0.4458 -0.1890
   87MOL   C28127973  14.071  -0.699   2.718 -0.1501  0.3820 -0.2978
   87MOL   H28227974  13.825  -0.636   2.817  0.8877 -0.1602  0.6476
   87MOL   H28327975  13.755  -0.794   2.786  2.3107  1.2581  1.8587
   87MOL   H28427976  13.880  -0.966   2.604  1.4394 -1.2029 -0.5624
   87MOL   H28527977  14.093  -1.053   2.561 -0.0128 -0.5480  0.1607
   87MOL   H28627978  14.337  -1.016   2.534  0.6041 -0.6188  0.4479
   87MOL   H28727979  14.400  -0.847   2.562  0.4399  0.0865 -0.1628
   87MOL   H28827980  14.278  -0.685   2.673  0.9630 -0.7284  1.3466
   87MOL   H28927981  14.071  -0.598   2.757  0.8255  0.0907  0.4683
   87MOL   C29027982  14.414  -0.978   2.735 -0.1365  0.0920 -0.0702
   87MOL   C29127983  14.552  -1.030   2.701 -0.1926  0.5019 -0.3436
   87MOL   C29227984  14.662  -0.979   2.771 -0.2125  0.1410 -0.0311
   87MOL   C29327985  14.788  -1.028   2.735 -0.5022  0.2374 -0.5927
   87MOL   C29427986  14.807  -1.134   2.645  0.2855 -0.3167  0.7090
   87MOL   C29527987  14.952  -1.184   2.611 -0.7893  0.1016  0.1121
   87MOL   C29627988  14.693  -1.192   2.587 -0.0303 -0.1425 -0.4723
   87MOL   C29727989  14.566  -1.140   2.617  0.8301 -0.5387 -0.5901
   87MOL   H29827990  14.360  -1.065   2.771 -0.6240 -0.7213 -2.6485
   87MOL   H29927991  14.412  -0.893   2.804  0.8700  0.5422 -0.5903
   87MOL   H30027992  14.661  -0.902   2.846  0.1146  0.8182 -0.7112
   87MOL   H30127993  14.871  -0.987   2.791  0.0626 -2.7408  0.8604
   87MOL   H30227994  14.950  -1.238   2.516  2.8983 -1.6309  0.9119
   87MOL   H30327995  15.017  -1.097   2.602 -1.1132  0.2621 -0.7079
   87MOL   H30427996  14.698  -1.267   2.509  2.4436 -1.0229  0.4824
   87MOL   H30527997  14.486  -1.194   2.569 -1.3501  0.0430  2.2714
   87MOL   C30627998  15.004  -1.279   2.713 -0.3223  0.0970 -0.0666
   87MOL   C30727999  15.159  -1.306   2.690 -0.0370 -0.6370 -0.1967
   87MOL   C30828000  15.197  -1.418   2.623  0.1882 -0.1922 -0.5146
   87MOL   C30928001  15.334  -1.444   2.587 -0.0358 -0.3590  0.0436
   87MOL   C31028002  15.437  -1.352   2.634  0.1857 -0.7483  0.9628
   87MOL   C31128003  15.582  -1.372   2.586  0.3235  0.0251  0.1411
   87MOL   C31228004  15.396  -1.240   2.711  0.8905  0.3319 -0.2148
   87MOL   C31328005  15.253  -1.214   2.736 -0.0574 -0.2488  0.5823
   87MOL   H31428006  14.944  -1.369   2.702 -0.2867  0.1181 -0.4382
   87MOL   H31528007  14.981  -1.253   2.816  1.9110  0.6338  0.3300
   87MOL   H31628008  15.126  -1.498   2.610  0.4666 -0.5834  0.3101
   87MOL   H31728009  15.367  -1.526   2.525  1.9148  0.8554 -0.5931
   87MOL   H31828010  15.581  -1.413   2.485 -0.2946 -1.5961  0.7898
   87MOL   H31928011  15.648  -1.286   2.600  1.7534 -0.9764 -0.3225
   87MOL   H32028012  15.463  -1.164   2.748  1.6602 -0.1875 -0.5243
   87MOL   H32128013  15.224  -1.124   2.789 -0.9323  0.6894 -1.4687
   87MOL   H32228014  15.620  -1.457   2.642 -0.5688  0.5697  1.5986
   88MOL     C128015   7.319   2.782   3.875  0.7277 -0.0785  0.0998
   88MOL     C228016   7.184   2.852   3.902  0.2389 -0.2468  0.0523
   88MOL     C328017   7.075   2.784   3.959 -1.0711  0.8871 -0.4064
   88MOL     C428018   6.955   2.854   3.971  0.3372 -0.2498 -0.6278
   88MOL     C528019   6.935   2.982   3.919 -0.0866  0.5175 -0.1240
   88MOL     C628020   6.809   3.058   3.930 -0.2105 -0.1461 -0.0921
   88MOL     C728021   7.047   3.046   3.858  0.1188  0.6135 -0.0927
   88MOL     C828022   7.174   2.986   3.854  0.1607  0.0150 -0.4081
   88MOL     H928023   7.393   2.849   3.919  0.9364 -0.2455 -0.0013
   88MOL    H1028024   7.310   2.688   3.930 -3.8950 -0.5010 -1.1476
   88MOL    H1128025   7.086   2.680   3.986 -1.3740  0.9426 -0.0566
   88MOL    H1228026   6.873   2.802   4.017 -1.2730  2.3875 -0.4572
   88MOL    H1328027   6.794   3.079   4.036 -1.8888 -0.9701 -0.1477
   88MOL    H1428028   6.818   3.151   3.874 -0.2206  0.6088  1.1346
   88MOL    H1528029   7.039   3.151   3.833  0.4645  0.4741 -0.7928
   88MOL    H1628030   7.260   3.033   3.808  0.7820 -1.8208 -1.1581
   88MOL    H1728031   7.337   2.744   3.775  0.5659 -0.6496  0.2854
   88MOL    C1828032   6.697   2.969   3.874 -0.7915  1.0908 -0.4549
   88MOL    C1928033   6.572   3.040   3.837  0.3090 -0.7545 -0.6241
   88MOL    C2028034   6.457   3.021   3.914  0.6693 -0.1420  0.0468
   88MOL    C2128035   6.336   3.085   3.886 -0.3257 -0.3165 -0.6696
   88MOL    C2228036   6.324   3.158   3.767 -0.2990  0.2963 -0.8434
   88MOL    C2328037   6.200   3.235   3.732 -0.8689  0.5961 -0.9863
   88MOL    C2428038   6.431   3.164   3.682 -0.4220 -0.1591  0.2289
   88MOL    C2528039   6.554   3.104   3.711 -0.1278 -0.5205 -0.4502
   88MOL    H2628040   6.734   2.915   3.786 -0.3964 -0.5274  0.6717
   88MOL    H2728041   6.674   2.894   3.950 -0.0232 -1.5068 -2.7002
   88MOL    H2828042   6.470   2.957   3.999  2.4678 -0.1165 -0.2024
   88MOL    H2928043   6.247   3.065   3.944 -0.0223  0.8985  0.2304
   88MOL    H3028044   6.120   3.191   3.792 -1.6569  0.1768 -2.3107
   88MOL    H3128045   6.176   3.210   3.629  0.6665 -0.6227 -1.0763
   88MOL    H3228046   6.423   3.218   3.589 -0.7946 -1.9591 -0.8189
   88MOL    H3328047   6.636   3.129   3.646  0.0801 -3.4238 -1.3872
   88MOL    C3428048   6.184   3.382   3.771 -0.4187  0.2440  0.4757
   88MOL    C3528049   6.047   3.433   3.724  0.1573  0.3637 -0.1860
   88MOL    C3628050   6.008   3.419   3.592  0.4007  0.1840 -0.3201
   88MOL    C3728051   5.875   3.453   3.556 -0.3185 -0.0219  0.3103
   88MOL    C3828052   5.783   3.504   3.655  0.8949 -0.0616 -0.0022
   88MOL    C3928053   5.641   3.529   3.617  0.3974 -0.1061  0.4696
   88MOL    C4028054   5.829   3.506   3.788 -0.0678  0.2422 -0.9212
   88MOL    C4128055   5.963   3.476   3.824 -0.2232 -0.6873 -0.8133
   88MOL    H4228056   6.253   3.448   3.717 -1.2063  1.0369  0.4414
   88MOL    H4328057   6.195   3.397   3.878 -1.6419  0.1684  0.6149
   88MOL    H4428058   6.078   3.378   3.521  0.6569 -2.9080  1.6507
   88MOL    H4528059   5.844   3.433   3.455 -1.2369  0.0585  0.5757
   88MOL    H4628060   5.617   3.484   3.520  0.7444 -3.6736  1.9476
   88MOL    H4728061   5.569   3.478   3.681 -1.3660  1.7313 -0.0017
   88MOL    H4828062   5.755   3.521   3.866  0.6512  2.3868 -0.6220
   88MOL    H4928063   5.995   3.476   3.927 -0.8417 -0.1764 -0.6185
   88MOL    C5028064   5.606   3.675   3.612  0.0217 -0.2420 -0.0138
   88MOL    C5128065   5.458   3.709   3.588 -0.5144  0.4738  0.0702
   88MOL    C5228066   5.385   3.786   3.679  0.3007  0.1553 -0.1237
   88MOL    C5328067   5.246   3.819   3.661 -0.6418 -0.4287  0.4117
   88MOL    C5428068   5.188   3.779   3.540 -0.2410 -0.0301  0.3635
   88MOL    C5528069   5.049   3.809   3.502  0.5933  0.6950 -0.2267
   88MOL    C5628070   5.257   3.695   3.450  0.3774 -0.0098 -0.5498
   88MOL    C5728071   5.389   3.662   3.473  0.4214  0.3675 -0.4823
   88MOL    H5828072   5.658   3.722   3.528  0.3370  1.4881  1.1221
   88MOL    H5928073   5.627   3.731   3.703 -2.8060  1.4051 -0.3191
   88MOL    H6028074   5.436   3.827   3.765 -1.0997  0.8716  0.3932
   88MOL    H6128075   5.203   3.903   3.714 -0.2495  0.1084 -0.1170
   88MOL    H6228076   5.018   3.910   3.531 -0.5007  0.2327  0.2449
   88MOL    H6328077   5.042   3.813   3.394 -2.8502  0.7156 -0.0687
   88MOL    H6428078   5.217   3.662   3.356  2.1783  0.9790 -1.6809
   88MOL    H6528079   5.443   3.611   3.395  1.1129  0.7829 -0.2830
   88MOL    C6628080   4.952   3.712   3.570 -0.0899  0.2280  0.5411
   88MOL    C6728081   4.809   3.743   3.531 -0.1007 -0.0810  0.3768
   88MOL    C6828082   4.750   3.859   3.577 -0.1028  0.8580 -1.3886
   88MOL    C6928083   4.611   3.891   3.554  0.1349  1.1460 -0.5035
   88MOL    C7028084   4.525   3.798   3.490 -0.2011 -0.6837  0.7816
   88MOL    C7128085   4.379   3.819   3.467 -0.2416 -0.1208 -0.3750
   88MOL    C7228086   4.587   3.681   3.436  0.0559 -0.1698  0.5257
   88MOL    C7328087   4.726   3.653   3.447 -0.7723  0.2993 -0.9270
   88MOL    H7428088   4.961   3.722   3.678  1.7738 -1.9127  0.6188
   88MOL    H7528089   4.975   3.608   3.547  0.3658  0.2908  0.7065
   88MOL    H7628090   4.816   3.934   3.617 -1.1005  1.7927 -1.4776
   88MOL    H7728091   4.577   3.986   3.590 -1.7450  0.4807 -0.4537
   88MOL    H7828092   4.331   3.734   3.418 -1.1214  0.2519 -0.1772
   88MOL    H7928093   4.365   3.903   3.399 -0.7532  0.8601  0.9070
   88MOL    H8028094   4.531   3.612   3.375 -0.0105  0.5416 -0.2261
   88MOL    H8128095   4.769   3.558   3.418 -2.3931 -1.0594  0.9428
   88MOL    C8228096   4.301   3.844   3.597  0.0194 -0.3242 -0.0932
   88MOL    C8328097   4.150   3.872   3.563 -0.4951  0.0626 -1.0740
   88MOL    C8428098   4.066   3.775   3.513  0.6221 -0.8633 -0.0251
   88MOL    C8528099   3.935   3.804   3.469  0.4827 -0.9922 -0.6370
   88MOL    C8628100   3.884   3.931   3.488  0.5232  0.0055 -0.2279
   88MOL    C8728101   3.737   3.961   3.450 -0.3042  0.2571 -0.4501
   88MOL    C8828102   3.969   4.037   3.535 -0.3854  0.1424 -1.3196
   88MOL    C8928103   4.099   4.008   3.576 -0.1993 -0.5824  0.2885
   88MOL    H9028104   4.333   3.927   3.661  0.6723 -0.8604  0.2866
   88MOL    H9128105   4.279   3.755   3.656  1.5812 -2.5161 -2.7310
   88MOL    H9228106   4.093   3.671   3.506 -0.2135 -0.9748 -1.7353
   88MOL    H9328107   3.885   3.718   3.426  1.9555 -1.4801 -1.4032
   88MOL    H9428108   3.693   3.877   3.396 -0.3528  1.4133 -2.2726
   88MOL    H9528109   3.734   4.039   3.373 -1.1313  1.0463  0.3613
   88MOL    H9628110   3.922   4.134   3.536 -3.0308 -1.0754 -1.7586
   88MOL    H9728111   4.154   4.091   3.618  0.1759  0.0048 -1.2925
   88MOL    C9828112   3.661   4.008   3.577 -0.0624 -0.2126 -0.0654
   88MOL    C9928113   3.517   4.022   3.547 -0.1223  0.0747 -0.6453
   88MOL   C10028114   3.449   3.915   3.493 -0.0504 -1.0684  0.8153
   88MOL   C10128115   3.309   3.932   3.468 -1.0551 -0.1996 -0.4201
   88MOL   C10228116   3.244   4.049   3.509  0.8250 -0.0786 -0.0939
   88MOL   C10328117   3.095   4.062   3.499 -0.5637 -0.0937 -0.0653
   88MOL   C10428118   3.318   4.159   3.559  0.3306 -0.0177 -0.0854
   88MOL   C10528119   3.452   4.144   3.590  0.4280  0.0998  0.5040
   88MOL   H10628120   3.712   4.102   3.600 -2.0367  0.9360 -0.3034
   88MOL   H10728121   3.671   3.936   3.658 -0.3017  0.1790  0.3165
   88MOL   H10828122   3.496   3.821   3.468  1.9586  0.0412  0.2776
   88MOL   H10928123   3.259   3.848   3.423 -2.1416 -0.2827  0.9059
   88MOL   H11028124   3.066   3.963   3.463 -0.6991 -0.4272  0.9422
   88MOL   H11128125   3.045   4.073   3.596 -0.4886 -0.1009 -0.0258
   88MOL   H11228126   3.274   4.250   3.596  2.1391  0.6954  0.3575
   88MOL   H11328127   3.514   4.224   3.627  2.1884  0.1941 -2.4160
   88MOL   C11428128   3.055   4.172   3.401 -0.1264  0.0799  0.6711
   88MOL   C11528129   2.907   4.170   3.368  0.1334 -0.1453 -0.4473
   88MOL   C11628130   2.865   4.079   3.274 -0.6298  0.1512 -0.1099
   88MOL   C11728131   2.727   4.088   3.247  0.0646 -0.0934 -0.3589
   88MOL   C11828132   2.635   4.176   3.313  0.0210 -0.4228  0.0078
   88MOL   C11928133   2.486   4.178   3.279  0.3334  0.6232 -0.2501
   88MOL   C12028134   2.691   4.266   3.404  0.2397  0.1349  0.0682
   88MOL   C12128135   2.828   4.264   3.440  0.1931  0.1592  0.7588
   88MOL   H12228136   3.106   4.156   3.306 -0.1911  0.5054  0.5668
   88MOL   H12328137   3.071   4.275   3.433 -1.3213  0.3139  0.5288
   88MOL   H12428138   2.940   4.023   3.220 -1.0872 -1.5028  0.9299
   88MOL   H12528139   2.686   4.013   3.181  0.1779  0.3992 -0.9974
   88MOL   H12628140   2.461   4.090   3.218 -1.0873  1.1555 -0.4383
   88MOL   H12728141   2.433   4.176   3.374  1.5586  1.0718  0.4582
   88MOL   H12828142   2.631   4.351   3.432 -0.5377  0.0919 -1.4146
   88MOL   H12928143   2.869   4.341   3.504 -0.3993  2.0419 -1.0773
   88MOL   C13028144   2.448   4.311   3.213  0.5575 -0.2467 -0.0084
   88MOL   C13128145   2.294   4.318   3.201 -0.4043 -0.2256  0.0983
   88MOL   C13228146   2.227   4.389   3.298 -0.7901  0.5035  0.1171
   88MOL   C13328147   2.086   4.402   3.284  0.8943  0.0418  0.4096
   88MOL   C13428148   2.017   4.336   3.181  0.7470 -1.0920  0.3731
   88MOL   C13528149   1.862   4.329   3.191 -0.1932 -0.2834 -0.0061
   88MOL   C13628150   2.086   4.262   3.082  0.6951 -0.7553  0.3952
   88MOL   C13728151   2.224   4.260   3.090  0.0038 -0.4542 -0.2903
   88MOL   H13828152   2.496   4.324   3.117 -0.1999 -0.7099 -0.4571
   88MOL   H13928153   2.486   4.385   3.284 -0.8564  2.8010 -2.3113
   88MOL   H14028154   2.276   4.439   3.380  0.8611  2.4696 -1.9888
   88MOL   H14128155   2.025   4.444   3.363 -1.1806  0.9207 -1.6387
   88MOL   H14228156   1.815   4.252   3.129  1.3553 -1.1312 -0.1561
   88MOL   H14328157   1.837   4.312   3.296 -0.7042  1.7605  0.2256
   88MOL   H14428158   2.027   4.203   3.013 -0.2233 -2.2293  2.3879
   88MOL   H14528159   2.277   4.207   3.013  2.5989  0.5249  0.7755
   88MOL   C14628160   1.794   4.464   3.159 -0.2611  0.7980  0.5711
   88MOL   C14728161   1.646   4.479   3.188 -0.0848  0.2300 -0.1580
   88MOL   C14828162   1.560   4.409   3.103 -0.2371 -0.4150 -0.3572
   88MOL   C14928163   1.420   4.431   3.099  0.4215  0.5830 -0.0036
   88MOL   C15028164   1.366   4.516   3.197 -0.0597 -0.1856  1.2076
   88MOL   C15128165   1.213   4.527   3.203 -0.1888  0.4171  0.1236
   88MOL   C15228166   1.449   4.589   3.289  0.1278 -0.6986  0.1313
   88MOL   C15328167   1.589   4.574   3.276  0.0168  0.6589 -0.0610
   88MOL   H15428168   1.814   4.485   3.054 -0.4525 -1.5751  0.0441
   88MOL   H15528169   1.845   4.539   3.220  0.9234 -1.0338  1.8871
   88MOL   H15628170   1.592   4.345   3.022 -0.7475 -0.3089 -0.6464
   88MOL   H15728171   1.362   4.384   3.021 -0.5892 -0.3216  1.2703
   88MOL   H15828172   1.159   4.444   3.156  1.9001 -0.3613 -0.9476
   88MOL   H15928173   1.175   4.505   3.302 -1.2432  3.4143  0.4398
   88MOL   H16028174   1.407   4.663   3.355 -0.4118  0.3804 -1.3808
   88MOL   H16128175   1.646   4.638   3.342  1.7453  0.5288 -1.4024
   88MOL   C16228176   1.177   4.668   3.179 -0.3240 -0.1387 -0.4674
   88MOL   C16328177   1.028   4.688   3.183  0.1458 -0.3222 -0.5996
   88MOL   C16428178   0.956   4.663   3.064  0.7453 -0.7989 -0.5745
   88MOL   C16528179   0.822   4.704   3.055  0.9412 -0.2528 -0.2619
   88MOL   C16628180   0.751   4.746   3.167  0.6333  0.4441  0.2759
   88MOL   C16728181   0.604   4.777   3.143  0.7252  0.4836  0.2450
   88MOL   C16828182   0.817   4.752   3.293 -0.0524 -0.3668  0.2090
   88MOL   C16928183   0.958   4.740   3.296  0.2964  0.2585  0.5847
   88MOL   H17028184   1.224   4.699   3.086 -0.8834  1.3064 -0.2677
   88MOL   H17128185   1.225   4.725   3.258 -0.5220 -1.9817  1.0370
   88MOL   H17228186   0.996   4.641   2.966  3.1462  1.3760 -0.1302
   88MOL   H17328187   0.779   4.696   2.956  2.7075  0.4306 -1.1170
   88MOL   H17428188   0.580   4.875   3.185 -0.9873  0.5711 -0.8701
   88MOL   H17528189   0.582   4.791   3.037  0.3517  0.7723  0.3576
   88MOL   H17628190   0.774   4.776   3.389  1.0846  0.8695  0.4351
   88MOL   H17728191   0.994   4.747   3.398  1.0095  0.0473  0.3474
   88MOL   C17828192   0.500   4.678   3.204  0.2517 -0.3557  0.3563
   88MOL   C17928193   0.360   4.734   3.182  0.6864 -0.3064 -0.0100
   88MOL   C18028194   0.296   4.724   3.056 -0.3524 -0.2026  0.8063
   88MOL   C18128195   0.159   4.757   3.050  0.4974 -0.7306 -0.1296
   88MOL   C18228196   0.084   4.791   3.164  0.1706  0.4106  0.0147
   88MOL   C18328197  -0.067   4.825   3.171  0.0866  0.0449 -0.1676
   88MOL   C18428198   0.142   4.782   3.288 -0.2507 -0.5350  0.1161
   88MOL   C18528199   0.284   4.763   3.299  1.0386 -0.3789 -0.1519
   88MOL   H18628200   0.519   4.680   3.311 -0.0570  1.5094  0.3993
   88MOL   H18728201   0.505   4.577   3.163 -0.5773 -0.3609  0.2736
   88MOL   H18828202   0.346   4.678   2.972 -2.3589  0.1814 -0.6465
   88MOL   H18928203   0.104   4.760   2.957 -1.5771 -4.0395  0.9083
   88MOL   H19028204  -0.089   4.891   3.255 -1.9688  0.8572 -1.2878
   88MOL   H19128205  -0.097   4.877   3.080 -0.4336  0.2648  0.1289
   88MOL   H19228206   0.082   4.801   3.375 -1.4929  0.9825 -1.0392
   88MOL   H19328207   0.334   4.750   3.394  1.4413  2.2183  0.0189
   88MOL   C19428208  -0.154   4.705   3.185 -0.1100  1.0609 -0.2600
   88MOL   C19528209  -0.301   4.727   3.166  0.4699  0.5836  0.1670
   88MOL   C19628210  -0.368   4.809   3.259 -0.1826 -0.0454 -0.2421
   88MOL   C19728211  -0.504   4.841   3.243  0.4093 -0.0738 -0.4143
   88MOL   C19828212  -0.575   4.790   3.134 -0.5392  0.1510  0.4911
   88MOL   C19928213  -0.720   4.824   3.114 -0.2719  0.8281 -0.0820
   88MOL   C20028214  -0.506   4.705   3.038 -0.1236  0.6616 -0.4124
   88MOL   C20128215  -0.369   4.670   3.062 -0.6159  0.0952  0.5201
   88MOL   H20228216  -0.132   4.651   3.278  0.4063  1.7489  0.0183
   88MOL   H20328217  -0.116   4.633   3.113 -2.7955 -0.9757  0.2773
   88MOL   H20428218  -0.317   4.848   3.346 -1.9757  1.5969  0.1041
   88MOL   H20528219  -0.551   4.909   3.312 -0.1086  1.0374 -1.8361
   88MOL   H20628220  -0.765   4.758   3.040 -0.8462  2.6521 -1.4103
   88MOL   H20728221  -0.763   4.806   3.213  0.0878 -0.0997 -0.0928
   88MOL   H20828222  -0.565   4.653   2.964  0.5897 -1.3308  0.4018
   88MOL   H20928223  -0.316   4.604   2.995 -0.4752 -0.1551  0.8726
   88MOL   C21028224  -0.747   4.969   3.075  0.5578 -0.3194 -0.3455
   88MOL   C21128225  -0.895   4.995   3.052  0.1689 -0.2192  0.3208
   88MOL   C21228226  -0.994   4.984   3.152  0.1029  0.2865 -0.8528
   88MOL   C21328227  -1.131   5.002   3.126 -0.1756  0.0438  1.1455
   88MOL   C21428228  -1.172   5.041   2.996  0.0640  0.0046  0.4370
   88MOL   C21528229  -1.316   5.057   2.963  0.8159 -0.1589 -0.3048
   88MOL   C21628230  -1.069   5.060   2.894 -0.3816  0.5243  0.4307
   88MOL   C21728231  -0.936   5.033   2.924 -0.5289 -0.5732  0.6667
   88MOL   H21828232  -0.696   4.973   2.978  0.4623  0.9607 -0.3514
   88MOL   H21928233  -0.697   5.036   3.145  2.8999 -2.2454 -0.1012
   88MOL   H22028234  -0.963   4.949   3.249 -3.6087  0.8442  0.6017
   88MOL   H22128235  -1.202   4.978   3.204 -2.8574 -0.0549 -1.2687
   88MOL   H22228236  -1.327   5.034   2.857  0.7092 -1.8893  0.0651
   88MOL   H22328237  -1.377   4.990   3.023  0.4796  0.6238  0.2263
   88MOL   H22428238  -1.086   5.086   2.791  1.6506  1.2975  0.2618
   88MOL   H22528239  -0.874   5.046   2.837 -1.7911 -3.8798 -0.8162
   88MOL   C22628240  -1.366   5.199   2.994 -0.1199  0.3768 -0.0507
   88MOL   C22728241  -1.508   5.214   2.941 -0.3864 -0.6135  0.6258
   88MOL   C22828242  -1.540   5.305   2.839  0.1400  0.0156 -0.2237
   88MOL   C22928243  -1.673   5.321   2.793  0.9042  0.3655 -0.2080
   88MOL   C23028244  -1.775   5.242   2.844  1.2841 -0.4693 -0.0529
   88MOL   C23128245  -1.925   5.252   2.791  0.4229  0.3765 -0.5591
   88MOL   C23228246  -1.745   5.145   2.944 -0.2012 -0.0827  0.3628
   88MOL   C23328247  -1.612   5.139   2.995  0.4567  0.1487  1.0884
   88MOL   H23428248  -1.299   5.270   2.944 -1.4107  1.1651 -0.6878
   88MOL   H23528249  -1.365   5.225   3.100 -1.4199  0.7921 -0.1302
   88MOL   H23628250  -1.464   5.370   2.799  0.0772  1.7372  2.3528
   88MOL   H23728251  -1.686   5.393   2.713  0.2690  0.5947  0.0891
   88MOL   H23828252  -1.923   5.270   2.684 -1.5794 -0.1302 -0.7081
   88MOL   H23928253  -1.979   5.158   2.808  3.0184 -0.7235  2.1523
   88MOL   H24028254  -1.822   5.082   2.985 -1.1019  0.7624 -0.0276
   88MOL   H24128255  -1.582   5.070   3.073 -0.8360 -1.7912 -0.0796
   88MOL   C24228256  -2.010   5.359   2.853 -0.5200 -0.2330  0.4811
   88MOL   C24328257  -2.155   5.381   2.802 -0.3812 -0.1499  0.4402
   88MOL   C24428258  -2.254   5.282   2.828  0.0435 -0.0787  0.0064
   88MOL   C24528259  -2.382   5.305   2.773 -0.0046  0.0620 -0.2507
   88MOL   C24628260  -2.421   5.421   2.706 -0.2726 -0.6620  0.0047
   88MOL   C24728261  -2.552   5.446   2.646  0.2345 -0.7253 -0.2976
   88MOL   C24828262  -2.322   5.517   2.696 -0.9679  0.0626  0.2190
   88MOL   C24928263  -2.188   5.497   2.739  0.7783  0.3372  0.3824
   88MOL   H25028264  -2.009   5.335   2.959 -0.1949 -0.9838  0.3105
   88MOL   H25128265  -1.959   5.452   2.827 -1.7024  0.7306  1.5343
   88MOL   H25228266  -2.215   5.196   2.880  1.5827  1.6885  1.8623
   88MOL   H25328267  -2.451   5.225   2.795 -0.2998  0.4402  0.2039
   88MOL   H25428268  -2.523   5.511   2.564  0.5543 -1.7576 -1.0100
   88MOL   H25528269  -2.594   5.359   2.596 -0.4833  0.3296 -1.5577
   88MOL   H25628270  -2.344   5.610   2.646 -0.1637  0.3956  0.4792
   88MOL   H25728271  -2.119   5.579   2.727  1.5986 -0.2027  1.3079
   88MOL   C25828272  -2.648   5.507   2.747  0.0925  0.1221 -0.3897
   88MOL   C25928273  -2.779   5.559   2.684  0.2566 -0.1749  0.0390
   88MOL   C26028274  -2.883   5.471   2.651  0.1100  0.1397  0.3845
   88MOL   C26128275  -3.008   5.525   2.614 -0.2999 -0.1092  0.7740
   88MOL   C26228276  -3.033   5.664   2.597  0.0193 -0.1666  0.8973
   88MOL   C26328277  -3.173   5.705   2.569  0.2730  0.3029 -1.4269
   88MOL   C26428278  -2.927   5.754   2.627  0.9545  0.4162  0.5381
   88MOL   C26528279  -2.807   5.702   2.681  0.7025 -0.0808 -0.7634
   88MOL   H26628280  -2.602   5.579   2.815  2.9972 -0.9104 -1.1868
   88MOL   H26728281  -2.673   5.422   2.809  1.4886 -0.2178 -0.2777
   88MOL   H26828282  -2.870   5.364   2.662 -0.6536  0.1186  1.1932
   88MOL   H26928283  -3.092   5.462   2.589 -0.9112  0.5356  1.1790
   88MOL   H27028284  -3.188   5.806   2.530 -0.0910  1.0741  0.6536
   88MOL   H27128285  -3.210   5.631   2.499 -0.0942 -1.2765  0.3827
   88MOL   H27228286  -2.945   5.861   2.629 -1.1092  0.1724 -1.9978
   88MOL   H27328287  -2.725   5.769   2.699  0.1969  0.4564 -0.4526
   88MOL   C27428288  -3.256   5.710   2.705  0.4310  0.1787 -0.1091
   88MOL   C27528289  -3.392   5.743   2.684  0.0210 -0.2269 -0.4634
   88MOL   C27628290  -3.495   5.649   2.658  0.6315  0.2456  0.4226
   88MOL   C27728291  -3.625   5.700   2.605 -0.1669 -0.3071 -0.0083
   88MOL   C27828292  -3.646   5.836   2.590  0.0358  0.8019 -0.4898
   88MOL   C27928293  -3.775   5.885   2.535  0.0073  0.2083  0.0152
   88MOL   C28028294  -3.543   5.927   2.614 -0.7688  0.0630  0.1094
   88MOL   C28128295  -3.420   5.883   2.666 -0.2968  0.5331  0.6403
   88MOL   H28228296  -3.267   5.618   2.763 -0.1466 -0.5629 -1.3793
   88MOL   H28328297  -3.208   5.784   2.769 -0.8041  1.6650 -0.8720
   88MOL   H28428298  -3.474   5.543   2.663 -0.1289  0.1733  2.7498
   88MOL   H28528299  -3.696   5.627   2.570  1.1583 -0.9862 -1.3629
   88MOL   H28628300  -3.750   5.960   2.460 -0.4626 -0.6159 -0.9792
   88MOL   H28728301  -3.825   5.802   2.485 -0.2506  0.4852 -0.1829
   88MOL   H28828302  -3.559   6.032   2.596 -0.3540 -0.2891 -2.3981
   88MOL   H28928303  -3.337   5.950   2.685  0.2235  0.3098 -0.7535
   88MOL   C29028304  -3.865   5.938   2.654  0.0149 -0.4407  0.0279
   88MOL   C29128305  -3.998   6.000   2.613  0.3234 -0.0352 -0.5301
   88MOL   C29228306  -4.115   5.923   2.643  0.2413  0.4382  0.3583
   88MOL   C29328307  -4.242   5.977   2.602  0.1321  1.3232 -0.4070
   88MOL   C29428308  -4.257   6.111   2.558 -1.1746  0.2440 -0.0742
   88MOL   C29528309  -4.393   6.167   2.523  0.1512  0.5729  0.7212
   88MOL   C29628310  -4.140   6.186   2.530 -0.6578  0.2314  0.1211
   88MOL   C29728311  -4.014   6.130   2.558  0.7343 -0.2706  0.5924
   88MOL   H29828312  -3.816   6.020   2.705  1.4167 -0.8097 -0.7104
   88MOL   H29928313  -3.878   5.849   2.717  1.1183 -0.2927  0.4776
   88MOL   H30028314  -4.102   5.821   2.676  0.1966  0.6560  1.0465
   88MOL   H30128315  -4.330   5.917   2.620 -0.1203  1.7533 -0.2116
   88MOL   H30228316  -4.374   6.271   2.497 -0.9868  0.5580 -0.1794
   88MOL   H30328317  -4.431   6.115   2.435  3.8543 -1.7695  0.3614
   88MOL   H30428318  -4.148   6.287   2.491  2.1923  0.6272  0.4461
   88MOL   H30528319  -3.929   6.196   2.546  0.4549  0.1705  1.0081
   88MOL   C30628320  -4.503   6.153   2.638  0.1203 -0.5603  0.2560
   88MOL   C30728321  -4.634   6.209   2.594 -0.7864  0.3849  0.2506
   88MOL   C30828322  -4.749   6.132   2.604 -0.8072 -0.3690 -1.2242
   88MOL   C30928323  -4.874   6.171   2.550 -0.6644 -0.0967 -0.6150
   88MOL   C31028324  -4.884   6.294   2.484  0.1331  0.2436  0.7635
   88MOL   C31128325  -5.019   6.338   2.417 -0.4147 -0.2203 -0.9858
   88MOL   C31228326  -4.768   6.370   2.471 -0.0741 -0.2679  0.0264
   88MOL   C31328327  -4.644   6.336   2.537  0.5323 -0.3243  0.2248
   88MOL   H31428328  -4.468   6.200   2.730 -0.6448 -0.7882  0.6681
   88MOL   H31528329  -4.514   6.046   2.654 -0.1563 -0.2854  2.1048
   88MOL   H31628330  -4.741   6.035   2.652 -2.8576 -0.5246 -1.1622
   88MOL   H31728331  -4.963   6.109   2.549 -0.7649  0.0401 -0.0917
   88MOL   H31828332  -5.008   6.305   2.313 -0.5043 -2.1710 -0.3928
   88MOL   H31928333  -5.107   6.289   2.458 -0.1408  0.0886 -0.0255
   88MOL   H32028334  -4.767   6.458   2.408 -1.9219 -0.9548 -0.9811
   88MOL   H32128335  -4.555   6.396   2.527 -0.1930  0.5009 -1.4977
   88MOL   H32228336  -5.030   6.446   2.416  0.5877 -0.0928  0.5570
   89MOL     C128337   7.250   6.134   4.245 -0.2484  0.5425 -0.2991
   89MOL     C228338   7.394   6.161   4.281 -0.2190  0.5908  0.1427
   89MOL     C328339   7.484   6.053   4.263  1.2216 -0.2823 -0.7306
   89MOL     C428340   7.618   6.074   4.294 -0.7193 -0.1303  0.1246
   89MOL     C528341   7.665   6.199   4.337  0.4803  0.5680  0.3504
   89MOL     C628342   7.816   6.232   4.360 -0.0914 -0.2730 -0.0722
   89MOL     C728343   7.574   6.306   4.356 -0.3650  0.0570  0.7503
   89MOL     C828344   7.436   6.287   4.332 -0.1763 -0.0372 -0.7898
   89MOL     H928345   7.240   6.115   4.138  1.4612 -1.3550 -0.1680
   89MOL    H1028346   7.220   6.033   4.275  2.6453 -0.8496 -1.8446
   89MOL    H1128347   7.455   5.955   4.228 -1.0242  0.3609 -0.7565
   89MOL    H1228348   7.690   5.995   4.280  0.0254  0.0727  2.6693
   89MOL    H1328349   7.834   6.334   4.394  0.7905  0.5411 -2.9168
   89MOL    H1428350   7.848   6.167   4.442 -0.9447  0.0878  0.5593
   89MOL    H1528351   7.606   6.405   4.383 -0.0324 -0.5150  2.5794
   89MOL    H1628352   7.365   6.368   4.336 -0.8544 -0.5619 -1.8819
   89MOL    H1728353   7.180   6.212   4.276  0.0812  0.4856  0.6104
   89MOL    C1828354   7.892   6.208   4.232 -0.7299  0.0997 -0.3163
   89MOL    C1928355   8.044   6.239   4.248 -0.4811 -0.2337 -0.5104
   89MOL    C2028356   8.138   6.136   4.252 -0.3851  0.7475  0.2394
   89MOL    C2128357   8.273   6.162   4.256  0.7192  0.1833  0.2699
   89MOL    C2228358   8.323   6.291   4.256  0.0702 -0.7207 -0.3829
   89MOL    C2328359   8.469   6.321   4.270  0.0602 -0.4372 -0.7780
   89MOL    C2428360   8.229   6.400   4.244  0.4312  0.5307 -0.0166
   89MOL    C2528361   8.090   6.371   4.242 -0.1829 -0.4058  0.4597
   89MOL    H2628362   7.882   6.105   4.198 -1.0711 -0.0510  0.2376
   89MOL    H2728363   7.854   6.273   4.153 -2.2096 -0.2320  0.1121
   89MOL    H2828364   8.114   6.031   4.259 -0.5173  0.7994  0.5842
   89MOL    H2928365   8.347   6.084   4.263 -0.6364 -1.0918  0.6818
   89MOL    H3028366   8.522   6.273   4.352 -0.1815  0.4187 -0.1063
   89MOL    H3128367   8.485   6.428   4.286 -1.0585 -0.2015 -1.2205
   89MOL    H3228368   8.267   6.500   4.234  1.4286  0.1492 -0.0323
   89MOL    H3328369   8.012   6.443   4.225  1.3022  0.6030 -2.5067
   89MOL    C3428370   8.549   6.283   4.142 -0.4075 -0.1126 -0.6372
   89MOL    C3528371   8.695   6.293   4.166  0.3731 -0.1121  0.0318
   89MOL    C3628372   8.775   6.375   4.080  0.7338  0.4441  0.9403
   89MOL    C3728373   8.916   6.377   4.084  0.2013  0.1923 -0.4944
   89MOL    C3828374   8.979   6.288   4.172  0.3244 -0.5070 -0.4554
   89MOL    C3928375   9.128   6.289   4.188  0.3824 -0.2100 -0.0668
   89MOL    C4028376   8.903   6.211   4.257  0.0454 -0.1290 -0.7886
   89MOL    C4128377   8.764   6.204   4.253  0.0630 -1.0367 -0.7761
   89MOL    H4228378   8.508   6.351   4.068  0.6872  1.1482 -0.1108
   89MOL    H4328379   8.535   6.181   4.106  0.8983 -0.4970 -0.0719
   89MOL    H4428380   8.714   6.441   4.020  0.6012 -0.1221  0.4436
   89MOL    H4528381   8.971   6.444   4.019 -3.0705  3.5013 -0.0523
   89MOL    H4628382   9.160   6.390   4.216 -0.2871  0.1570 -0.6060
   89MOL    H4728383   9.156   6.217   4.264 -0.2820 -1.1493 -0.7017
   89MOL    H4828384   8.963   6.155   4.328  1.5627  1.9737 -0.3681
   89MOL    H4928385   8.710   6.141   4.323 -0.0949 -0.4485 -0.3625
   89MOL    C5028386   9.199   6.234   4.060 -0.1672 -0.7402  0.0918
   89MOL    C5128387   9.344   6.224   4.081 -0.0446  0.7072 -0.8847
   89MOL    C5228388   9.425   6.333   4.041 -0.4015  0.8480 -0.8434
   89MOL    C5328389   9.563   6.333   4.049  0.7420 -0.2400 -0.6915
   89MOL    C5428390   9.632   6.221   4.098 -0.2785  0.0169 -0.8553
   89MOL    C5528391   9.782   6.224   4.110 -0.0435  0.0730 -0.1810
   89MOL    C5628392   9.553   6.111   4.137 -0.1214  0.1917 -0.1090
   89MOL    C5728393   9.410   6.108   4.128  0.1690 -0.2532  0.0384
   89MOL    H5828394   9.189   6.298   3.972  1.7808 -1.2348 -0.5035
   89MOL    H5928395   9.156   6.136   4.044 -1.3606 -0.3894  1.0308
   89MOL    H6028396   9.384   6.422   3.995 -0.9656  1.2109  0.3396
   89MOL    H6128397   9.621   6.419   4.020 -2.4801  1.4964 -2.2451
   89MOL    H6228398   9.823   6.136   4.062 -1.3858 -1.0345  0.6793
   89MOL    H6328399   9.819   6.304   4.045 -1.1666  1.1464  0.4718
   89MOL    H6428400   9.608   6.026   4.174 -0.3046 -0.1228 -0.5497
   89MOL    H6528401   9.357   6.015   4.141  0.3795 -0.3891 -0.0765
   89MOL    C6628402   9.841   6.247   4.256  0.7460  0.2078  0.4992
   89MOL    C6728403   9.990   6.273   4.262  0.0165 -0.2638 -0.3524
   89MOL    C6828404  10.037   6.406   4.285  0.2722  0.2811  0.0080
   89MOL    C6928405  10.172   6.433   4.284 -0.3157  0.2558 -0.7976
   89MOL    C7028406  10.268   6.332   4.266  0.0574 -0.2013  0.0583
   89MOL    C7128407  10.416   6.368   4.265  0.4429 -0.2497  0.3426
   89MOL    C7228408  10.221   6.200   4.244 -0.1626  0.7131  0.1332
   89MOL    C7328409  10.083   6.169   4.243 -0.8163 -0.0288  0.0969
   89MOL    H7428410   9.811   6.162   4.318  0.3713  0.9238  1.3109
   89MOL    H7528411   9.795   6.335   4.299 -1.4927 -0.6737 -0.0225
   89MOL    H7628412   9.982   6.492   4.321  0.2788  0.2321  0.1337
   89MOL    H7728413  10.201   6.536   4.299  1.0304 -0.2848  0.4758
   89MOL    H7828414  10.466   6.306   4.339  0.5347 -0.5786  0.0021
   89MOL    H7928415  10.440   6.468   4.302 -0.1752 -0.3542  1.0438
   89MOL    H8028416  10.292   6.122   4.222 -1.7748 -0.5682 -0.5964
   89MOL    H8128417  10.047   6.072   4.214  2.0828 -0.4987 -2.2335
   89MOL    C8228418  10.479   6.343   4.123 -0.1025 -0.3230  0.1710
   89MOL    C8328419  10.620   6.404   4.104 -0.3294  0.0605 -0.3346
   89MOL    C8428420  10.637   6.540   4.069 -0.2475  0.1049  0.0340
   89MOL    C8528421  10.772   6.585   4.056  0.2007 -0.2450 -0.4363
   89MOL    C8628422  10.888   6.505   4.070  0.3706 -0.4350  0.6178
   89MOL    C8728423  11.021   6.559   4.056  0.0830  0.1686 -0.5328
   89MOL    C8828424  10.865   6.374   4.116 -0.0547 -0.2608  0.2541
   89MOL    C8928425  10.734   6.320   4.128  0.2731 -0.4586 -0.5682
   89MOL    H9028426  10.415   6.386   4.045  0.2938  0.0748  0.0569
   89MOL    H9128427  10.487   6.239   4.091 -2.2201 -0.1872 -0.8865
   89MOL    H9228428  10.550   6.603   4.061 -1.5180 -1.7267 -1.0396
   89MOL    H9328429  10.772   6.693   4.043  1.6166 -0.3927 -1.8240
   89MOL    H9428430  11.019   6.634   3.977 -0.2458  1.2041  0.4469
   89MOL    H9528431  11.091   6.482   4.024  1.2024  0.7832  0.3872
   89MOL    H9628432  10.954   6.317   4.139  1.4058  3.0071  3.1994
   89MOL    H9728433  10.729   6.216   4.157 -0.1066 -0.1391  0.5537
   89MOL    C9828434  11.069   6.617   4.188  0.2827  0.6762 -0.0614
   89MOL    C9928435  10.968   6.712   4.254 -1.0667  0.3967 -0.5747
   89MOL   C10028436  10.892   6.667   4.366 -0.1616  0.3534 -0.3973
   89MOL   C10128437  10.780   6.742   4.413  0.0112  0.0275 -0.3852
   89MOL   C10228438  10.747   6.861   4.353 -0.5226  0.3011 -0.3293
   89MOL   C10328439  10.627   6.941   4.407  0.2853 -0.1207 -0.3447
   89MOL   C10428440  10.826   6.905   4.245  0.5025 -0.4940 -0.3825
   89MOL   C10528441  10.932   6.829   4.191  0.4829  0.4256  0.1645
   89MOL   H10628442  11.155   6.683   4.179  0.8756  0.0683  1.0548
   89MOL   H10728443  11.098   6.534   4.253 -0.4613  1.8913  1.8743
   89MOL   H10828444  10.920   6.572   4.409 -0.3519  0.2873 -0.4225
   89MOL   H10928445  10.717   6.708   4.493  0.5450 -2.8409 -1.1196
   89MOL   H11028446  10.613   6.914   4.512 -1.5154  1.0202 -0.2642
   89MOL   H11128447  10.658   7.046   4.398  0.7046 -0.2333 -0.2329
   89MOL   H11228448  10.813   7.000   4.195 -0.2718  1.1926  2.8840
   89MOL   H11328449  10.985   6.861   4.102  1.5885  0.3091  0.7710
   89MOL   C11428450  10.501   6.902   4.342 -0.1669 -0.1523  0.6837
   89MOL   C11528451  10.388   6.987   4.393  1.1538  1.1464 -0.2944
   89MOL   C11628452  10.340   6.989   4.530 -0.2904 -0.3247 -0.4054
   89MOL   C11728453  10.228   7.064   4.572 -0.3516 -0.4943 -0.7328
   89MOL   C11828454  10.164   7.141   4.480 -0.1185  0.2102 -0.0659
   89MOL   C11928455  10.038   7.218   4.523 -0.7541  0.0226  0.1861
   89MOL   C12028456  10.204   7.143   4.343 -0.7734 -0.5350 -0.2549
   89MOL   C12128457  10.313   7.060   4.299 -0.9578 -0.7353  0.5833
   89MOL   H12228458  10.477   6.800   4.373  0.8248 -0.0362  1.8699
   89MOL   H12328459  10.505   6.911   4.234  0.6546  1.6291  0.8512
   89MOL   H12428460  10.382   6.928   4.609 -0.4712  0.4302  0.2880
   89MOL   H12528461  10.198   7.059   4.676  0.3403 -0.1839 -0.5158
   89MOL   H12628462   9.969   7.226   4.439 -1.8166  0.9184  1.1292
   89MOL   H12728463   9.988   7.169   4.606 -0.8145 -0.9479 -0.4120
   89MOL   H12828464  10.144   7.203   4.276  0.8049 -0.1491 -1.3592
   89MOL   H12928465  10.331   7.052   4.193 -1.3468  0.9968  0.3811
   89MOL   C13028466  10.070   7.358   4.566  0.0444  0.1805  0.3665
   89MOL   C13128467   9.954   7.416   4.644 -0.1838  0.1201  1.0163
   89MOL   C13228468   9.936   7.402   4.780  0.3606  0.1437  0.2010
   89MOL   C13328469   9.817   7.458   4.841  0.1284 -0.4339 -0.3543
   89MOL   C13428470   9.726   7.536   4.766  0.5240  0.9685  0.1811
   89MOL   C13528471   9.596   7.594   4.819  0.9241  0.3958 -0.1332
   89MOL   C13628472   9.747   7.548   4.629 -0.4634  0.5180  0.1354
   89MOL   C13728473   9.859   7.490   4.572 -0.2874 -1.0978 -0.1774
   89MOL   H13828474  10.101   7.419   4.482  0.0617  0.7195  0.7668
   89MOL   H13928475  10.155   7.352   4.633 -0.4244 -2.2755  0.7912
   89MOL   H14028476  10.005   7.346   4.842 -0.2932  0.4487  1.2028
   89MOL   H14128477   9.799   7.448   4.947 -0.2746 -1.8588 -0.5454
   89MOL   H14228478   9.599   7.574   4.926 -1.3864  0.7869  0.0231
   89MOL   H14328479   9.602   7.701   4.801 -0.2978  0.4485 -0.2891
   89MOL   H14428480   9.672   7.604   4.576  0.1754  0.5967 -0.7041
   89MOL   H14528481   9.871   7.486   4.464  1.6095 -1.0923  0.0125
   89MOL   C14628482   9.472   7.536   4.754  0.4035 -0.9541  0.1516
   89MOL   C14728483   9.335   7.609   4.793 -0.5394 -0.1683 -0.1210
   89MOL   C14828484   9.317   7.737   4.739 -0.2277 -0.1323  0.7843
   89MOL   C14928485   9.201   7.807   4.769 -0.1628 -0.1262 -0.0118
   89MOL   C15028486   9.096   7.744   4.840  0.2841  0.2500 -0.0699
   89MOL   C15128487   8.965   7.813   4.880  0.4194  0.2325  0.0018
   89MOL   C15228488   9.112   7.609   4.888  0.2240  0.6531 -0.0945
   89MOL   C15328489   9.228   7.539   4.854  0.3071  0.7076  0.2704
   89MOL   H15428490   9.477   7.431   4.782  0.4495 -0.9335  0.2242
   89MOL   H15528491   9.477   7.551   4.646  1.1330 -2.0717  0.0228
   89MOL   H15628492   9.388   7.770   4.665  0.1039 -0.0600  1.1355
   89MOL   H15728493   9.200   7.907   4.729  1.3927  0.7388  2.0203
   89MOL   H15828494   8.944   7.788   4.984 -1.5789 -1.4251 -0.7411
   89MOL   H15928495   8.993   7.918   4.871  0.5755  0.0643 -1.5521
   89MOL   H16028496   9.038   7.571   4.956  0.7709  0.3716  0.3472
   89MOL   H16128497   9.231   7.435   4.882  2.0066  1.1413  1.7937
   89MOL   C16228498   8.841   7.793   4.791 -0.0106 -0.1045 -0.1213
   89MOL   C16328499   8.705   7.844   4.845  0.9987  0.8220 -0.2830
   89MOL   C16428500   8.649   7.965   4.799  0.5256 -0.3710 -0.2906
   89MOL   C16528501   8.525   8.008   4.846  0.2507  0.1993 -0.5179
   89MOL   C16628502   8.461   7.935   4.943  0.4535 -0.0736  0.7252
   89MOL   C16728503   8.328   7.983   5.001 -0.7842 -0.0323 -0.1751
   89MOL   C16828504   8.517   7.820   4.999 -0.4587 -0.4930  0.2928
   89MOL   C16928505   8.639   7.772   4.945 -0.3585 -0.2300  0.3991
   89MOL   H17028506   8.824   7.686   4.779 -0.6716  0.2484 -2.4734
   89MOL   H17128507   8.857   7.828   4.689  2.6428 -2.1942 -0.4769
   89MOL   H17228508   8.709   8.015   4.725 -0.6925 -0.0031 -1.0427
   89MOL   H17328509   8.466   8.088   4.805  0.4820  0.8669  0.4358
   89MOL   H17428510   8.340   7.983   5.110 -1.3330  1.8734 -0.0827
   89MOL   H17528511   8.308   8.089   4.983  1.3932  0.7133  1.4766
   89MOL   H17628512   8.459   7.771   5.077 -1.4366  1.2735  0.7054
   89MOL   H17728513   8.686   7.679   4.972  0.9111  0.2298 -0.1525
   89MOL   C17828514   8.219   7.896   4.940  0.4779  0.6433  0.1035
   89MOL   C17928515   8.080   7.941   4.985 -0.1719  0.2328  0.9170
   89MOL   C18028516   7.988   7.837   5.018 -0.3900  0.3821  0.5264
   89MOL   C18128517   7.860   7.873   5.057  0.0539 -0.2295  0.5286
   89MOL   C18228518   7.828   8.011   5.060  0.0284 -0.0483 -0.1907
   89MOL   C18328519   7.687   8.049   5.091 -0.6678  0.1355 -0.0019
   89MOL   C18428520   7.922   8.112   5.059  0.1712  0.6938  0.7254
   89MOL   C18528521   8.048   8.074   5.010  0.5250 -0.4405  0.6961
   89MOL   H18628522   8.227   7.799   4.988  2.2364  0.4556 -0.5137
   89MOL   H18728523   8.234   7.891   4.832 -0.7755 -4.7520  0.0568
   89MOL   H18828524   8.012   7.732   5.009  0.2032  0.4851  0.9396
   89MOL   H18928525   7.785   7.796   5.059 -1.4417  1.2059  1.5596
   89MOL   H19028526   7.660   8.008   5.188  2.8409  0.4977  1.2125
   89MOL   H19128527   7.679   8.158   5.101 -0.2413  0.2326 -0.6832
   89MOL   H19228528   7.898   8.217   5.073 -0.3719  0.6782 -0.0152
   89MOL   H19328529   8.122   8.151   4.990  0.6317 -1.2149 -2.1184
   89MOL   C19428530   7.594   7.998   4.983  0.0855 -0.4444  0.1823
   89MOL   C19528531   7.453   8.048   4.996 -0.1931  0.0136 -0.0549
   89MOL   C19628532   7.350   7.969   5.051 -0.3116 -0.2299 -0.1385
   89MOL   C19728533   7.222   8.022   5.064  0.0285 -0.8326  0.0455
   89MOL   C19828534   7.192   8.153   5.026 -0.2931 -0.2057 -0.6506
   89MOL   C19928535   7.060   8.214   5.048 -0.3514  0.5498  0.2143
   89MOL   C20028536   7.293   8.235   4.978 -1.1086  0.2654 -0.2876
   89MOL   C20128537   7.422   8.182   4.953  0.0885  0.2133 -0.4008
   89MOL   H20228538   7.599   7.889   4.983 -0.7440 -0.5433 -3.0901
   89MOL   H20328539   7.626   8.025   4.882  1.4902 -0.4603  0.6061
   89MOL   H20428540   7.368   7.870   5.091  0.2939 -0.4274 -0.8819
   89MOL   H20528541   7.142   7.972   5.117 -1.6972  1.0050 -0.7401
   89MOL   H20628542   6.990   8.141   5.088 -1.2280  0.8720 -0.7149
   89MOL   H20728543   7.082   8.294   5.120  0.1693  1.3406 -0.8053
   89MOL   H20828544   7.272   8.338   4.954 -2.6707 -0.2540 -1.1548
   89MOL   H20928545   7.502   8.246   4.919 -0.6534 -0.5730 -3.8232
   89MOL   C21028546   6.996   8.278   4.927 -0.0369 -0.3190  0.3666
   89MOL   C21128547   6.842   8.298   4.953 -0.6510 -0.5087  0.1538
   89MOL   C21228548   6.751   8.258   4.854  0.7362 -0.2235 -0.3805
   89MOL   C21328549   6.611   8.275   4.877 -0.6145  0.2966  0.0295
   89MOL   C21428550   6.570   8.332   4.996  0.1134  0.6742  0.1799
   89MOL   C21528551   6.419   8.350   5.013 -0.1708 -0.9834  0.0598
   89MOL   C21628552   6.662   8.378   5.098 -0.1272 -0.5274 -0.3118
   89MOL   C21728553   6.801   8.361   5.075 -0.2968 -0.3605 -0.0940
   89MOL   H21828554   7.007   8.210   4.842 -1.7221  0.8916 -0.8749
   89MOL   H21928555   7.047   8.372   4.907 -1.9481  1.0640  1.7539
   89MOL   H22028556   6.783   8.218   4.759 -1.8593 -2.0403 -0.5478
   89MOL   H22128557   6.527   8.254   4.812 -1.7498  2.0898  0.8681
   89MOL   H22228558   6.363   8.289   4.942 -0.0756  0.2947 -1.1297
   89MOL   H22328559   6.390   8.311   5.111 -1.2352 -0.1459  0.0788
   89MOL   H22428560   6.624   8.425   5.188  1.4760 -0.6948  0.4704
   89MOL   H22528561   6.875   8.405   5.139 -0.6967  0.4001 -0.1449
   89MOL   C22628562   6.383   8.494   4.993 -0.1665  0.8658 -0.2468
   89MOL   C22728563   6.237   8.517   5.030 -0.4399  0.4681 -0.1387
   89MOL   C22828564   6.201   8.552   5.157  0.5558  0.0937 -0.6315
   89MOL   C22928565   6.062   8.570   5.187  0.3235  1.0598  0.0406
   89MOL   C23028566   5.965   8.564   5.081 -1.0318  0.0343  0.5792
   89MOL   C23128567   5.817   8.578   5.111 -0.1033  0.0495  0.3370
   89MOL   C23228568   6.005   8.547   4.947  0.0138 -0.1315 -0.1954
   89MOL   C23328569   6.142   8.513   4.925  0.5260 -0.2319 -0.3825
   89MOL   H23428570   6.400   8.524   4.889 -1.1659  1.6764 -0.1829
   89MOL   H23528571   6.447   8.558   5.053  2.7331 -2.0571 -0.0251
   89MOL   H23628572   6.273   8.558   5.238 -1.6863  2.0347  1.3460
   89MOL   H23728573   6.030   8.599   5.286 -0.3363 -0.0159  0.1460
   89MOL   H23828574   5.809   8.671   5.169  0.8470  0.5265 -0.2965
   89MOL   H23928575   5.749   8.584   5.026  1.4519 -2.9252 -1.1684
   89MOL   H24028576   5.932   8.552   4.868 -2.2730 -0.6113  1.8057
   89MOL   H24128577   6.172   8.484   4.826  0.0120  0.0781 -0.6305
   89MOL   C24228578   5.770   8.456   5.196  0.1698 -0.1312  0.0229
   89MOL   C24328579   5.626   8.455   5.222  0.3827  0.5187  0.4905
   89MOL   C24428580   5.581   8.525   5.341  0.1238 -0.7038  0.1383
   89MOL   C24528581   5.447   8.513   5.381  0.6400  0.5605 -0.0400
   89MOL   C24628582   5.355   8.434   5.304  0.4729 -0.2028  0.4550
   89MOL   C24728583   5.207   8.416   5.333 -0.1738 -0.3838  0.9202
   89MOL   C24828584   5.401   8.377   5.189  0.1487  0.2682  0.2202
   89MOL   C24928585   5.533   8.378   5.152 -1.0027  0.3908  0.1664
   89MOL   H25028586   5.799   8.363   5.147  2.9776  0.3077  0.7565
   89MOL   H25128587   5.820   8.438   5.291 -1.3333  0.0526  0.8545
   89MOL   H25228588   5.643   8.589   5.402  1.0368 -0.2508 -1.2467
   89MOL   H25328589   5.416   8.571   5.467  1.0373 -0.7144  0.9853
   89MOL   H25428590   5.161   8.322   5.304 -2.1577 -0.1571  3.0981
   89MOL   H25528591   5.193   8.428   5.441 -2.0029  1.0164  0.5479
   89MOL   H25628592   5.325   8.307   5.159  0.5557 -2.4299  4.9137
   89MOL   H25728593   5.560   8.317   5.067  0.7062  1.8552 -0.3702
   89MOL   C25828594   5.121   8.529   5.271  0.0453 -0.0480 -0.2649
   89MOL   C25928595   4.970   8.513   5.280  0.0178  0.5153  0.2058
   89MOL   C26028596   4.905   8.436   5.380 -0.3904 -0.8619  0.1322
   89MOL   C26128597   4.769   8.437   5.391  0.0864  0.4333  0.0608
   89MOL   C26228598   4.698   8.540   5.321  1.4269  0.0556  0.7589
   89MOL   C26328599   4.550   8.565   5.374 -0.3071 -0.4154 -0.4454
   89MOL   C26428600   4.755   8.606   5.212 -0.0566  0.1460 -0.0916
   89MOL   C26528601   4.893   8.595   5.193  0.8079  0.1140 -0.2557
   89MOL   H26628602   5.141   8.550   5.166 -0.9321  0.4574 -0.3554
   89MOL   H26728603   5.141   8.627   5.315  0.6534  0.9513 -2.6942
   89MOL   H26828604   4.950   8.372   5.455  0.7916  0.5136  0.6207
   89MOL   H26928605   4.716   8.378   5.465 -0.2186  1.4205  0.6479
   89MOL   H27028606   4.493   8.480   5.335  0.1939  0.3148 -2.8380
   89MOL   H27128607   4.555   8.554   5.482  2.0044 -1.4541 -0.6329
   89MOL   H27228608   4.695   8.666   5.146  2.1512  0.5514 -1.7832
   89MOL   H27328609   4.945   8.637   5.108 -1.2501  1.8385 -0.7269
   89MOL   C27428610   4.493   8.697   5.324  0.6586  0.0247 -0.4381
   89MOL   C27528611   4.350   8.720   5.357  0.6485 -0.1504 -0.6206
   89MOL   C27628612   4.291   8.839   5.308  0.5498  0.5038  0.2421
   89MOL   C27728613   4.156   8.862   5.327 -0.6983  0.5153  0.2818
   89MOL   C27828614   4.078   8.769   5.394 -0.1466  0.3432  0.2570
   89MOL   C27928615   3.923   8.792   5.391 -0.0630 -0.4296  0.2486
   89MOL   C28028616   4.135   8.654   5.450 -0.2313  0.1886 -0.4400
   89MOL   C28128617   4.273   8.631   5.435 -0.0574 -0.3014 -0.1529
   89MOL   H28228618   4.542   8.788   5.358 -0.6843  0.2488  0.9630
   89MOL   H28328619   4.498   8.686   5.215  1.4034 -0.1462 -0.3851
   89MOL   H28428620   4.346   8.907   5.246 -1.2435 -1.3444 -3.6059
   89MOL   H28528621   4.106   8.947   5.281  1.5786  0.6268 -2.1219
   89MOL   H28628622   3.902   8.877   5.456 -1.5342 -2.6392  2.7391
   89MOL   H28728623   3.902   8.826   5.289 -0.1006  1.5870  0.8972
   89MOL   H28828624   4.083   8.572   5.496  1.9121 -1.0017 -0.0704
   89MOL   H28928625   4.316   8.538   5.468  0.8441  0.1153 -0.1230
   89MOL   C29028626   3.826   8.675   5.421 -0.6618 -0.5991 -0.4482
   89MOL   C29128627   3.687   8.709   5.360 -0.1482  0.3167  0.5607
   89MOL   C29228628   3.645   8.641   5.246 -0.0081  0.7880  0.2367
   89MOL   C29328629   3.519   8.664   5.194  0.5911 -0.1283 -0.3023
   89MOL   C29428630   3.434   8.760   5.250 -0.1723 -0.3361  0.3284
   89MOL   C29528631   3.292   8.768   5.199 -0.1301 -0.3352 -0.2363
   89MOL   C29628632   3.477   8.838   5.357  0.0940 -0.6168  0.3847
   89MOL   C29728633   3.605   8.807   5.415  0.5808 -0.0626  0.5636
   89MOL   H29828634   3.834   8.655   5.528  0.7547 -2.5689 -0.9021
   89MOL   H29928635   3.861   8.582   5.376  1.7948  0.1365 -0.1418
   89MOL   H30028636   3.711   8.568   5.202 -0.9159 -0.8985  1.6436
   89MOL   H30128637   3.491   8.598   5.113  0.1454  1.4982 -1.5034
   89MOL   H30228638   3.258   8.666   5.179 -0.5021 -0.5658  1.5268
   89MOL   H30328639   3.221   8.811   5.269 -1.1782  0.1684 -1.5780
   89MOL   H30428640   3.415   8.916   5.397  1.7506  0.5794  0.6960
   89MOL   H30528641   3.640   8.873   5.493  0.4086 -1.1444  1.5791
   89MOL   C30628642   3.273   8.841   5.069  0.4681 -0.0988  0.4750
   89MOL   C30728643   3.128   8.833   5.012 -0.0357  0.1230 -0.2593
   89MOL   C30828644   3.013   8.890   5.076  0.2167 -0.6259 -0.7703
   89MOL   C30928645   2.879   8.883   5.021  0.6533  0.8684 -0.0550
   89MOL   C31028646   2.861   8.803   4.907 -0.2284  0.0354 -0.3248
   89MOL   C31128647   2.724   8.789   4.854 -0.1120 -0.0601  0.1655
   89MOL   C31228648   2.976   8.742   4.849  0.3071  0.1573 -0.0310
   89MOL   C31328649   3.105   8.770   4.890 -0.2746 -0.4459 -0.1307
   89MOL   H31428650   3.341   8.800   4.994  0.3264 -1.9404  1.3294
   89MOL   H31528651   3.288   8.949   5.067 -1.6434  0.2053 -0.9067
   89MOL   H31628652   3.022   8.951   5.165 -3.9208 -2.4532  1.0115
   89MOL   H31728653   2.798   8.938   5.065  0.2266  0.1592  0.0465
   89MOL   H31828654   2.655   8.777   4.938 -1.5452  2.2081 -0.6383
   89MOL   H31928655   2.704   8.866   4.780 -0.2482 -0.2645 -0.0118
   89MOL   H32028656   2.953   8.684   4.760  0.5448  2.0087 -1.3414
   89MOL   H32128657   3.185   8.724   4.834  1.5922 -0.5783  2.5915
   89MOL   H32228658   2.706   8.694   4.803  1.2571  0.9926 -2.3945
   90MOL     C128659   0.374   4.749   5.751 -0.0906 -0.7623 -0.2352
   90MOL     C228660   0.234   4.733   5.798 -0.0305  0.4472  0.3796
   90MOL     C328661   0.149   4.639   5.734 -0.3585  0.2063  0.5333
   90MOL     C428662   0.012   4.629   5.764  0.6161 -0.9624 -0.5407
   90MOL     C528663  -0.052   4.718   5.855 -0.7127 -0.3860 -0.3252
   90MOL     C628664  -0.195   4.690   5.892  0.5409  0.0832 -0.4813
   90MOL     C728665   0.039   4.811   5.927 -0.0959 -0.0857  0.3200
   90MOL     C828666   0.180   4.813   5.895  0.6224 -0.2579  0.1046
   90MOL     H928667   0.426   4.654   5.766 -0.5101 -0.7717  1.2696
   90MOL    H1028668   0.363   4.768   5.645 -0.6703 -2.9488 -0.5969
   90MOL    H1128669   0.198   4.586   5.654 -1.2535  2.3840 -1.5447
   90MOL    H1228670  -0.050   4.566   5.703  0.4112  0.0713 -1.4268
   90MOL    H1328671  -0.226   4.603   5.836 -1.5041 -1.1436  2.4294
   90MOL    H1428672  -0.209   4.657   5.995  1.2519 -1.6787 -0.9372
   90MOL    H1528673   0.005   4.873   6.009 -1.0525 -2.0528  1.4499
   90MOL    H1628674   0.241   4.871   5.963  2.2623 -1.6997 -0.0974
   90MOL    H1728675   0.418   4.836   5.801  0.2975 -0.2991 -1.3715
   90MOL    C1828676  -0.281   4.814   5.855  0.4930  0.3704 -0.0909
   90MOL    C1928677  -0.427   4.797   5.894 -0.0699 -0.0821  0.1869
   90MOL    C2028678  -0.506   4.710   5.815 -0.1029 -0.3712  0.3390
   90MOL    C2128679  -0.641   4.682   5.850 -0.6020 -0.0556  0.3156
   90MOL    C2228680  -0.703   4.756   5.953  0.1454 -0.5848  0.0656
   90MOL    C2328681  -0.855   4.737   5.980 -0.0732 -0.8934  0.1823
   90MOL    C2428682  -0.624   4.852   6.027  0.4017 -0.7231  0.0702
   90MOL    C2528683  -0.487   4.869   5.997 -0.5210  0.2913 -0.0918
   90MOL    H2628684  -0.245   4.903   5.907 -1.6185  0.6809  0.9090
   90MOL    H2728685  -0.270   4.829   5.748  1.8342 -1.1615 -0.1793
   90MOL    H2828686  -0.455   4.658   5.735 -2.9419 -2.4079 -0.1895
   90MOL    H2928687  -0.688   4.620   5.775  2.4357 -0.9332 -0.9473
   90MOL    H3028688  -0.872   4.768   6.083 -0.2935  1.6596 -0.5982
   90MOL    H3128689  -0.889   4.634   5.966 -3.4579 -0.0120  1.5167
   90MOL    H3228690  -0.673   4.913   6.101 -0.8095 -1.1772 -0.3576
   90MOL    H3328691  -0.424   4.941   6.046 -0.7318  1.9492 -2.1821
   90MOL    C3428692  -0.936   4.820   5.884 -0.8451  0.6429 -0.6393
   90MOL    C3528693  -1.090   4.809   5.893  0.2403 -0.5472 -0.3219
   90MOL    C3628694  -1.161   4.794   6.011  0.2280  0.7729 -0.0189
   90MOL    C3728695  -1.298   4.788   6.017  0.2547 -0.1536  0.4685
   90MOL    C3828696  -1.372   4.797   5.900  0.3731 -0.5355 -0.1625
   90MOL    C3928697  -1.522   4.786   5.905 -0.1189 -0.5580  0.0377
   90MOL    C4028698  -1.303   4.817   5.779 -0.4307 -0.1929  0.6719
   90MOL    C4128699  -1.162   4.810   5.773  0.2892  0.1277 -0.6876
   90MOL    H4228700  -0.903   4.790   5.784 -1.1515 -1.0387 -0.2599
   90MOL    H4328701  -0.909   4.926   5.881  2.4481 -0.1598 -1.7860
   90MOL    H4428702  -1.107   4.799   6.105  1.1829  2.2911 -0.6330
   90MOL    H4528703  -1.343   4.790   6.115  1.6988  1.8504  1.1113
   90MOL    H4628704  -1.559   4.734   5.993 -0.6646 -1.4072 -0.6757
   90MOL    H4728705  -1.556   4.887   5.927  2.0150  0.2039 -0.0808
   90MOL    H4828706  -1.358   4.838   5.688 -0.1964  0.5749  0.7022
   90MOL    H4928707  -1.106   4.833   5.684  0.0240  0.9450 -0.6445
   90MOL    C5028708  -1.575   4.701   5.794 -0.2172 -0.3285  0.4523
   90MOL    C5128709  -1.729   4.681   5.802 -0.0285  0.1186  0.3047
   90MOL    C5228710  -1.807   4.743   5.706 -0.3462  0.0044  0.1199
   90MOL    C5328711  -1.944   4.714   5.696  0.5808  0.5113 -0.5430
   90MOL    C5428712  -2.010   4.630   5.785 -0.0671  0.3051 -0.1223
   90MOL    C5528713  -2.153   4.587   5.774  0.3534 -0.1297  0.1152
   90MOL    C5628714  -1.928   4.562   5.875 -0.7920  0.0990 -0.4817
   90MOL    C5728715  -1.790   4.577   5.877  0.0648 -0.3024 -0.0725
   90MOL    H5828716  -1.539   4.598   5.792  0.8146  0.0279  0.5737
   90MOL    H5928717  -1.555   4.742   5.695  2.9084  0.8624  1.4949
   90MOL    H6028718  -1.763   4.822   5.647 -0.6601 -2.1535 -3.1119
   90MOL    H6128719  -2.002   4.775   5.628  0.8205  1.1770 -0.1521
   90MOL    H6228720  -2.156   4.507   5.849  1.8863 -1.4607 -1.2077
   90MOL    H6328721  -2.234   4.657   5.793  0.5204 -0.0756  0.6454
   90MOL    H6428722  -1.975   4.489   5.939 -1.4123  1.4417  0.6111
   90MOL    H6528723  -1.720   4.521   5.936 -1.4780 -0.0222  2.0631
   90MOL    C6628724  -2.180   4.531   5.636 -0.7006  0.1434  0.5065
   90MOL    C6728725  -2.319   4.477   5.637  0.2353  0.1954  0.8214
   90MOL    C6828726  -2.343   4.339   5.636 -0.1947 -0.6720 -0.0837
   90MOL    C6928727  -2.475   4.291   5.650  1.4138  0.0093  0.1302
   90MOL    C7028728  -2.589   4.374   5.656 -0.4305 -0.4580 -0.6461
   90MOL    C7128729  -2.725   4.317   5.682  0.0929  0.2250 -0.4784
   90MOL    C7228730  -2.564   4.510   5.634 -0.1869 -0.3889 -0.1572
   90MOL    C7328731  -2.431   4.566   5.625 -0.6291 -0.0539  0.2202
   90MOL    H7428732  -2.108   4.450   5.623  1.5678  1.9977  1.2533
   90MOL    H7528733  -2.181   4.605   5.556  1.5182 -0.5756 -0.2218
   90MOL    H7628734  -2.253   4.279   5.630  2.0954  2.6578 -0.0426
   90MOL    H7728735  -2.500   4.187   5.666 -1.3388  0.4634 -1.0357
   90MOL    H7828736  -2.746   4.307   5.789 -0.7325 -0.9448 -0.7349
   90MOL    H7928737  -2.733   4.218   5.638  0.7120 -0.3465  0.6779
   90MOL    H8028738  -2.642   4.585   5.627  0.1900 -0.0588 -0.8875
   90MOL    H8128739  -2.423   4.674   5.615  1.3870 -0.4839 -3.5751
   90MOL    C8228740  -2.839   4.410   5.638 -0.3159  0.8248 -0.1275
   90MOL    C8328741  -2.973   4.357   5.662  0.0890 -0.6330 -0.3134
   90MOL    C8428742  -3.072   4.437   5.714  1.0232 -0.3088 -0.3122
   90MOL    C8528743  -3.213   4.393   5.726 -0.5941 -0.1875  0.5385
   90MOL    C8628744  -3.243   4.257   5.692  0.3403  0.2847  0.1588
   90MOL    C8728745  -3.377   4.192   5.712  0.0627  0.1428  0.6616
   90MOL    C8828746  -3.148   4.176   5.632  0.1059  0.6643 -0.0270
   90MOL    C8928747  -3.010   4.222   5.623  0.0794  0.0662  0.5942
   90MOL    H9028748  -2.822   4.446   5.537  0.4076 -0.5595 -0.5080
   90MOL    H9128749  -2.825   4.500   5.698  1.4765  0.3357  0.2018
   90MOL    H9228750  -3.055   4.540   5.743  1.8133 -0.1457 -1.3504
   90MOL    H9328751  -3.289   4.454   5.772 -0.1556  1.3998 -0.7546
   90MOL    H9428752  -3.420   4.227   5.806  0.4605  2.0753  0.1411
   90MOL    H9528753  -3.369   4.083   5.715 -0.7912 -0.0429 -2.2190
   90MOL    H9628754  -3.171   4.075   5.601  1.8069  0.4729 -0.7352
   90MOL    H9728755  -2.939   4.161   5.569 -2.1059  0.3837 -2.7757
   90MOL    C9828756  -3.456   4.228   5.584  0.5706  0.2830 -0.0570
   90MOL    C9928757  -3.576   4.150   5.568  0.1329 -0.2415 -0.3287
   90MOL   C10028758  -3.584   4.056   5.464  0.2268 -0.1376 -0.3234
   90MOL   C10128759  -3.707   3.987   5.444 -0.6558  0.5348 -0.5216
   90MOL   C10228760  -3.817   4.013   5.526  0.2200 -0.5754 -0.0174
   90MOL   C10328761  -3.955   3.957   5.499  0.4443  0.7873  0.7196
   90MOL   C10428762  -3.800   4.109   5.635 -0.2738  0.2887 -0.4260
   90MOL   C10528763  -3.685   4.179   5.649  0.1142 -0.0617  0.6099
   90MOL   H10628764  -3.397   4.236   5.492  0.4521 -0.0953 -0.1672
   90MOL   H10728765  -3.492   4.328   5.607  0.7690  0.2846  0.2397
   90MOL   H10828766  -3.498   4.037   5.401  0.5153 -0.9992  0.3094
   90MOL   H10928767  -3.709   3.914   5.364  0.7374  0.0604 -0.1359
   90MOL   H11028768  -4.026   4.037   5.517 -0.7834 -0.2558  0.5648
   90MOL   H11128769  -3.949   3.935   5.392  1.9743  2.3060  0.4662
   90MOL   H11228770  -3.877   4.141   5.703 -0.1502  1.3114 -0.7586
   90MOL   H11328771  -3.676   4.258   5.722 -0.6373  2.2197 -1.6618
   90MOL   C11428772  -3.990   3.838   5.581 -0.1370 -0.2095 -0.0971
   90MOL   C11528773  -4.129   3.777   5.559 -0.6095  0.3912  0.5416
   90MOL   C11628774  -4.149   3.670   5.469  0.1536 -0.7284  0.0715
   90MOL   C11728775  -4.278   3.641   5.418  0.6173  0.7005 -0.1892
   90MOL   C11828776  -4.391   3.718   5.461  0.0761 -0.7314  0.4027
   90MOL   C11928777  -4.521   3.674   5.390  0.3285  0.0731 -0.4779
   90MOL   C12028778  -4.367   3.814   5.560  0.5089  0.2891  0.3832
   90MOL   C12128779  -4.237   3.855   5.601 -0.2976  0.4847  0.3114
   90MOL   H12228780  -3.990   3.865   5.686 -0.9032 -0.4850 -0.0225
   90MOL   H12328781  -3.915   3.760   5.568 -0.7494 -0.4628 -2.4869
   90MOL   H12428782  -4.059   3.622   5.434  0.8421  1.4187 -1.2147
   90MOL   H12528783  -4.280   3.553   5.354  0.9353 -1.1036  2.2078
   90MOL   H12628784  -4.491   3.602   5.313 -0.2747  0.1102 -0.7468
   90MOL   H12728785  -4.594   3.621   5.452 -1.5651  2.2777 -0.7729
   90MOL   H12828786  -4.448   3.875   5.597  0.5355 -0.7411  2.1564
   90MOL   H12928787  -4.231   3.944   5.662  1.1659 -0.5446  1.7255
   90MOL   C13028788  -4.593   3.784   5.314  0.3062  0.4304 -0.1018
   90MOL   C13128789  -4.706   3.726   5.234 -0.1308  0.4604 -0.3440
   90MOL   C13228790  -4.683   3.704   5.097 -0.1321 -0.4318 -0.6598
   90MOL   C13328791  -4.787   3.652   5.019  0.1862 -0.7154  0.5148
   90MOL   C13428792  -4.911   3.630   5.071  0.6636 -0.1900 -0.1334
   90MOL   C13528793  -5.016   3.583   4.972  0.0945 -0.6930  0.1700
   90MOL   C13628794  -4.934   3.642   5.209  0.1301  0.3734 -0.3297
   90MOL   C13728795  -4.826   3.682   5.291 -0.4146  0.7417  0.5175
   90MOL   H13828796  -4.515   3.845   5.270 -0.7740  1.7049 -0.2715
   90MOL   H13928797  -4.636   3.849   5.390  0.9867  0.1351  0.5428
   90MOL   H14028798  -4.593   3.730   5.043 -0.9574  3.0123 -0.5117
   90MOL   H14128799  -4.763   3.643   4.914 -1.2398  0.2695  0.0840
   90MOL   H14228800  -5.109   3.636   4.993  0.1599 -0.6691  0.3922
   90MOL   H14328801  -4.992   3.621   4.873  0.3821 -1.8337 -0.2095
   90MOL   H14428802  -5.032   3.633   5.253  0.3663  1.3978  0.4515
   90MOL   H14528803  -4.834   3.673   5.398  1.5301 -0.9847  0.5428
   90MOL   C14628804  -5.040   3.431   4.967 -0.2950  0.0311 -0.5308
   90MOL   C14728805  -5.129   3.384   4.848 -0.4960 -0.2312 -0.4346
   90MOL   C14828806  -5.070   3.326   4.734  0.0913  0.0171  0.3326
   90MOL   C14928807  -5.151   3.268   4.634  0.9180 -0.0864 -0.0925
   90MOL   C15028808  -5.292   3.284   4.646 -0.2575 -0.6445  0.0546
   90MOL   C15128809  -5.381   3.224   4.533  0.3490  0.9095  0.3021
   90MOL   C15228810  -5.355   3.355   4.749 -0.4164 -0.6372  0.4796
   90MOL   C15328811  -5.266   3.400   4.854  0.3590 -0.5849 -0.1781
   90MOL   H15428812  -5.095   3.396   5.055  0.0131 -0.6597 -0.6067
   90MOL   H15528813  -4.942   3.387   4.947  0.1454  0.9682 -0.4617
   90MOL   H15628814  -4.962   3.326   4.737  0.0787  1.6191  1.4461
   90MOL   H15728815  -5.099   3.209   4.561 -0.6317 -3.1720  1.2295
   90MOL   H15828816  -5.483   3.263   4.530  0.4893  1.3229  0.7671
   90MOL   H15928817  -5.314   3.238   4.448 -1.2213  3.0503 -0.6389
   90MOL   H16028818  -5.462   3.373   4.752 -0.5629 -1.0097 -1.8601
   90MOL   H16128819  -5.297   3.451   4.944  2.4617 -2.2217  1.5120
   90MOL   C16228820  -5.395   3.068   4.533  0.0967  0.5439  0.4059
   90MOL   C16328821  -5.268   2.981   4.555 -0.2173  0.0268  0.0841
   90MOL   C16428822  -5.203   2.921   4.444  0.3323  0.5089  0.3141
   90MOL   C16528823  -5.088   2.844   4.465 -0.5948  0.5573  0.5372
   90MOL   C16628824  -5.036   2.819   4.596  0.1618  0.2237  0.2706
   90MOL   C16728825  -4.909   2.735   4.616 -0.4092 -0.0045 -0.3955
   90MOL   C16828826  -5.104   2.875   4.707 -0.0534 -0.2503 -0.1128
   90MOL   C16928827  -5.223   2.951   4.689  0.8143  0.2651  0.5396
   90MOL   H17028828  -5.438   3.039   4.437 -0.7886  0.9903  0.6567
   90MOL   H17128829  -5.459   3.037   4.616  3.7906 -3.8289  1.8455
   90MOL   H17228830  -5.243   2.941   4.345  0.6109  1.1383  0.3249
   90MOL   H17328831  -5.043   2.795   4.380 -0.1701 -0.0255  1.1003
   90MOL   H17428832  -4.826   2.782   4.563 -0.1160 -0.2192 -0.1311
   90MOL   H17528833  -4.884   2.720   4.721 -2.0203  4.0326  0.6767
   90MOL   H17628834  -5.076   2.851   4.809 -0.5418  0.7265  0.2598
   90MOL   H17728835  -5.278   2.996   4.769 -2.0358  0.8481 -1.6701
   90MOL   C17828836  -4.931   2.592   4.561 -0.4276 -0.4222  0.0191
   90MOL   C17928837  -4.808   2.495   4.572  0.0541  0.1393  0.2300
   90MOL   C18028838  -4.689   2.538   4.503 -0.0558  0.6225  0.1493
   90MOL   C18128839  -4.570   2.471   4.526 -0.5829  0.4767  0.0709
   90MOL   C18228840  -4.562   2.361   4.613  0.2236 -0.2598  0.3679
   90MOL   C18328841  -4.436   2.283   4.630 -0.5549  0.6353  0.6538
   90MOL   C18428842  -4.675   2.308   4.673  0.1826  0.4590  0.5262
   90MOL   C18528843  -4.797   2.385   4.659  0.1250 -0.0985 -0.1851
   90MOL   H18628844  -4.940   2.600   4.452  0.4717  1.8839  0.0857
   90MOL   H18728845  -5.018   2.537   4.597 -1.1233 -0.4473 -1.6137
   90MOL   H18828846  -4.684   2.634   4.453  1.3370  0.4806 -0.0055
   90MOL   H18928847  -4.484   2.512   4.475 -0.3068  1.7343  1.4964
   90MOL   H19028848  -4.350   2.345   4.603 -0.7797  0.0112 -1.5479
   90MOL   H19128849  -4.432   2.243   4.732 -2.6275  1.7859  1.2162
   90MOL   H19228850  -4.668   2.234   4.752  0.2498  0.8225  0.8615
   90MOL   H19328851  -4.886   2.352   4.712  0.1722  1.3203  0.8147
   90MOL   C19428852  -4.411   2.158   4.534  0.0479 -1.2599  0.3913
   90MOL   C19528853  -4.275   2.084   4.550  0.5254 -0.3886 -0.3223
   90MOL   C19628854  -4.186   2.129   4.656  0.7001  1.1461  0.0621
   90MOL   C19728855  -4.061   2.067   4.674  0.5249 -0.0104 -0.2573
   90MOL   C19828856  -4.016   1.964   4.586  0.1792  0.9390 -0.4763
   90MOL   C19928857  -3.876   1.905   4.593  0.3938  0.0960  0.1678
   90MOL   C20028858  -4.105   1.919   4.480  0.3431  0.6265 -0.2921
   90MOL   C20128859  -4.235   1.984   4.462 -0.4758 -0.4895 -0.2463
   90MOL   H20228860  -4.417   2.206   4.436 -0.2568  2.6368  2.2239
   90MOL   H20328861  -4.481   2.074   4.537 -3.0708  1.1648 -0.5983
   90MOL   H20428862  -4.215   2.200   4.731 -1.0080  1.1804 -0.6040
   90MOL   H20528863  -3.995   2.087   4.757  0.4430 -3.4102  0.7235
   90MOL   H20628864  -3.831   1.881   4.689  0.9436  1.7928  0.3613
   90MOL   H20728865  -3.884   1.805   4.551 -1.5282  0.2826  0.0185
   90MOL   H20828866  -4.071   1.838   4.415 -0.2708 -1.6084  2.0910
   90MOL   H20928867  -4.297   1.958   4.377  0.7159 -0.2450 -1.2054
   90MOL   C21028868  -3.777   1.976   4.492 -0.3489  0.1718  0.6285
   90MOL   C21128869  -3.646   1.910   4.515  0.4690 -0.9784 -0.5914
   90MOL   C21228870  -3.594   1.826   4.421 -0.3769 -0.4693 -0.0391
   90MOL   C21328871  -3.455   1.781   4.422  0.8755 -0.2237 -0.5461
   90MOL   C21428872  -3.367   1.827   4.525  0.2126 -0.0301 -0.6378
   90MOL   C21528873  -3.213   1.784   4.533  0.2447 -0.3747  0.1930
   90MOL   C21628874  -3.426   1.902   4.634  0.3777 -0.7501  0.7802
   90MOL   C21728875  -3.561   1.946   4.625  0.3594  0.2225 -0.2034
   90MOL   H21828876  -3.771   2.084   4.510  0.5352  0.4639 -1.3167
   90MOL   H21928877  -3.814   1.948   4.393  1.1667 -1.8825  0.6337
   90MOL   H22028878  -3.653   1.795   4.335 -0.5385 -1.1554  0.3159
   90MOL   H22128879  -3.414   1.724   4.339  2.5668 -1.2524  0.9641
   90MOL   H22228880  -3.165   1.841   4.454 -0.0635  3.1489  2.4533
   90MOL   H22328881  -3.169   1.816   4.627  3.5194 -1.9495 -0.7473
   90MOL   H22428882  -3.364   1.944   4.712  0.8962 -0.6795  0.3307
   90MOL   H22528883  -3.598   2.003   4.709  1.2311  0.3951  0.0721
   90MOL   C22628884  -3.176   1.639   4.528 -0.2101  0.8902 -0.0463
   90MOL   C22728885  -3.031   1.616   4.497  0.0540 -0.2488 -0.2830
   90MOL   C22828886  -2.933   1.658   4.593  0.4245 -0.5892  0.2575
   90MOL   C22928887  -2.798   1.637   4.570  0.5065  0.8483 -0.2041
   90MOL   C23028888  -2.762   1.556   4.458 -0.1320  0.0127 -0.6416
   90MOL   C23128889  -2.615   1.535   4.436 -1.0749  0.2829 -0.2097
   90MOL   C23228890  -2.857   1.502   4.367 -0.0735 -0.3707  0.5952
   90MOL   C23328891  -2.994   1.540   4.390 -0.2203 -0.3852  0.7717
   90MOL   H23428892  -3.230   1.596   4.444  0.6582  1.8773 -1.1194
   90MOL   H23528893  -3.201   1.591   4.623  0.1104  0.8557  0.0192
   90MOL   H23628894  -2.963   1.717   4.679  2.5059  1.1824 -0.1700
   90MOL   H23728895  -2.732   1.679   4.645  0.9259  1.1918 -0.7644
   90MOL   H23828896  -2.598   1.537   4.328  2.0258 -0.3698  0.2216
   90MOL   H23928897  -2.555   1.612   4.484  1.0420 -1.7295  0.5024
   90MOL   H24028898  -2.825   1.449   4.279 -2.0455  2.1937 -1.7360
   90MOL   H24128899  -3.074   1.504   4.326 -1.7335  0.9512  1.8683
   90MOL   C24228900  -2.561   1.403   4.494  0.0798  0.0582  0.6784
   90MOL   C24328901  -2.416   1.383   4.460  0.1987 -0.1382  0.7280
   90MOL   C24428902  -2.324   1.416   4.559 -0.1043  0.0429  0.2987
   90MOL   C24528903  -2.186   1.383   4.541  0.0984  0.0175 -0.2204
   90MOL   C24628904  -2.143   1.330   4.421  0.3290  0.2111  1.0967
   90MOL   C24728905  -1.989   1.313   4.396  0.4153 -0.1463 -0.0236
   90MOL   C24828906  -2.233   1.296   4.320  0.3518 -0.2785  0.7024
   90MOL   C24928907  -2.370   1.323   4.339 -0.3839  0.7349  0.4379
   90MOL   H25028908  -2.596   1.388   4.596 -1.2954 -1.0040  0.0829
   90MOL   H25128909  -2.621   1.331   4.437  1.3563 -1.0068  0.6740
   90MOL   H25228910  -2.351   1.467   4.650  0.4631 -0.2312  0.6292
   90MOL   H25328911  -2.124   1.432   4.615 -1.1265  0.2468  0.6698
   90MOL   H25428912  -1.976   1.340   4.291  0.8313 -0.5584 -0.0801
   90MOL   H25528913  -1.936   1.392   4.448 -1.0360  1.1759 -0.5026
   90MOL   H25628914  -2.197   1.255   4.227 -1.7939  1.2194 -0.8411
   90MOL   H25728915  -2.447   1.293   4.269  0.2200 -0.0450  0.0915
   90MOL   C25828916  -1.933   1.174   4.443  0.0368  0.7140  0.4666
   90MOL   C25928917  -1.789   1.149   4.405 -0.5203  0.1549 -0.0477
   90MOL   C26028918  -1.758   1.080   4.283 -0.5469 -0.3822  0.2697
   90MOL   C26128919  -1.627   1.069   4.238  0.1250  0.1160  0.2444
   90MOL   C26228920  -1.522   1.100   4.325  0.2608 -0.1065  0.4268
   90MOL   C26328921  -1.374   1.072   4.283  0.2201 -0.0951  0.5226
   90MOL   C26428922  -1.554   1.153   4.452  0.1084 -0.1538  0.3855
   90MOL   C26528923  -1.683   1.194   4.488  0.5663 -0.0444  1.4382
   90MOL   H26628924  -1.999   1.104   4.393 -1.6301  1.7631  1.1195
   90MOL   H26728925  -1.941   1.169   4.552  0.3749  1.8501  0.5507
   90MOL   H26828926  -1.839   1.052   4.218  0.1541 -0.1427 -0.7161
   90MOL   H26928927  -1.612   1.032   4.138  1.8692 -1.7429  1.1716
   90MOL   H27028928  -1.367   1.082   4.175  2.3093 -0.0793  0.6416
   90MOL   H27128929  -1.327   1.162   4.322 -1.5525  1.1256 -0.1009
   90MOL   H27228930  -1.477   1.179   4.524 -1.2594  2.7828  0.8648
   90MOL   H27328931  -1.702   1.245   4.581 -1.0834  1.2797  0.3963
   90MOL   C27428932  -1.324   0.944   4.354 -0.3779 -0.0266  0.5640
   90MOL   C27528933  -1.173   0.933   4.336 -0.5241 -0.1956 -0.0034
   90MOL   C27628934  -1.117   0.882   4.217  0.3101 -0.0206 -0.2997
   90MOL   C27728935  -0.980   0.862   4.211 -0.5861  0.5161 -0.1033
   90MOL   C27828936  -0.892   0.889   4.316  0.3772 -0.1493 -0.3408
   90MOL   C27928937  -0.746   0.866   4.308 -0.6504 -0.0709 -0.1944
   90MOL   C28028938  -0.948   0.941   4.437  1.1769 -0.6586 -0.0883
   90MOL   C28128939  -1.087   0.966   4.444 -0.4379 -0.5969  0.1964
   90MOL   H28228940  -1.339   0.943   4.462 -0.2054 -1.3183  0.5903
   90MOL   H28328941  -1.372   0.855   4.313  1.1904 -0.5778 -0.0985
   90MOL   H28428942  -1.187   0.855   4.140 -0.1474  1.0579 -0.2749
   90MOL   H28528943  -0.944   0.827   4.115  1.4073 -0.1867  0.8732
   90MOL   H28628944  -0.726   0.836   4.205  2.7287 -0.2033  0.4469
   90MOL   H28728945  -0.704   0.964   4.331 -0.4097 -0.5406  1.4457
   90MOL   H28828946  -0.879   0.975   4.513  1.2454 -1.7293  0.3321
   90MOL   H28928947  -1.124   1.022   4.529  0.2621  0.5519 -0.2301
   90MOL   C29028948  -0.698   0.768   4.416 -0.0254 -0.0996 -0.3950
   90MOL   C29128949  -0.552   0.722   4.408  0.4440  0.0418 -0.4011
   90MOL   C29228950  -0.519   0.599   4.349  0.0267 -0.3149 -0.6294
   90MOL   C29328951  -0.389   0.555   4.326  0.5134  0.3584  0.3306
   90MOL   C29428952  -0.284   0.637   4.362 -0.6617 -0.1440 -0.1288
   90MOL   C29528953  -0.141   0.597   4.322  0.0225  0.0626 -0.3212
   90MOL   C29628954  -0.310   0.761   4.421 -0.1134 -0.1817 -0.8654
   90MOL   C29728955  -0.445   0.801   4.451 -0.8082  0.6926 -0.4874
   90MOL   H29828956  -0.757   0.676   4.413 -0.6397  0.2621  0.4557
   90MOL   H29928957  -0.721   0.806   4.515  1.2854  0.4264 -0.2903
   90MOL   H30028958  -0.600   0.531   4.324 -1.0150  0.0615  1.6138
   90MOL   H30128959  -0.369   0.454   4.293 -1.2691  1.0671 -3.1107
   90MOL   H30228960  -0.143   0.557   4.220  0.0011  1.6246 -0.9483
   90MOL   H30328961  -0.072   0.682   4.319 -1.0373  0.9279 -0.2114
   90MOL   H30428962  -0.223   0.821   4.443  0.3529 -0.6364 -1.4482
   90MOL   H30528963  -0.451   0.904   4.481  0.6446  1.0112 -1.2797
   90MOL   C30628964  -0.089   0.502   4.419  0.0013  0.3451 -0.5558
   90MOL   C30728965   0.029   0.433   4.352  0.0079 -0.0254 -0.1222
   90MOL   C30828966   0.162   0.479   4.376  0.1594 -0.1395  0.0152
   90MOL   C30928967   0.273   0.419   4.314 -0.0294  0.2237 -0.2430
   90MOL   C31028968   0.255   0.309   4.223  0.1687  0.2844  0.3428
   90MOL   C31128969   0.374   0.246   4.161 -0.0031  0.1935  0.4977
   90MOL   C31228970   0.119   0.268   4.201  0.0924  0.0216 -1.0596
   90MOL   C31328971   0.012   0.323   4.273  0.5275  0.3495  0.1869
   90MOL   H31428972  -0.155   0.416   4.433 -0.4855  0.7710 -0.1761
   90MOL   H31528973  -0.073   0.553   4.513  1.7998  1.0550 -1.2337
   90MOL   H31628974   0.180   0.562   4.443 -0.1114 -0.8569  0.9885
   90MOL   H31728975   0.370   0.459   4.338  0.9769 -2.4474  0.3832
   90MOL   H31828976   0.456   0.315   4.140  0.0620 -1.0955 -3.9590
   90MOL   H31928977   0.410   0.159   4.216  1.3932  0.4295 -0.0281
   90MOL   H32028978   0.101   0.184   4.135  0.0750 -0.9419  0.1643
   90MOL   H32128979  -0.085   0.278   4.254  1.6024 -1.5356 -0.9605
   90MOL   H32228980   0.353   0.209   4.061 -1.9464 -0.5012  1.1478
   91MOL     C128981   0.440   3.278   1.827  0.5675  0.2061  0.4887
   91MOL     C228982   0.568   3.238   1.889  0.2214  0.6115 -0.6916
   91MOL     C328983   0.672   3.223   1.800  0.0616  0.3846 -0.1501
   91MOL     C428984   0.798   3.167   1.834  0.2312 -0.6355 -1.2711
   91MOL     C528985   0.826   3.136   1.973 -0.2142 -0.3332  0.7890
   91MOL     C628986   0.963   3.076   2.016  0.1175  0.0284  0.5262
   91MOL     C728987   0.719   3.157   2.061 -0.4344 -0.3136 -0.1046
   91MOL     C828988   0.590   3.208   2.023  0.2851  0.0124 -0.1285
   91MOL     H928989   0.398   3.191   1.778  1.0701 -0.3368  1.0097
   91MOL    H1028990   0.368   3.327   1.893 -1.2938  1.5533 -2.4416
   91MOL    H1128991   0.646   3.255   1.699 -1.9118 -2.3842 -0.5602
   91MOL    H1228992   0.875   3.159   1.759  1.4930  1.0176 -0.2027
   91MOL    H1328993   0.946   2.968   2.025 -0.6601  0.1289  0.2655
   91MOL    H1428994   1.035   3.106   1.940  0.5246 -2.3818 -0.0724
   91MOL    H1528995   0.721   3.132   2.166 -1.6636 -0.3613 -0.0823
   91MOL    H1628996   0.514   3.231   2.096  0.5109 -2.0648  0.8042
   91MOL    H1728997   0.462   3.357   1.755  0.0309 -1.0439 -1.0572
   91MOL    C1828998   1.016   3.150   2.141  0.2344 -0.1222  0.1287
   91MOL    C1928999   1.160   3.112   2.177 -0.2373 -0.2868  0.7125
   91MOL    C2029000   1.183   3.024   2.280  0.2195 -0.4812 -0.9397
   91MOL    C2129001   1.315   3.005   2.331  0.0888 -0.1014 -0.6490
   91MOL    C2229002   1.426   3.076   2.270 -0.1703 -0.8603 -0.0335
   91MOL    C2329003   1.568   3.055   2.319 -0.2852  0.0118  0.4303
   91MOL    C2429004   1.396   3.166   2.166 -0.4374 -0.1780 -0.6885
   91MOL    C2529005   1.267   3.188   2.121 -0.0089 -0.2878 -0.0123
   91MOL    H2629006   0.996   3.257   2.145 -2.1613 -0.5798  1.1480
   91MOL    H2729007   0.948   3.112   2.217 -0.6124 -1.4832 -1.2840
   91MOL    H2829008   1.104   2.991   2.345 -1.1668  1.2681 -1.6932
   91MOL    H2929009   1.332   2.937   2.413 -0.3949 -0.2849 -0.6946
   91MOL    H3029010   1.561   3.027   2.424 -2.4364 -1.8619 -0.1893
   91MOL    H3129011   1.631   3.144   2.328 -0.0908  0.2221 -2.5130
   91MOL    H3229012   1.477   3.227   2.129  0.9447 -0.5125  1.6663
   91MOL    H3329013   1.245   3.260   2.044  3.1323  2.3732  1.4495
   91MOL    C3429014   1.648   2.954   2.235 -0.4442 -0.8804  0.4531
   91MOL    C3529015   1.782   2.909   2.289  0.2756 -0.1159  0.2227
   91MOL    C3629016   1.797   2.794   2.375 -0.8773 -0.0266 -0.5540
   91MOL    C3729017   1.929   2.750   2.417  0.0496 -0.1934 -0.2801
   91MOL    C3829018   2.041   2.811   2.363 -0.1962  0.5963 -0.2125
   91MOL    C3929019   2.174   2.767   2.410 -0.0578  0.0430  0.6763
   91MOL    C4029020   2.028   2.930   2.300 -0.0883 -0.1283  0.1042
   91MOL    C4129021   1.900   2.975   2.252  0.4698 -1.0216  0.0659
   91MOL    H4229022   1.665   2.987   2.133 -1.0495 -1.0528  0.2968
   91MOL    H4329023   1.585   2.865   2.230 -1.1676 -0.3170 -0.4403
   91MOL    H4429024   1.708   2.735   2.386 -0.3117 -0.4500  1.9581
   91MOL    H4529025   1.948   2.664   2.480 -1.5108 -0.9666 -0.8162
   91MOL    H4629026   2.251   2.841   2.388 -0.1108  0.5942  2.2676
   91MOL    H4729027   2.179   2.762   2.518  1.9538  2.4904  0.7261
   91MOL    H4829028   2.108   2.992   2.261  1.2374 -0.8353  1.6561
   91MOL    H4929029   1.889   3.060   2.187 -0.7914 -0.4606  0.9907
   91MOL    C5029030   2.224   2.635   2.347  0.2699 -0.1727 -0.4549
   91MOL    C5129031   2.373   2.628   2.350 -0.4498  0.0839 -0.3757
   91MOL    C5229032   2.450   2.674   2.240 -0.9433  0.0954 -0.0427
   91MOL    C5329033   2.587   2.669   2.242 -0.5521 -0.3609 -0.5441
   91MOL    C5429034   2.656   2.622   2.358  0.4914  0.0796 -0.2080
   91MOL    C5529035   2.808   2.616   2.355  1.1351 -0.9657 -0.6534
   91MOL    C5629036   2.580   2.575   2.466  0.1107 -0.3570 -0.0004
   91MOL    C5729037   2.442   2.586   2.468  0.1541  0.8069 -0.1322
   91MOL    H5829038   2.194   2.621   2.243  2.5015 -1.1645 -1.0146
   91MOL    H5929039   2.174   2.554   2.399  0.0599  0.7183  0.7539
   91MOL    H6029040   2.404   2.712   2.150  0.7429  3.1994  0.3536
   91MOL    H6129041   2.637   2.710   2.155  0.2595  1.8513  0.9382
   91MOL    H6229042   2.838   2.709   2.307 -1.2064  2.1323  3.5710
   91MOL    H6329043   2.856   2.619   2.453  1.0909  1.0306 -0.6767
   91MOL    H6429044   2.628   2.532   2.553  2.5360 -2.0373 -2.1016
   91MOL    H6529045   2.397   2.560   2.563  0.6467 -2.6034 -0.7771
   91MOL    C6629046   2.850   2.493   2.276 -0.2075 -0.0986 -0.3250
   91MOL    C6729047   2.998   2.468   2.273 -0.1906  0.1439  0.0110
   91MOL    C6829048   3.075   2.489   2.153  0.0019 -0.6747  0.6277
   91MOL    C6929049   3.211   2.440   2.148 -0.8403  0.0840  0.1408
   91MOL    C7029050   3.281   2.399   2.266  0.3619  0.3860  0.3383
   91MOL    C7129051   3.428   2.367   2.261  0.1219 -0.0911  0.2176
   91MOL    C7229052   3.198   2.379   2.379 -0.5939  0.2260 -0.1153
   91MOL    C7329053   3.061   2.412   2.385 -0.9447  1.1783  0.5280
   91MOL    H7429054   2.809   2.496   2.174  0.3303  0.6068 -0.5217
   91MOL    H7529055   2.798   2.409   2.323 -0.1265 -1.1406 -2.0247
   91MOL    H7629056   3.026   2.531   2.067  0.4438 -0.6003  0.4087
   91MOL    H7729057   3.268   2.467   2.060  3.0528 -3.0005  1.5728
   91MOL    H7829058   3.469   2.364   2.362 -0.2730  2.3781  0.4842
   91MOL    H7929059   3.486   2.439   2.202  0.4817 -0.6022 -0.0534
   91MOL    H8029060   3.245   2.358   2.474 -1.7636  0.5658  0.5516
   91MOL    H8129061   3.012   2.404   2.481  1.7919  0.5659  1.9139
   91MOL    C8229062   3.457   2.231   2.199  0.7118  0.6733 -0.2940
   91MOL    C8329063   3.607   2.204   2.196 -0.0064 -0.6568 -0.0209
   91MOL    C8429064   3.672   2.164   2.317  0.4821 -0.7955 -1.0680
   91MOL    C8529065   3.812   2.147   2.320 -0.4099  0.5863 -0.1209
   91MOL    C8629066   3.898   2.179   2.214  0.3851  0.2786 -0.3575
   91MOL    C8729067   4.046   2.152   2.221  0.5133  0.0849 -0.0185
   91MOL    C8829068   3.838   2.215   2.093 -0.0175 -0.2343 -1.0177
   91MOL    C8929069   3.698   2.236   2.088  0.4958 -0.4078  0.2264
   91MOL    H9029070   3.403   2.230   2.104  0.5944  2.0441 -0.2545
   91MOL    H9129071   3.415   2.153   2.262 -0.5884 -0.4146 -2.4165
   91MOL    H9229072   3.618   2.159   2.410  1.4432  1.4553 -0.3622
   91MOL    H9329073   3.849   2.106   2.414  0.4361  0.5701 -0.4561
   91MOL    H9429074   4.070   2.164   2.327  1.4907 -0.2194 -0.2050
   91MOL    H9529075   4.096   2.229   2.162  1.1088 -0.0987  0.2420
   91MOL    H9629076   3.898   2.229   2.005  0.7143  2.8756 -0.0855
   91MOL    H9729077   3.657   2.273   1.995 -0.6801 -1.0028  0.5040
   91MOL    C9829078   4.076   2.012   2.176 -0.2800  0.2467  0.1161
   91MOL    C9929079   4.225   1.987   2.179 -0.3014  0.0936 -0.0372
   91MOL   C10029080   4.315   2.036   2.086 -0.1523 -0.2155  0.3283
   91MOL   C10129081   4.445   1.978   2.090  0.0203 -1.0448  0.3472
   91MOL   C10229082   4.490   1.899   2.195  0.5781  0.1982  0.5865
   91MOL   C10329083   4.631   1.847   2.187 -0.0152  0.3160 -0.7535
   91MOL   C10429084   4.401   1.872   2.301  0.5051 -0.6238 -0.0346
   91MOL   C10529085   4.267   1.912   2.289  0.4935  0.6589 -0.2590
   91MOL   H10629086   4.034   2.003   2.076  0.0815 -0.7311  0.0472
   91MOL   H10729087   4.023   1.933   2.228  0.5867 -1.3997 -1.4453
   91MOL   H10829088   4.293   2.107   2.008  0.1971 -2.0390 -1.4760
   91MOL   H10929089   4.519   2.002   2.016 -1.0326  2.6304  0.3688
   91MOL   H11029090   4.717   1.914   2.193  0.5361 -0.4033 -0.6086
   91MOL   H11129091   4.646   1.796   2.282 -0.0147  2.1064  0.2396
   91MOL   H11229092   4.431   1.809   2.383 -1.6967 -0.3467  1.0182
   91MOL   H11329093   4.200   1.881   2.367  1.7894 -1.7290 -0.0566
   91MOL   C11429094   4.646   1.739   2.076 -0.2667 -0.0486 -0.6301
   91MOL   C11529095   4.789   1.685   2.059  0.5694  0.2709 -0.7217
   91MOL   C11629096   4.840   1.602   2.158  0.2735  0.8047 -0.0187
   91MOL   C11729097   4.977   1.575   2.165  0.1007 -0.2647  0.2458
   91MOL   C11829098   5.063   1.617   2.058 -0.4839  0.1293 -0.2387
   91MOL   C11929099   5.209   1.590   2.075  0.1870 -0.5257  0.4304
   91MOL   C12029100   5.005   1.674   1.944  0.5879 -0.8576  0.5791
   91MOL   C12129101   4.870   1.714   1.950  0.3828  0.1364 -0.1403
   91MOL   H12229102   4.619   1.785   1.981  0.6106  0.2261 -0.7540
   91MOL   H12329103   4.572   1.663   2.101 -0.2381  0.1399  0.0499
   91MOL   H12429104   4.771   1.572   2.236  0.2799 -0.2419 -0.4108
   91MOL   H12529105   5.014   1.523   2.252 -1.0940 -1.3210  0.1315
   91MOL   H12629106   5.261   1.683   2.051 -2.0677  0.3965 -0.9469
   91MOL   H12729107   5.239   1.570   2.178  0.5707  0.0310  0.4274
   91MOL   H12829108   5.063   1.695   1.855 -1.8730  0.5369 -0.7431
   91MOL   H12929109   4.818   1.771   1.874  2.3035  1.4192 -0.5334
   91MOL   C13029110   5.261   1.477   1.991 -0.0416  0.3499 -0.3599
   91MOL   C13129111   5.408   1.468   2.008 -0.1795 -0.0073 -0.8315
   91MOL   C13229112   5.460   1.432   2.138  0.1603  0.1596 -0.1937
   91MOL   C13329113   5.602   1.402   2.153  0.2854 -0.3011  0.2564
   91MOL   C13429114   5.688   1.428   2.045 -0.1067 -0.1883 -0.5066
   91MOL   C13529115   5.838   1.411   2.052  0.3753 -0.5417 -0.0669
   91MOL   C13629116   5.635   1.463   1.923  0.4686  0.5017  0.1785
   91MOL   C13729117   5.495   1.474   1.897  0.2543  0.0621 -1.3759
   91MOL   H13829118   5.235   1.502   1.887  3.7336 -0.4951 -1.5891
   91MOL   H13929119   5.214   1.382   2.014 -1.5046  1.0916 -0.1639
   91MOL   H14029120   5.390   1.437   2.220  0.4622  0.2047  0.0617
   91MOL   H14129121   5.638   1.352   2.241 -0.5902 -0.5795  0.4631
   91MOL   H14229122   5.891   1.500   2.019 -0.8166  0.3007  0.2793
   91MOL   H14329123   5.868   1.406   2.157 -0.8674 -1.5125  0.2571
   91MOL   H14429124   5.698   1.487   1.839 -0.3852  1.5193 -0.1796
   91MOL   H14529125   5.460   1.499   1.798  0.8419  1.8424 -1.1523
   91MOL   C14629126   5.892   1.292   1.972 -0.2708 -0.3567 -0.1444
   91MOL   C14729127   6.041   1.280   1.979  0.3177  0.5386 -0.3612
   91MOL   C14829128   6.096   1.224   2.097 -0.2149 -0.3123  0.1038
   91MOL   C14929129   6.234   1.223   2.117  0.2866 -0.3862  0.6084
   91MOL   C15029130   6.314   1.257   2.008  0.0458 -0.3830 -0.7927
   91MOL   C15129131   6.468   1.252   2.015  0.0588 -0.8345  0.2791
   91MOL   C15229132   6.262   1.313   1.894  0.1885 -0.1370  0.3247
   91MOL   C15329133   6.128   1.320   1.878  0.0889 -0.2056 -0.5749
   91MOL   H15429134   5.849   1.294   1.872 -0.9170 -1.5279  0.1014
   91MOL   H15529135   5.844   1.198   1.998  0.9288 -0.7485  0.6983
   91MOL   H15629136   6.026   1.183   2.169  0.5015 -2.2010 -0.2517
   91MOL   H15729137   6.275   1.179   2.207  0.4943 -1.8524 -0.1748
   91MOL   H15829138   6.513   1.313   1.936 -0.3514 -0.6485  0.1920
   91MOL   H15929139   6.505   1.301   2.105  1.0685  0.4275 -0.7924
   91MOL   H16029140   6.322   1.362   1.819 -0.2186  1.4363  0.9874
   91MOL   H16129141   6.089   1.362   1.786 -2.1417 -1.8757 -0.4380
   91MOL   C16229142   6.528   1.112   2.003 -0.9451  0.4773 -1.0547
   91MOL   C16329143   6.680   1.109   2.024  0.3379  0.1838  0.0259
   91MOL   C16429144   6.761   1.214   1.970  0.8712  0.3931 -0.2095
   91MOL   C16529145   6.901   1.212   1.983 -0.6503  0.1473 -0.1567
   91MOL   C16629146   6.962   1.104   2.047  1.1352 -0.8377  0.6281
   91MOL   C16729147   7.113   1.106   2.069  0.0973  0.4896 -0.0736
   91MOL   C16829148   6.886   1.003   2.115 -0.2696  0.0399 -0.0379
   91MOL   C16929149   6.742   1.010   2.102  0.3080  0.2254  0.2159
   91MOL   H17029150   6.496   1.065   1.910 -1.5052 -1.1450 -0.0497
   91MOL   H17129151   6.475   1.045   2.070  1.3205  1.3828  1.7917
   91MOL   H17229152   6.711   1.284   1.904 -0.1159  0.6022  0.7368
   91MOL   H17329153   6.956   1.293   1.936 -2.4203  0.9638 -0.8945
   91MOL   H17429154   7.145   1.003   2.084  1.6366  0.2516 -4.5132
   91MOL   H17529155   7.164   1.122   1.975 -1.4403  1.2369 -0.8070
   91MOL   H17629156   6.931   0.915   2.158 -0.4711 -0.2397 -0.3871
   91MOL   H17729157   6.686   0.932   2.152  0.6675  0.2329  0.6304
   91MOL   C17829158   7.168   1.214   2.160 -0.2375 -0.4774 -0.6140
   91MOL   C17929159   7.315   1.192   2.187  0.4390  0.1120  0.4964
   91MOL   C18029160   7.410   1.273   2.123  0.8599  0.2047  0.1675
   91MOL   C18129161   7.546   1.243   2.148  0.3230  0.4668  0.0799
   91MOL   C18229162   7.585   1.147   2.236 -0.1062 -0.2787 -0.1678
   91MOL   C18329163   7.728   1.114   2.256 -0.2209  0.1053  0.4847
   91MOL   C18429164   7.488   1.078   2.305 -0.2005  0.8363 -0.4602
   91MOL   C18529165   7.352   1.102   2.286 -0.4528 -0.6548  0.7185
   91MOL   H18629166   7.108   1.220   2.252  0.3494 -1.0339 -0.1888
   91MOL   H18729167   7.155   1.312   2.115 -0.1538 -0.1586  0.0436
   91MOL   H18829168   7.389   1.347   2.047  2.1730 -0.4115 -0.8054
   91MOL   H18929169   7.625   1.300   2.100  1.8371 -0.4291  1.4698
   91MOL   H19029170   7.783   1.202   2.224 -0.5914 -0.1526 -0.9075
   91MOL   H19129171   7.740   1.099   2.363  0.3903 -0.1539  0.3798
   91MOL   H19229172   7.519   1.012   2.385 -3.2263  1.4366  1.3293
   91MOL   H19329173   7.280   1.043   2.341 -0.7416  0.8680  2.0281
   91MOL   C19429174   7.754   0.982   2.187  0.1280 -0.3903 -0.1619
   91MOL   C19529175   7.898   0.957   2.190 -0.0154  0.1902  0.7505
   91MOL   C19629176   7.963   0.928   2.311  0.3667  0.2307  0.0040
   91MOL   C19729177   8.093   0.882   2.316  0.3276  0.0952 -0.6538
   91MOL   C19829178   8.174   0.872   2.198  0.0647 -0.4328 -0.5642
   91MOL   C19929179   8.314   0.829   2.214 -0.5652  0.0726  0.2792
   91MOL   C20029180   8.105   0.888   2.077  0.3355 -0.3255  0.2489
   91MOL   C20129181   7.972   0.928   2.071  0.3500  0.1179 -0.0430
   91MOL   H20229182   7.728   0.986   2.081  1.7932  1.4643 -0.5244
   91MOL   H20329183   7.716   0.903   2.252 -1.9066  0.3960 -0.3304
   91MOL   H20429184   7.913   0.949   2.405  0.4589 -0.7432  0.2680
   91MOL   H20529185   8.135   0.853   2.411  0.7156  0.0511 -0.8374
   91MOL   H20629186   8.321   0.754   2.293 -2.4859 -0.9045 -0.4697
   91MOL   H20729187   8.354   0.778   2.126 -0.1822 -0.6495  0.8628
   91MOL   H20829188   8.161   0.871   1.986  1.1643 -1.4988  0.9581
   91MOL   H20929189   7.937   0.933   1.969  0.9275 -2.2248 -0.3780
   91MOL   C21029190   8.411   0.948   2.252  0.0658  0.2750 -0.4513
   91MOL   C21129191   8.548   0.895   2.274  0.2352 -0.9299 -0.5700
   91MOL   C21229192   8.639   0.864   2.166 -0.6921  0.0461 -0.2859
   91MOL   C21329193   8.767   0.811   2.196 -0.5460 -0.0881 -0.2904
   91MOL   C21429194   8.818   0.812   2.326  0.3731  0.6308 -0.1997
   91MOL   C21529195   8.972   0.782   2.352  0.2997 -0.1758  0.0585
   91MOL   C21629196   8.732   0.852   2.434  0.2462  0.8339  0.4463
   91MOL   C21729197   8.601   0.889   2.406  0.2196  0.5744  0.4226
   91MOL   H21829198   8.373   1.000   2.340  0.1380 -2.0684  0.9956
   91MOL   H21929199   8.421   1.023   2.174  3.3802 -0.8933 -1.2417
   91MOL   H22029200   8.620   0.873   2.060 -1.3166 -0.6211 -0.2368
   91MOL   H22129201   8.835   0.770   2.124  1.1144  1.6432  0.2508
   91MOL   H22229202   9.020   0.813   2.259  1.8960 -0.5407  0.7448
   91MOL   H22329203   8.996   0.844   2.438  0.9937 -0.1498 -0.1538
   91MOL   H22429204   8.751   0.849   2.540 -0.5085 -0.6311  0.5501
   91MOL   H22529205   8.540   0.916   2.491  1.0645  0.7586  0.9791
   91MOL   C22629206   8.994   0.634   2.379 -0.1849 -0.1445  0.8436
   91MOL   C22729207   9.141   0.614   2.414 -0.3435  0.6363  0.2145
   91MOL   C22829208   9.200   0.671   2.528 -0.0678  0.4755  0.5374
   91MOL   C22929209   9.336   0.644   2.560 -0.7409  0.0162  0.0441
   91MOL   C23029210   9.412   0.564   2.472 -0.3149 -0.3237  0.0925
   91MOL   C23129211   9.549   0.513   2.508 -0.3819 -0.5553  0.0222
   91MOL   C23229212   9.365   0.518   2.353  1.1672 -0.2805 -0.3686
   91MOL   C23329213   9.230   0.548   2.322 -0.8472 -0.3443  0.2896
   91MOL   H23429214   8.961   0.576   2.293 -0.7810  1.5624 -0.0930
   91MOL   H23529215   8.934   0.596   2.461  0.2798  0.9511  1.7068
   91MOL   H23629216   9.143   0.735   2.594 -0.3142  0.3884  0.4131
   91MOL   H23729217   9.381   0.687   2.648  0.8498 -0.6808 -0.3977
   91MOL   H23829218   9.548   0.502   2.617 -1.7644  0.1818  0.1017
   91MOL   H23929219   9.572   0.412   2.475  1.1544 -0.0996 -0.3444
   91MOL   H24029220   9.425   0.463   2.282 -0.7178  0.1421 -2.3618
   91MOL   H24129221   9.193   0.511   2.227  0.1493  0.1567 -0.3082
   91MOL   C24229222   9.650   0.607   2.468 -0.0743 -0.2057 -0.0158
   91MOL   C24329223   9.783   0.535   2.490 -0.1964  0.1104 -1.1899
   91MOL   C24429224   9.860   0.491   2.385  0.6609  0.1386  0.0434
   91MOL   C24529225   9.989   0.433   2.413  0.5546 -0.5420 -0.6987
   91MOL   C24629226  10.032   0.419   2.546  0.2903 -0.6119 -0.2449
   91MOL   C24729227  10.181   0.393   2.574 -0.5392 -0.9562 -0.3142
   91MOL   C24829228   9.939   0.436   2.652  0.1854 -0.7063 -0.7081
   91MOL   C24929229   9.821   0.500   2.621  0.2484  0.2407 -0.8957
   91MOL   H25029230   9.644   0.631   2.362 -0.9404  1.3166  0.3599
   91MOL   H25129231   9.642   0.700   2.525 -0.9301 -0.0985 -0.3075
   91MOL   H25229232   9.827   0.515   2.285 -0.9996 -1.3735  0.1962
   91MOL   H25329233  10.040   0.407   2.321 -0.0641 -2.0821 -0.6220
   91MOL   H25429234  10.190   0.311   2.645 -1.5094 -2.9987 -2.5254
   91MOL   H25529235  10.236   0.377   2.481 -0.2456  0.3344 -0.3848
   91MOL   H25629236   9.962   0.421   2.756 -2.3631  1.7622  0.2698
   91MOL   H25729237   9.755   0.517   2.704 -0.5364 -0.4016 -1.3794
   91MOL   C25829238  10.249   0.510   2.648  0.2917  1.1517  0.9258
   91MOL   C25929239  10.393   0.471   2.665 -0.2713 -0.1435 -0.0865
   91MOL   C26029240  10.426   0.388   2.769 -0.2864  0.3741  0.2327
   91MOL   C26129241  10.565   0.350   2.789  0.9324 -0.1211  0.2416
   91MOL   C26229242  10.667   0.394   2.699 -0.0821  0.5764 -0.1228
   91MOL   C26329243  10.813   0.339   2.701  0.0190 -0.3608 -0.4650
   91MOL   C26429244  10.623   0.477   2.592  0.0108 -0.0835 -0.0371
   91MOL   C26529245  10.489   0.527   2.579 -0.6946  0.1268  0.4062
   91MOL   H26629246  10.202   0.521   2.746 -2.2473 -3.2816  0.3677
   91MOL   H26729247  10.241   0.605   2.595 -0.9466  1.0001  0.8233
   91MOL   H26829248  10.361   0.344   2.843  0.8418 -0.7327  0.5904
   91MOL   H26929249  10.577   0.276   2.867 -0.3509 -0.7120 -0.1187
   91MOL   H27029250  10.816   0.231   2.686 -0.8722 -0.5715  0.8091
   91MOL   H27129251  10.870   0.384   2.620  2.2286 -0.8935  0.7756
   91MOL   H27229252  10.691   0.504   2.513 -2.5123 -0.7649 -2.5140
   91MOL   H27329253  10.476   0.593   2.494  0.9288  1.0468  0.8443
   91MOL   C27429254  10.898   0.372   2.825 -0.5309  0.4505 -0.8388
   91MOL   C27529255  11.048   0.339   2.812 -0.0888  0.2608  0.0899
   91MOL   C27629256  11.147   0.438   2.823  0.5330 -0.0265 -0.6643
   91MOL   C27729257  11.282   0.407   2.787 -0.2376  0.1713 -1.0476
   91MOL   C27829258  11.310   0.274   2.739 -0.1541 -0.4881  0.2018
   91MOL   C27929259  11.456   0.243   2.703 -0.4821  0.6225 -0.7616
   91MOL   C28029260  11.214   0.172   2.732  0.0618 -0.0825  0.6183
   91MOL   C28129261  11.084   0.205   2.778  0.3608  0.3139 -0.1618
   91MOL   H28229262  10.903   0.480   2.839 -4.2180  0.4762  0.7819
   91MOL   H28329263  10.853   0.327   2.914 -0.5028 -2.3082 -2.1854
   91MOL   H28429264  11.110   0.530   2.867  1.9736 -0.0788  0.7371
   91MOL   H28529265  11.363   0.475   2.806 -1.5976  1.4023  0.4863
   91MOL   H28629266  11.462   0.207   2.601 -1.8342  2.0858 -1.3893
   91MOL   H28729267  11.513   0.336   2.700 -0.3754  0.5559 -0.7841
   91MOL   H28829268  11.241   0.072   2.701  2.9092  0.6525  0.5812
   91MOL   H28929269  11.003   0.135   2.768  0.5217 -0.1630  1.5741
   91MOL   C29029270  11.524   0.144   2.799  0.3037  0.8149  0.1045
   91MOL   C29129271  11.671   0.105   2.761  0.6007  0.5905  0.6528
   91MOL   C29229272  11.776   0.195   2.786 -0.3602 -0.5380 -0.4199
   91MOL   C29329273  11.908   0.172   2.747 -0.4498  0.0071 -0.1391
   91MOL   C29429274  11.933   0.042   2.691 -0.2780 -0.6098 -0.6854
   91MOL   C29529275  12.079   0.013   2.662 -0.8325 -0.0731 -0.3967
   91MOL   C29629276  11.831  -0.050   2.671  0.7975 -0.5603 -0.4331
   91MOL   C29729277  11.699  -0.022   2.705  0.5570  0.0723  0.5523
   91MOL   H29829278  11.473   0.051   2.825  1.8171 -0.1132 -0.2287
   91MOL   H29929279  11.523   0.195   2.895  1.3167 -0.1189  0.6249
   91MOL   H30029280  11.747   0.292   2.822  0.9297 -0.5508  0.7112
   91MOL   H30129281  11.983   0.246   2.773  1.6173 -1.4684 -1.7353
   91MOL   H30229282  12.077  -0.051   2.574 -1.4045 -0.3551 -0.1844
   91MOL   H30329283  12.140   0.099   2.634 -0.9187  0.8254  2.0295
   91MOL   H30429284  11.837  -0.144   2.617 -1.5794 -1.8076  1.3604
   91MOL   H30529285  11.617  -0.088   2.683 -0.5685  1.7581 -0.4663
   91MOL   C30629286  12.153  -0.043   2.782  0.1296  0.3074  0.2887
   91MOL   C30729287  12.295  -0.092   2.738  0.4917  0.1030 -0.0976
   91MOL   C30829288  12.408  -0.013   2.760  0.1419 -0.8568 -0.1539
   91MOL   C30929289  12.526  -0.056   2.706  0.5351  0.4698 -0.6948
   91MOL   C31029290  12.532  -0.177   2.630  0.1484 -0.2337  0.0683
   91MOL   C31129291  12.664  -0.228   2.574 -0.8871 -0.8138  0.1299
   91MOL   C31229292  12.421  -0.263   2.623  0.1031 -0.3179  0.1637
   91MOL   C31329293  12.297  -0.210   2.662 -0.0821 -0.5475 -0.3163
   91MOL   H31429294  12.100  -0.129   2.824 -0.2886  0.5230  0.2015
   91MOL   H31529295  12.148   0.028   2.865  1.1584  1.1815 -0.3910
   91MOL   H31629296  12.418   0.076   2.820 -1.0202  0.1908 -1.4566
   91MOL   H31729297  12.617  -0.002   2.724  0.2167  0.7370  0.1986
   91MOL   H31829298  12.748  -0.189   2.631 -0.1903 -0.0298 -1.4222
   91MOL   H31929299  12.684  -0.334   2.557  0.5584 -0.6241  0.5413
   91MOL   H32029300  12.417  -0.364   2.586  1.1595  0.5240 -2.3390
   91MOL   H32129301  12.205  -0.266   2.656 -0.4870  0.1942 -1.2464
   91MOL   H32229302  12.662  -0.189   2.472 -3.1378 -2.1292 -0.3622
   92MOL     C129303   1.846   0.653   3.323 -0.0803 -0.3194 -0.3141
   92MOL     C229304   1.722   0.737   3.319 -0.2452 -0.4841  0.5917
   92MOL     C329305   1.718   0.866   3.269 -0.5197 -0.1815 -0.0901
   92MOL     C429306   1.602   0.942   3.284  0.1485 -0.5104  0.3477
   92MOL     C529307   1.478   0.887   3.330 -0.0202  0.5965  0.4492
   92MOL     C629308   1.346   0.969   3.317  0.2456 -0.0634 -0.2333
   92MOL     C729309   1.476   0.751   3.377  0.4747  1.1802  1.2787
   92MOL     C829310   1.602   0.681   3.374 -0.2010  0.5733 -0.3730
   92MOL     H929311   1.834   0.552   3.361 -0.8516 -0.4027 -0.7839
   92MOL    H1029312   1.891   0.638   3.225 -0.5037  0.1434 -0.5775
   92MOL    H1129313   1.809   0.918   3.245 -0.3971 -0.4102 -0.1204
   92MOL    H1229314   1.605   1.044   3.250 -1.8074 -1.0652 -1.5794
   92MOL    H1329315   1.364   1.073   3.292  1.9313  0.1813  1.8758
   92MOL    H1429316   1.297   0.934   3.226 -0.4450 -0.9295  0.4605
   92MOL    H1529317   1.379   0.708   3.398  0.9186  0.0180  0.9838
   92MOL    H1629318   1.596   0.576   3.398  2.0570  0.2676 -0.9759
   92MOL    H1729319   1.924   0.709   3.375 -1.3012  0.6950  0.4671
   92MOL    C1829320   1.245   0.957   3.436  0.1821  0.2119  0.4857
   92MOL    C1929321   1.110   1.012   3.403  0.0738 -0.1664 -0.5043
   92MOL    C2029322   1.081   1.147   3.428  0.5249 -0.5493  0.3999
   92MOL    C2129323   0.949   1.192   3.398  0.2408 -0.0906  0.3336
   92MOL    C2229324   0.852   1.106   3.348 -0.3229 -0.2469  0.4096
   92MOL    C2329325   0.709   1.151   3.327  0.5524 -0.1705 -0.6785
   92MOL    C2429326   0.886   0.972   3.333  0.4544 -0.3964 -0.5776
   92MOL    C2529327   1.012   0.921   3.357 -0.2345 -0.1579  0.2407
   92MOL    H2629328   1.245   0.849   3.453 -3.0266  0.1123  0.1820
   92MOL    H2729329   1.279   1.019   3.519 -1.3239  0.4260  0.9585
   92MOL    H2829330   1.152   1.220   3.464 -0.4127 -0.1828  1.5537
   92MOL    H2929331   0.929   1.295   3.427  2.3159 -0.2091  2.4182
   92MOL    H3029332   0.684   1.106   3.231  0.2573 -0.6489 -0.3792
   92MOL    H3129333   0.707   1.258   3.310  1.8964 -0.1044 -0.4604
   92MOL    H3229334   0.812   0.904   3.295  1.5795 -2.2532  0.5270
   92MOL    H3329335   1.034   0.816   3.351  4.1073  0.5830  1.1079
   92MOL    C3429336   0.609   1.109   3.437  0.0998  0.2111  0.2897
   92MOL    C3529337   0.471   1.142   3.410 -0.2750 -0.5314  0.3184
   92MOL    C3629338   0.408   1.248   3.479 -0.0565 -0.7835 -0.4268
   92MOL    C3729339   0.275   1.286   3.453  0.7597  0.3521  0.0635
   92MOL    C3829340   0.193   1.208   3.365  0.3357 -0.0760 -0.1618
   92MOL    C3929341   0.049   1.236   3.339 -0.0217 -0.7133  0.0372
   92MOL    C4029342   0.257   1.098   3.298  0.2749 -0.3254  0.0253
   92MOL    C4129343   0.397   1.074   3.314 -0.6819 -0.2037 -0.8122
   92MOL    H4229344   0.644   1.159   3.528  2.0366  0.8821 -0.8024
   92MOL    H4329345   0.612   1.003   3.462  0.8044 -0.0824 -1.0145
   92MOL    H4429346   0.452   1.300   3.563  0.7255 -0.4015 -1.0680
   92MOL    H4529347   0.229   1.361   3.515  1.8816  0.4514  0.7859
   92MOL    H4629348   0.028   1.337   3.305  0.8786 -0.9479 -1.2591
   92MOL    H4729349   0.019   1.181   3.250  1.2266  1.8660 -2.0473
   92MOL    H4829350   0.198   1.031   3.237 -0.1256 -0.9062  1.0234
   92MOL    H4929351   0.452   0.993   3.268  1.0811  1.3657 -1.5552
   92MOL    C5029352  -0.039   1.204   3.462 -0.5290 -0.1024 -0.1741
   92MOL    C5129353  -0.181   1.200   3.433  0.0180 -0.2219  1.1019
   92MOL    C5229354  -0.247   1.076   3.442  0.4477  0.3999 -0.4582
   92MOL    C5329355  -0.388   1.068   3.438  0.3361  0.2543 -0.7327
   92MOL    C5429356  -0.464   1.187   3.414 -0.2357 -0.4274 -0.3407
   92MOL    C5529357  -0.610   1.175   3.425  0.4814 -0.5420 -0.8507
   92MOL    C5629358  -0.396   1.313   3.398  0.2255 -0.0322  0.2148
   92MOL    C5729359  -0.255   1.320   3.420 -0.2190 -0.1302  0.5303
   92MOL    H5829360  -0.015   1.267   3.548  0.7214 -0.8213  0.0358
   92MOL    H5929361  -0.014   1.101   3.490 -3.0630 -0.3078  1.4511
   92MOL    H6029362  -0.186   0.989   3.454  0.2670  0.5955  2.1736
   92MOL    H6129363  -0.435   0.973   3.458 -1.4705  1.1804 -0.4834
   92MOL    H6229364  -0.645   1.080   3.464 -2.7312  0.8507 -0.2144
   92MOL    H6329365  -0.632   1.238   3.511  2.2349 -0.6809 -0.2695
   92MOL    H6429366  -0.448   1.407   3.385 -2.2521 -1.2647  1.0233
   92MOL    H6529367  -0.200   1.412   3.428  1.7403 -1.1125 -1.2301
   92MOL    C6629368  -0.690   1.225   3.305  0.1428 -0.1510  0.6316
   92MOL    C6729369  -0.838   1.221   3.321 -0.0837 -0.3281 -0.0132
   92MOL    C6829370  -0.900   1.306   3.422 -0.4160 -0.0781  0.2181
   92MOL    C6929371  -1.040   1.327   3.423  0.0489  0.5262 -0.8546
   92MOL    C7029372  -1.120   1.242   3.341 -0.6775 -0.3330  0.4609
   92MOL    C7129373  -1.267   1.248   3.362 -0.0283  0.6892  0.5978
   92MOL    C7229374  -1.060   1.172   3.238  0.0111  0.0343  0.5612
   92MOL    C7329375  -0.923   1.151   3.228 -0.3779 -0.5690 -0.2148
   92MOL    H7429376  -0.663   1.168   3.216 -3.0664 -1.7139  0.6085
   92MOL    H7529377  -0.669   1.328   3.275 -0.5636 -0.1411  0.1506
   92MOL    H7629378  -0.840   1.360   3.494 -4.3690  1.8431  2.2420
   92MOL    H7729379  -1.083   1.383   3.505 -0.3543 -1.1151  0.0870
   92MOL    H7829380  -1.286   1.219   3.465  0.1160 -0.4704  0.3146
   92MOL    H7929381  -1.313   1.160   3.316  1.3539  0.9481 -1.3902
   92MOL    H8029382  -1.108   1.113   3.162  0.2188  0.1347  0.3492
   92MOL    H8129383  -0.880   1.096   3.146  1.7387  1.0612 -0.2730
   92MOL    C8229384  -1.323   1.377   3.300 -0.0851  0.8735 -0.3074
   92MOL    C8329385  -1.472   1.392   3.316  1.2377  0.9342 -0.6462
   92MOL    C8429386  -1.565   1.327   3.230 -0.2768 -0.1089  0.2211
   92MOL    C8529387  -1.702   1.348   3.246  0.4060  0.0101 -0.2720
   92MOL    C8629388  -1.756   1.443   3.347  0.2601 -0.0181 -0.1654
   92MOL    C8729389  -1.900   1.477   3.364 -0.3227  0.9850  0.1476
   92MOL    C8829390  -1.661   1.505   3.431  0.0116 -0.5198  0.2541
   92MOL    C8929391  -1.521   1.478   3.418  0.5619 -0.0707  0.3070
   92MOL    H9029392  -1.302   1.375   3.193  0.7642 -0.6540 -0.1224
   92MOL    H9129393  -1.260   1.457   3.336  1.3933 -0.7379  0.7792
   92MOL    H9229394  -1.525   1.257   3.157  0.0716 -0.2017  0.5023
   92MOL    H9329395  -1.775   1.295   3.186  1.0723 -1.3702  0.1081
   92MOL    H9429396  -1.934   1.457   3.465 -2.8838  2.2684 -0.4030
   92MOL    H9529397  -1.958   1.411   3.299  2.7083 -1.7114  0.0601
   92MOL    H9629398  -1.701   1.576   3.502 -0.9707 -0.6713 -0.1331
   92MOL    H9729399  -1.453   1.523   3.490  0.6104 -1.6060  1.2525
   92MOL    C9829400  -1.947   1.619   3.325  0.4191  0.3977  0.3270
   92MOL    C9929401  -2.095   1.628   3.348 -0.3672 -0.0126  0.7004
   92MOL   C10029402  -2.149   1.705   3.455 -0.3887  0.7263 -0.0974
   92MOL   C10129403  -2.286   1.719   3.478  0.7089 -0.5603 -0.3647
   92MOL   C10229404  -2.375   1.656   3.391  0.0806  0.4195  0.2154
   92MOL   C10329405  -2.522   1.671   3.423 -0.7864  1.1454  0.5008
   92MOL   C10429406  -2.323   1.569   3.289  0.1901 -0.5905 -0.3653
   92MOL   C10529407  -2.189   1.553   3.270 -0.0336 -0.3822  0.1213
   92MOL   H10629408  -1.917   1.634   3.221  3.0915  2.5863  1.3423
   92MOL   H10729409  -1.912   1.711   3.371 -2.5407  1.9253 -0.3298
   92MOL   H10829410  -2.083   1.757   3.522  0.4260 -0.5766  0.1360
   92MOL   H10929411  -2.311   1.779   3.565  1.5384 -0.5902 -0.1080
   92MOL   H11029412  -2.578   1.590   3.376  1.2899  0.9019 -1.6694
   92MOL   H11129413  -2.550   1.660   3.528  2.7994 -0.5665  1.3810
   92MOL   H11229414  -2.392   1.517   3.223  0.0309 -0.8429 -0.0076
   92MOL   H11329415  -2.160   1.490   3.187 -0.6648 -0.8214  0.2304
   92MOL   C11429416  -2.584   1.806   3.373 -0.2574 -0.2711 -0.1445
   92MOL   C11529417  -2.721   1.832   3.428  0.2840 -0.2846 -0.2514
   92MOL   C11629418  -2.745   1.930   3.528 -0.1889 -0.6295 -0.5356
   92MOL   C11729419  -2.879   1.978   3.542  0.2973  0.4901  0.1220
   92MOL   C11829420  -2.985   1.920   3.470  0.0120  0.3731  0.2046
   92MOL   C11929421  -3.125   1.985   3.476 -0.2344 -0.1712 -0.2024
   92MOL   C12029422  -2.960   1.808   3.383 -0.6319 -0.0583 -1.0051
   92MOL   C12129423  -2.830   1.759   3.372 -0.4502 -0.2573  0.2955
   92MOL   H12229424  -2.593   1.808   3.265  0.8715 -0.5857 -0.2565
   92MOL   H12329425  -2.528   1.898   3.392  0.8973 -0.7678 -1.0884
   92MOL   H12429426  -2.662   1.979   3.578  1.3557 -2.1536 -1.5452
   92MOL   H12529427  -2.887   2.063   3.609  1.0139 -0.7887  1.8665
   92MOL   H12629428  -3.189   1.902   3.507 -0.1232 -0.2094 -0.0735
   92MOL   H12729429  -3.127   2.060   3.555  1.2559  0.1129 -0.4336
   92MOL   H12829430  -3.038   1.766   3.321 -1.4351  3.8208 -2.7795
   92MOL   H12929431  -2.815   1.685   3.295 -0.7200  0.6511 -0.6454
   92MOL   C13029432  -3.160   2.061   3.350  0.0296  0.1179  0.2604
   92MOL   C13129433  -3.295   2.135   3.366 -0.2639 -0.0306  0.2229
   92MOL   C13229434  -3.409   2.076   3.310 -0.2029 -0.5444  1.0198
   92MOL   C13329435  -3.534   2.131   3.334  0.1785  1.5358 -0.4103
   92MOL   C13429436  -3.545   2.252   3.400 -0.1739  0.4598  0.4770
   92MOL   C13529437  -3.674   2.330   3.412  0.8809  0.2261 -0.2297
   92MOL   C13629438  -3.430   2.312   3.452  0.4279  0.5160  0.4253
   92MOL   C13729439  -3.301   2.260   3.428  0.2146  0.0606 -0.7848
   92MOL   H13829440  -3.171   1.982   3.276 -0.4671  0.4481 -0.0192
   92MOL   H13929441  -3.079   2.129   3.325  0.0866 -0.8763 -2.3508
   92MOL   H14029442  -3.391   1.983   3.259 -0.1728 -0.0810  0.1763
   92MOL   H14129443  -3.625   2.089   3.293  0.1919  0.9191  0.1874
   92MOL   H14229444  -3.658   2.438   3.407  0.0921  0.3342 -0.4580
   92MOL   H14329445  -3.731   2.305   3.322  1.1169 -1.2046  0.0080
   92MOL   H14429446  -3.454   2.401   3.509  0.6491  0.1212  1.1496
   92MOL   H14529447  -3.213   2.308   3.468  0.3049 -0.8653  0.1497
   92MOL   C14629448  -3.750   2.286   3.544  0.2142 -0.3072 -0.1152
   92MOL   C14729449  -3.892   2.327   3.547  0.0519  0.4337  0.4176
   92MOL   C14829450  -3.993   2.250   3.481  0.2689  0.5196 -0.0524
   92MOL   C14929451  -4.125   2.293   3.498  0.2316 -0.2415 -0.2069
   92MOL   C15029452  -4.156   2.419   3.557  0.2144  0.1190 -0.0742
   92MOL   C15129453  -4.305   2.459   3.559 -0.7304 -0.4676  0.2997
   92MOL   C15229454  -4.054   2.495   3.616 -0.1393  0.8828 -0.2260
   92MOL   C15329455  -3.925   2.446   3.616 -0.1954  0.6670  0.0444
   92MOL   H15429456  -3.695   2.323   3.631 -1.1103  2.2197 -0.3204
   92MOL   H15529457  -3.747   2.178   3.553  0.7939 -0.1523  1.7300
   92MOL   H15629458  -3.980   2.154   3.433  1.5451  0.1932  0.9044
   92MOL   H15729459  -4.204   2.230   3.461  0.6968  0.3170 -2.2445
   92MOL   H15829460  -4.363   2.369   3.540 -0.6138 -0.2963 -0.9431
   92MOL   H15929461  -4.328   2.506   3.655 -0.8310 -0.0241  0.0607
   92MOL   H16029462  -4.065   2.589   3.669  1.3059  1.8614 -1.6421
   92MOL   H16129463  -3.845   2.505   3.658  0.5108 -0.0717 -0.2511
   92MOL   C16229464  -4.341   2.561   3.449 -0.2091 -0.2174 -0.7673
   92MOL   C16329465  -4.480   2.600   3.474  0.3662 -0.0875  0.7593
   92MOL   C16429466  -4.510   2.733   3.505  0.6212 -0.0909 -0.3129
   92MOL   C16529467  -4.646   2.768   3.487 -0.2295  0.3849 -0.0805
   92MOL   C16629468  -4.747   2.671   3.475 -0.1413  0.1345  0.4249
   92MOL   C16729469  -4.885   2.719   3.433 -0.2572 -0.8178  0.2173
   92MOL   C16829470  -4.716   2.537   3.466  0.3033 -0.3879  0.4137
   92MOL   C16929471  -4.583   2.504   3.453  0.4547  0.1195 -0.6056
   92MOL   H17029472  -4.334   2.520   3.348  2.5227  1.6351 -1.3903
   92MOL   H17129473  -4.271   2.645   3.443  2.6733 -2.4914 -0.3182
   92MOL   H17229474  -4.435   2.811   3.511  1.4121 -0.8817  0.1536
   92MOL   H17329475  -4.679   2.871   3.489  0.2457  0.5482 -0.6711
   92MOL   H17429476  -4.967   2.655   3.465 -1.6274  1.3220  1.1766
   92MOL   H17529477  -4.903   2.814   3.483 -1.2432  0.4298 -2.3819
   92MOL   H17629478  -4.793   2.464   3.447 -0.0322  0.6046 -2.1946
   92MOL   H17729479  -4.568   2.398   3.434  0.7058 -0.0992  0.7696
   92MOL   C17829480  -4.894   2.754   3.286 -0.2399  0.0644 -0.3042
   92MOL   C17929481  -5.029   2.818   3.249 -0.3686 -0.0166 -0.2041
   92MOL   C18029482  -5.121   2.739   3.177  0.4856  0.1912 -0.1514
   92MOL   C18129483  -5.246   2.798   3.142  0.2228 -0.3975 -0.1501
   92MOL   C18229484  -5.273   2.930   3.178 -0.7757 -0.3880 -0.6398
   92MOL   C18329485  -5.411   2.993   3.152 -0.0135  0.7087  0.1620
   92MOL   C18429486  -5.170   3.012   3.235 -0.6793  0.3483  0.1056
   92MOL   C18529487  -5.049   2.956   3.277  1.1687 -0.3793  0.5225
   92MOL   H18629488  -4.880   2.661   3.232 -0.6570  0.8460 -1.7729
   92MOL   H18729489  -4.810   2.820   3.264  0.3962 -0.9418 -0.8953
   92MOL   H18829490  -5.100   2.636   3.152  1.1677 -0.0061  1.1502
   92MOL   H18929491  -5.320   2.732   3.098  2.5226 -2.2012 -1.4445
   92MOL   H19029492  -5.493   2.923   3.161 -0.4191  1.1462 -0.1163
   92MOL   H19129493  -5.434   3.057   3.238  0.7449  1.8034 -0.4400
   92MOL   H19229494  -5.198   3.115   3.255  2.7458  1.8601 -2.3621
   92MOL   H19329495  -4.970   3.012   3.325  1.2037  0.8134 -0.8806
   92MOL   C19429496  -5.416   3.055   3.016  0.0039  0.4916 -0.4756
   92MOL   C19529497  -5.533   3.152   2.988 -0.0855  0.4682  0.6101
   92MOL   C19629498  -5.667   3.105   2.977  0.8336  0.0588 -0.3822
   92MOL   C19729499  -5.777   3.196   2.963  0.3615 -0.1682 -0.5073
   92MOL   C19829500  -5.754   3.336   2.970  0.2459 -0.6866  0.7508
   92MOL   C19929501  -5.871   3.430   2.984 -0.7800  0.4014 -0.5324
   92MOL   C20029502  -5.625   3.379   2.982 -0.8028  0.1307 -0.0542
   92MOL   C20129503  -5.512   3.288   2.994  0.2808  0.4737 -0.1743
   92MOL   H20229504  -5.424   2.967   2.952 -1.6922  0.0327  0.3467
   92MOL   H20329505  -5.322   3.106   2.997 -0.4875  1.1669 -1.1061
   92MOL   H20429506  -5.697   3.002   2.984 -0.0970  0.3028 -0.7122
   92MOL   H20529507  -5.882   3.171   2.950 -0.4354  2.2624  0.9447
   92MOL   H20629508  -5.830   3.528   3.010  2.2054 -0.5740 -1.3026
   92MOL   H20729509  -5.925   3.430   2.889  1.3666  0.9568 -1.7904
   92MOL   H20829510  -5.621   3.487   2.985 -2.3153  0.1637  2.0268
   92MOL   H20929511  -5.415   3.335   3.003  0.1079  0.8092 -0.0437
   92MOL   C21029512  -5.961   3.397   3.109 -0.4660 -0.1403 -0.0415
   92MOL   C21129513  -5.874   3.383   3.235  0.1453  0.0330  0.1326
   92MOL   C21229514  -5.826   3.258   3.282  0.4543  0.3993  0.2135
   92MOL   C21329515  -5.744   3.251   3.400 -0.8180 -0.3709 -0.6714
   92MOL   C21429516  -5.695   3.371   3.460  0.4922 -0.1216 -0.1907
   92MOL   C21529517  -5.586   3.367   3.570 -0.3255 -0.3453  0.0752
   92MOL   C21629518  -5.743   3.494   3.416  0.0128  0.6452  0.5566
   92MOL   C21729519  -5.821   3.501   3.297 -0.3019  0.6932 -0.4622
   92MOL   H21829520  -6.010   3.301   3.095  0.3326 -0.6628  0.7331
   92MOL   H21929521  -6.037   3.474   3.121 -0.8517 -0.6883  1.0612
   92MOL   H22029522  -5.857   3.169   3.229  0.9747  0.1271  0.3690
   92MOL   H22129523  -5.702   3.159   3.436  0.4373  0.2804 -0.4379
   92MOL   H22229524  -5.610   3.438   3.649  1.8495  1.3998 -0.7548
   92MOL   H22329525  -5.584   3.267   3.614  1.9472 -0.1035  0.6088
   92MOL   H22429526  -5.711   3.587   3.460 -2.3271  0.3521  2.9958
   92MOL   H22529527  -5.839   3.601   3.259 -1.4457  1.4821  2.0693
   92MOL   C22629528  -5.451   3.401   3.505 -0.5309  0.1978  0.3957
   92MOL   C22729529  -5.336   3.386   3.601  0.2070 -0.0010  0.2493
   92MOL   C22829530  -5.252   3.273   3.584  0.6254 -0.5421 -0.2066
   92MOL   C22929531  -5.140   3.257   3.668  0.1799 -0.5572 -0.8648
   92MOL   C23029532  -5.103   3.350   3.765  0.3871 -0.1076 -0.2243
   92MOL   C23129533  -4.992   3.314   3.854  0.0908 -0.2074  0.0035
   92MOL   C23229534  -5.188   3.469   3.776 -0.4992  0.0894  0.6253
   92MOL   C23329535  -5.301   3.485   3.693  0.1070  0.7552 -0.5425
   92MOL   H23429536  -5.448   3.501   3.462 -1.1438  0.6055  1.2733
   92MOL   H23529537  -5.443   3.344   3.412 -0.9154  1.7659 -0.6086
   92MOL   H23629538  -5.280   3.211   3.500  1.0260  0.9341 -1.4368
   92MOL   H23729539  -5.075   3.172   3.652  0.3829 -0.4807 -0.4472
   92MOL   H23829540  -5.026   3.324   3.957  0.3503 -2.4414  0.3263
   92MOL   H23929541  -4.964   3.209   3.846  0.1314 -0.0573 -2.2068
   92MOL   H24029542  -5.159   3.559   3.829 -1.4709 -0.9424  2.9912
   92MOL   H24129543  -5.360   3.574   3.681 -1.2883 -0.4794 -3.2215
   92MOL   C24229544  -4.871   3.400   3.827  0.2495 -0.1323 -0.2077
   92MOL   C24329545  -4.751   3.362   3.905  0.0921  0.2974 -0.1847
   92MOL   C24429546  -4.743   3.393   4.042 -0.7267  0.1017  0.1078
   92MOL   C24529547  -4.621   3.364   4.111  0.4390  0.7260  0.1805
   92MOL   C24629548  -4.513   3.304   4.046  0.7903 -0.2294  0.3771
   92MOL   C24729549  -4.389   3.282   4.129  0.2247  0.1516  0.0953
   92MOL   C24829550  -4.521   3.264   3.913 -0.5145  0.1463 -0.8235
   92MOL   C24929551  -4.639   3.303   3.840  0.2590 -0.6437 -0.6139
   92MOL   H25029552  -4.842   3.397   3.722  1.0203  1.4632 -0.0586
   92MOL   H25129553  -4.874   3.505   3.856  0.4399 -0.3241  0.5033
   92MOL   H25229554  -4.824   3.440   4.095 -1.2548 -2.4971  1.6947
   92MOL   H25329555  -4.619   3.387   4.216 -1.7242  2.4328 -0.1097
   92MOL   H25429556  -4.408   3.208   4.206  2.8374 -0.7053 -0.0291
   92MOL   H25529557  -4.323   3.236   4.056 -0.0795  1.5123 -1.0653
   92MOL   H25629558  -4.438   3.208   3.872  1.5549 -0.0125  3.2959
   92MOL   H25729559  -4.652   3.272   3.738  1.0556  0.3696 -1.0364
   92MOL   C25829560  -4.329   3.405   4.201 -0.2811 -0.4638  0.4570
   92MOL   C25929561  -4.189   3.381   4.263 -0.3423 -0.2086 -0.4649
   92MOL   C26029562  -4.159   3.288   4.363 -0.0229  0.2056  0.3776
   92MOL   C26129563  -4.031   3.286   4.424  0.7798 -0.2349 -0.1601
   92MOL   C26229564  -3.928   3.371   4.386  0.0264 -0.5041  0.2795
   92MOL   C26329565  -3.789   3.364   4.449 -0.3365 -0.3325 -0.4071
   92MOL   C26429566  -3.956   3.463   4.287  0.1178  0.5447 -0.2609
   92MOL   C26529567  -4.083   3.473   4.220  0.2047 -0.9115 -0.7755
   92MOL   H26629568  -4.396   3.455   4.270  1.8611  1.0581  1.4657
   92MOL   H26729569  -4.327   3.492   4.134 -0.3332 -1.2424 -0.5797
   92MOL   H26829570  -4.239   3.223   4.393  1.8787 -1.9432  0.8933
   92MOL   H26929571  -4.013   3.211   4.499  2.3415  0.8019  0.5528
   92MOL   H27029572  -3.808   3.388   4.554 -0.4261  0.5629 -0.6273
   92MOL   H27129573  -3.742   3.266   4.439  1.2421  0.0411  2.6633
   92MOL   H27229574  -3.883   3.536   4.256 -0.6035  1.5468  0.3726
   92MOL   H27329575  -4.104   3.542   4.139 -0.1485 -0.1473 -0.0435
   92MOL   C27429576  -3.693   3.469   4.387  0.0427  0.2122 -0.1153
   92MOL   C27529577  -3.547   3.441   4.433 -0.9986  0.0325  0.6514
   92MOL   C27629578  -3.437   3.441   4.345 -0.1637 -0.6108 -0.6278
   92MOL   C27729579  -3.304   3.410   4.386  0.3145 -0.0152 -0.4292
   92MOL   C27829580  -3.285   3.377   4.525  0.1866  0.5129 -0.1450
   92MOL   C27929581  -3.149   3.341   4.571 -0.5786  0.5675  0.0694
   92MOL   C28029582  -3.390   3.397   4.618 -0.1440  0.2700  1.1336
   92MOL   C28129583  -3.520   3.418   4.572  0.3996  0.8309 -0.2063
   92MOL   H28229584  -3.689   3.475   4.278  0.7730  0.6262 -0.0691
   92MOL   H28329585  -3.720   3.571   4.413 -0.9985 -0.1352  0.1665
   92MOL   H28429586  -3.453   3.452   4.238  1.5084  1.0512 -0.7406
   92MOL   H28529587  -3.217   3.416   4.321  2.1077  0.4383  1.9484
   92MOL   H28629588  -3.155   3.261   4.645 -0.8632 -3.1197 -3.7356
   92MOL   H28729589  -3.114   3.281   4.487 -2.9330  0.8383 -1.1704
   92MOL   H28829590  -3.359   3.377   4.719 -0.4792 -1.6023  0.8885
   92MOL   H28929591  -3.602   3.417   4.642  0.7842  1.1967  0.2466
   92MOL   C29029592  -3.055   3.456   4.601  0.0541  0.0896  0.3605
   92MOL   C29129593  -2.909   3.409   4.600 -0.0126 -0.6228  0.5287
   92MOL   C29229594  -2.869   3.305   4.681  0.1735 -0.2288 -0.1606
   92MOL   C29329595  -2.731   3.265   4.678  0.3428  0.0865 -0.4859
   92MOL   C29429596  -2.639   3.333   4.601 -0.6570 -0.2922 -0.1205
   92MOL   C29529597  -2.489   3.296   4.601  0.3407  0.3788 -0.5285
   92MOL   C29629598  -2.679   3.439   4.517  0.7150 -0.4215  0.0048
   92MOL   C29729599  -2.816   3.474   4.517 -0.8128  0.6979 -0.1752
   92MOL   H29829600  -3.078   3.501   4.698 -3.1894  2.9671 -1.6339
   92MOL   H29929601  -3.059   3.536   4.528 -1.0543 -1.7084 -1.6035
   92MOL   H30029602  -2.942   3.248   4.737  0.4593 -0.9369 -0.4917
   92MOL   H30129603  -2.703   3.185   4.744 -2.1556  0.4497  1.0974
   92MOL   H30229604  -2.475   3.199   4.648  2.2928 -0.1003 -2.0336
   92MOL   H30329605  -2.453   3.283   4.499  0.9460  0.6980 -0.3533
   92MOL   H30429606  -2.614   3.504   4.461 -0.1075  0.1565 -0.2842
   92MOL   H30529607  -2.850   3.560   4.461  0.9606  1.5267 -0.0332
   92MOL   C30629608  -2.407   3.406   4.673 -0.0370  0.5358 -0.3694
   92MOL   C30729609  -2.259   3.386   4.680  0.3469 -0.6842  1.2072
   92MOL   C30829610  -2.179   3.387   4.566  0.4964 -0.5818 -0.2197
   92MOL   C30929611  -2.037   3.380   4.575  0.3636 -0.2681  0.6190
   92MOL   C31029612  -1.975   3.373   4.701  0.6654  0.5702 -0.1398
   92MOL   C31129613  -1.830   3.377   4.720  0.0486  0.2246 -0.2381
   92MOL   C31229614  -2.057   3.363   4.818 -0.2102  0.7140 -0.7471
   92MOL   C31329615  -2.197   3.374   4.805 -0.2158 -0.0356 -0.0656
   92MOL   H31429616  -2.462   3.406   4.767 -0.7094  0.7549 -0.7563
   92MOL   H31529617  -2.426   3.500   4.620 -1.2688  1.3127  1.3810
   92MOL   H31629618  -2.217   3.381   4.465 -0.6478 -0.4067  0.1925
   92MOL   H31729619  -1.970   3.394   4.491 -1.6179  1.8419 -0.6472
   92MOL   H31829620  -1.786   3.473   4.746 -2.2138  0.5966  2.4494
   92MOL   H31929621  -1.796   3.298   4.787  2.7957  0.7111 -1.0033
   92MOL   H32029622  -2.017   3.360   4.919  0.3748  1.3573 -0.9584
   92MOL   H32129623  -2.262   3.373   4.891  0.9314  1.0347  0.8396
   92MOL   H32229624  -1.792   3.346   4.623  0.4089 -0.8818  0.2395
   93MOL     C129625   1.970   2.997   5.151 -0.7827 -0.0441  0.0599
   93MOL     C229626   1.818   3.016   5.147 -0.6546  0.4851 -0.5833
   93MOL     C329627   1.746   3.023   5.027 -0.0815 -0.3082 -1.0331
   93MOL     C429628   1.609   3.056   5.020  0.1378  0.2056  0.6481
   93MOL     C529629   1.535   3.076   5.139 -0.2120  0.2395 -0.4739
   93MOL     C629630   1.388   3.119   5.136  0.4015  0.0160  0.2831
   93MOL     C729631   1.607   3.051   5.257  0.8335 -0.1575 -0.5563
   93MOL     C829632   1.745   3.027   5.264  0.7946 -0.4522 -0.8077
   93MOL     H929633   2.015   2.963   5.058 -0.8165  0.6837 -0.2254
   93MOL    H1029634   2.017   3.091   5.181 -2.8445  0.8310  0.5891
   93MOL    H1129635   1.800   3.005   4.935  1.3965 -1.1954 -0.0041
   93MOL    H1229636   1.561   3.060   4.923  0.8454 -0.7631  0.2547
   93MOL    H1329637   1.384   3.227   5.135  0.0849  0.0186  1.5923
   93MOL    H1429638   1.338   3.084   5.046  2.4644 -1.2346 -0.4201
   93MOL    H1529639   1.549   3.049   5.348  0.0880  0.9885 -0.9936
   93MOL    H1629640   1.797   3.026   5.359 -1.6550 -0.4336  0.5820
   93MOL    H1729641   1.998   2.919   5.222 -0.7349  0.2324  0.3418
   93MOL    C1829642   1.306   3.066   5.254 -0.3794  0.1577  0.9140
   93MOL    C1929643   1.162   3.109   5.250  0.0113  0.4580  0.9093
   93MOL    C2029644   1.121   3.241   5.276  0.4696 -0.3752 -0.6338
   93MOL    C2129645   0.989   3.272   5.273 -0.3784 -0.6077  0.0439
   93MOL    C2229646   0.892   3.174   5.236 -0.0690 -0.1828 -0.1598
   93MOL    C2329647   0.747   3.210   5.221  0.2571  0.5063 -0.4863
   93MOL    C2429648   0.938   3.043   5.207 -0.5303 -0.0901 -0.3386
   93MOL    C2529649   1.071   3.009   5.222  0.7693 -0.3641  0.7003
   93MOL    H2629650   1.314   2.958   5.264  0.9354  0.3148  1.6092
   93MOL    H2729651   1.352   3.107   5.344  0.0736 -0.2421  0.8620
   93MOL    H2829652   1.190   3.320   5.303 -0.7085 -0.1627  1.8597
   93MOL    H2929653   0.967   3.377   5.283 -0.6036 -0.5475 -0.9715
   93MOL    H3029654   0.723   3.209   5.114  0.2819  1.6260 -0.5037
   93MOL    H3129655   0.730   3.316   5.238  0.4271  0.4388  0.1191
   93MOL    H3229656   0.857   2.977   5.181  0.1993 -1.1380  0.0341
   93MOL    H3329657   1.101   2.905   5.212  0.3273 -0.3204 -1.1846
   93MOL    C3429658   0.654   3.120   5.306 -0.4777  0.0165 -1.1635
   93MOL    C3529659   0.508   3.165   5.289  0.5032 -0.8833  0.1640
   93MOL    C3629660   0.458   3.279   5.346 -0.2510  0.0148  0.9593
   93MOL    C3729661   0.327   3.319   5.317  0.9540 -0.1055  0.2103
   93MOL    C3829662   0.247   3.237   5.232 -0.4070  0.5046  0.5302
   93MOL    C3929663   0.098   3.284   5.209 -0.4748  0.3862  0.1561
   93MOL    C4029664   0.300   3.125   5.166  0.2715  0.0626  0.5142
   93MOL    C4129665   0.431   3.091   5.195  0.3199  0.3109  0.4202
   93MOL    H4229666   0.683   3.147   5.407  2.2812 -2.8192 -1.1240
   93MOL    H4329667   0.678   3.013   5.310 -2.0047 -0.3218 -0.5998
   93MOL    H4429668   0.514   3.330   5.424 -0.5195 -0.7994  1.6877
   93MOL    H4529669   0.294   3.415   5.355  1.1622  0.2068 -0.4003
   93MOL    H4629670   0.099   3.392   5.197  1.2276  0.3359 -0.3863
   93MOL    H4729671   0.052   3.236   5.123 -0.5174  0.0890  0.3416
   93MOL    H4829672   0.249   3.071   5.088  0.8743  0.2615 -0.0210
   93MOL    H4929673   0.474   3.004   5.147 -0.4318 -1.2285  2.4712
   93MOL    C5029674   0.022   3.239   5.339 -0.1337  0.1631 -0.0017
   93MOL    C5129675  -0.124   3.289   5.345  0.1143  0.0909 -0.2253
   93MOL    C5229676  -0.219   3.242   5.252  0.3376 -0.0236 -0.2456
   93MOL    C5329677  -0.349   3.292   5.250 -0.3760  1.2955 -0.3620
   93MOL    C5429678  -0.386   3.382   5.349 -0.1569  0.5854 -0.0009
   93MOL    C5529679  -0.530   3.434   5.338  0.1437 -0.6692  0.3155
   93MOL    C5629680  -0.294   3.432   5.443 -0.7277  0.6944 -0.0825
   93MOL    C5729681  -0.161   3.388   5.438 -0.9521 -0.2637 -0.1499
   93MOL    H5829682   0.081   3.274   5.424  0.7522  0.5018 -0.7490
   93MOL    H5929683   0.021   3.132   5.358  3.1301  0.5171  2.6520
   93MOL    H6029684  -0.210   3.154   5.189 -0.8842 -1.0286  0.9552
   93MOL    H6129685  -0.425   3.244   5.190  0.3765  0.5251 -0.6988
   93MOL    H6229686  -0.552   3.504   5.418 -0.6662 -0.6927  0.1226
   93MOL    H6329687  -0.564   3.481   5.245  1.9781  1.9393  0.9051
   93MOL    H6429688  -0.323   3.514   5.507  0.6603  1.4551 -0.4065
   93MOL    H6529689  -0.077   3.429   5.491 -0.0767 -1.1731 -0.8077
   93MOL    C6629690  -0.639   3.331   5.374 -0.0464  0.3992 -0.2721
   93MOL    C6729691  -0.766   3.398   5.409  0.1687  0.4977 -0.6548
   93MOL    C6829692  -0.782   3.477   5.521  0.1046 -0.5799  0.3369
   93MOL    C6929693  -0.907   3.536   5.554  0.4883  0.8829  0.1876
   93MOL    C7029694  -1.009   3.534   5.462  0.1268  0.1867 -0.2537
   93MOL    C7129695  -1.146   3.592   5.500  0.9872 -0.0265 -0.5445
   93MOL    C7229696  -0.999   3.446   5.354  0.1197 -0.5150  0.5667
   93MOL    C7329697  -0.877   3.382   5.324 -0.0107 -0.4825 -0.6669
   93MOL    H7429698  -0.611   3.269   5.459  1.2972  0.3676 -0.7186
   93MOL    H7529699  -0.643   3.263   5.289  1.7779 -0.1417  0.0458
   93MOL    H7629700  -0.699   3.488   5.589 -0.5882 -1.8309  1.4122
   93MOL    H7729701  -0.919   3.571   5.656 -0.0965  1.0363  0.0672
   93MOL    H7829702  -1.199   3.626   5.412  0.6110 -1.8301 -1.0269
   93MOL    H7929703  -1.121   3.686   5.551  1.0330 -0.2866 -0.0897
   93MOL    H8029704  -1.087   3.430   5.293  0.0712  2.0599 -0.0943
   93MOL    H8129705  -0.866   3.326   5.232 -0.3296  0.0277 -1.0254
   93MOL    C8229706  -1.243   3.521   5.592 -0.1413  0.1992 -0.2857
   93MOL    C8329707  -1.370   3.598   5.617  0.2954  0.1720  0.3274
   93MOL    C8429708  -1.471   3.582   5.517 -0.2791  0.1064  0.0414
   93MOL    C8529709  -1.593   3.644   5.535  0.0858 -0.3701 -0.1482
   93MOL    C8629710  -1.613   3.735   5.640  0.4325 -0.1057  0.4388
   93MOL    C8729711  -1.748   3.804   5.658 -0.6800  0.4105  0.4435
   93MOL    C8829712  -1.515   3.756   5.740  0.1760  0.0463  0.6830
   93MOL    C8929713  -1.384   3.690   5.720  0.6447 -0.6208 -1.0922
   93MOL    H9029714  -1.191   3.501   5.686  0.3059  0.4853 -0.4695
   93MOL    H9129715  -1.267   3.429   5.539  0.5182  1.2965 -2.5138
   93MOL    H9229716  -1.457   3.519   5.430  2.1993  1.4548 -0.5847
   93MOL    H9329717  -1.671   3.614   5.467 -0.2824  1.9537 -0.7807
   93MOL    H9429718  -1.821   3.767   5.587  0.5956 -0.6573 -0.3430
   93MOL    H9529719  -1.734   3.911   5.640  1.2185  0.2209  0.6321
   93MOL    H9629720  -1.547   3.816   5.823 -0.4656 -0.2326  0.6472
   93MOL    H9729721  -1.307   3.706   5.794  0.0740 -1.1617 -0.3717
   93MOL    C9829722  -1.821   3.768   5.786  0.9155 -0.3222  0.0837
   93MOL    C9929723  -1.965   3.819   5.793  0.0874 -0.3632  0.0410
   93MOL   C10029724  -2.045   3.759   5.893  0.5092  0.4594 -0.0221
   93MOL   C10129725  -2.182   3.790   5.903 -0.4198  0.2033  0.4190
   93MOL   C10229726  -2.235   3.883   5.815  1.1101 -0.5430  0.6309
   93MOL   C10329727  -2.379   3.928   5.834  0.5021  0.0715 -0.5386
   93MOL   C10429728  -2.155   3.943   5.714 -0.2392 -0.0809 -0.1858
   93MOL   C10529729  -2.019   3.914   5.702 -0.2511 -0.0988 -0.5158
   93MOL   H10629730  -1.765   3.807   5.872 -0.2282  0.9322  0.2831
   93MOL   H10729731  -1.845   3.662   5.785 -1.0939  0.1154  0.1808
   93MOL   H10829732  -2.013   3.685   5.964 -1.3747 -0.5449 -0.1853
   93MOL   H10929733  -2.236   3.744   5.984  0.5809  0.8601  1.4765
   93MOL   H11029734  -2.396   3.918   5.942  1.5582 -0.7938 -0.4422
   93MOL   H11129735  -2.388   4.036   5.820  0.9102  0.3426  1.1464
   93MOL   H11229736  -2.193   4.021   5.649  0.1851 -1.1518 -1.7332
   93MOL   H11329737  -1.956   3.973   5.638  0.8255  0.0645  0.6823
   93MOL   C11429738  -2.486   3.845   5.760  0.5405 -0.5750 -0.3191
   93MOL   C11529739  -2.632   3.857   5.806  0.0155 -0.6314 -0.3844
   93MOL   C11629740  -2.714   3.744   5.839  0.7658  0.6232 -0.1175
   93MOL   C11729741  -2.845   3.763   5.893 -0.5724  0.1286 -0.7101
   93MOL   C11829742  -2.903   3.896   5.899  0.1384  0.7386 -0.2023
   93MOL   C11929743  -3.049   3.908   5.935 -0.2110 -0.4669  0.0654
   93MOL   C12029744  -2.822   4.005   5.872  0.2631 -0.1886 -0.2293
   93MOL   C12129745  -2.688   3.987   5.830  0.4325  0.1005 -0.2702
   93MOL   H12229746  -2.455   3.741   5.748  2.0104  0.1632 -3.6304
   93MOL   H12329747  -2.493   3.891   5.661  2.5434  0.1498 -0.1650
   93MOL   H12429748  -2.681   3.642   5.826 -0.1501  0.4964 -1.5127
   93MOL   H12529749  -2.895   3.672   5.923  1.9527 -0.6400  1.3798
   93MOL   H12629750  -3.095   3.916   5.836  1.2475  0.2382 -0.5642
   93MOL   H12729751  -3.077   3.810   5.973 -0.5491  0.3279  1.9238
   93MOL   H12829752  -2.853   4.104   5.904  1.0183 -0.2706  0.7666
   93MOL   H12929753  -2.626   4.075   5.821  0.1494  0.1831 -1.5129
   93MOL   C13029754  -3.103   4.022   6.033  0.7214  0.4642 -0.7070
   93MOL   C13129755  -3.253   4.024   6.047 -0.1026 -0.3803 -0.4714
   93MOL   C13229756  -3.329   4.140   6.046  0.6281 -0.7353  0.7973
   93MOL   C13329757  -3.471   4.133   6.062 -0.3938 -1.0412  0.5901
   93MOL   C13429758  -3.536   4.014   6.055 -0.0850  0.6358  0.3901
   93MOL   C13529759  -3.690   4.004   6.066  0.4328 -0.2340  0.0968
   93MOL   C13629760  -3.459   3.899   6.040  0.0055 -0.7494  0.5807
   93MOL   C13729761  -3.318   3.901   6.045  1.4100  0.0490  0.5945
   93MOL   H13829762  -3.073   4.122   6.000 -2.1334  1.2833 -0.9309
   93MOL   H13929763  -3.053   4.008   6.128 -0.2313 -0.9507 -0.4042
   93MOL   H14029764  -3.274   4.233   6.039  1.3353 -0.7605  4.7535
   93MOL   H14129765  -3.524   4.227   6.066  0.0368 -0.8152  0.9889
   93MOL   H14229766  -3.703   3.896   6.070 -0.5610 -0.1256 -0.0452
   93MOL   H14329767  -3.730   4.040   6.161  0.2992  0.4991 -0.2335
   93MOL   H14429768  -3.502   3.800   6.048 -0.8842 -0.3419  0.8623
   93MOL   H14529769  -3.270   3.805   6.043 -0.9443 -1.1359 -1.3209
   93MOL   C14629770  -3.763   4.092   5.958 -0.2950  0.2734 -0.2936
   93MOL   C14729771  -3.915   4.092   5.977 -0.5594 -0.2024 -0.5760
   93MOL   C14829772  -3.993   3.963   5.975 -0.1501 -0.3660  0.0948
   93MOL   C14929773  -4.129   3.963   5.992  0.5555 -0.3954  0.4551
   93MOL   C15029774  -4.194   4.083   6.011  0.2292  0.4665 -0.7594
   93MOL   C15129775  -4.344   4.094   6.033  0.2507 -0.1892 -0.1053
   93MOL   C15229776  -4.124   4.204   6.016 -0.1624 -0.4867  0.3675
   93MOL   C15329777  -3.984   4.213   6.001 -0.2900 -0.5092 -0.1090
   93MOL   H15429778  -3.734   4.052   5.861  0.4528  0.0658  0.0183
   93MOL   H15529779  -3.718   4.191   5.953  0.2026 -0.0160 -1.6476
   93MOL   H15629780  -3.935   3.872   5.971  2.8601  1.3951  1.4507
   93MOL   H15729781  -4.186   3.872   5.984  0.2608 -0.2447  0.8465
   93MOL   H15829782  -4.370   4.016   6.105  0.3275  0.7630  0.9522
   93MOL   H15929783  -4.368   4.185   6.087 -0.4162  0.0040 -0.7183
   93MOL   H16029784  -4.189   4.291   6.023 -0.0481 -0.3519 -0.2093
   93MOL   H16129785  -3.932   4.307   6.007 -1.2018 -0.0992  2.2039
   93MOL   C16229786  -4.416   4.108   5.901  0.1683 -0.2796  0.2249
   93MOL   C16329787  -4.569   4.123   5.916  0.6570 -0.2148 -0.1905
   93MOL   C16429788  -4.630   4.243   5.953 -0.8989 -0.1441  0.2566
   93MOL   C16529789  -4.767   4.250   5.977  0.7688  0.1749  0.4576
   93MOL   C16629790  -4.852   4.137   5.961  0.5321  0.0752  0.0691
   93MOL   C16729791  -4.999   4.150   5.977 -0.1714 -0.1508  0.0751
   93MOL   C16829792  -4.795   4.018   5.921 -0.9787 -0.3236  0.1568
   93MOL   C16929793  -4.653   4.013   5.897  0.2873 -0.1568  0.2977
   93MOL   H17029794  -4.405   4.012   5.851 -0.4423  0.3755 -1.1744
   93MOL   H17129795  -4.382   4.175   5.822 -0.6256 -1.3079 -1.0132
   93MOL   H17229796  -4.567   4.328   5.972 -0.1929 -0.6810  0.3557
   93MOL   H17329797  -4.813   4.343   6.009 -2.4043 -0.8740 -0.9126
   93MOL   H17429798  -5.029   4.079   6.054  0.4091 -0.9975 -0.4757
   93MOL   H17529799  -5.013   4.236   6.043  0.7675  1.1867 -1.4265
   93MOL   H17629800  -4.849   3.926   5.907 -3.0127  0.9144 -0.3299
   93MOL   H17729801  -4.608   3.916   5.884  1.3236  0.6456 -2.3738
   93MOL   C17829802  -5.076   4.138   5.847 -0.0667  0.3525  0.5064
   93MOL   C17929803  -5.223   4.153   5.860 -0.2273 -0.0854  0.0281
   93MOL   C18029804  -5.274   4.265   5.787  0.5970 -0.0649  0.3242
   93MOL   C18129805  -5.414   4.288   5.791  0.0655 -0.6629  0.2102
   93MOL   C18229806  -5.492   4.208   5.879 -0.4868 -0.3024  0.7684
   93MOL   C18329807  -5.637   4.240   5.890  0.0702  0.5065  0.1921
   93MOL   C18429808  -5.433   4.114   5.961 -0.0488 -0.0727 -0.8481
   93MOL   C18529809  -5.300   4.075   5.947 -0.3118 -0.4421 -0.6900
   93MOL   H18629810  -5.063   4.032   5.825  0.2636  0.8591 -1.8539
   93MOL   H18729811  -5.041   4.209   5.773  1.0872  1.1433  1.7956
   93MOL   H18829812  -5.213   4.339   5.738 -0.1148 -0.3889 -1.0589
   93MOL   H18929813  -5.460   4.364   5.729  1.2843  1.3443  1.7018
   93MOL   H19029814  -5.662   4.237   5.996 -1.1634 -0.1126 -0.1002
   93MOL   H19129815  -5.661   4.342   5.860 -1.4567  0.6982  2.0069
   93MOL   H19229816  -5.492   4.058   6.032 -0.2964  1.0743 -0.1493
   93MOL   H19329817  -5.256   3.996   6.007 -1.6499 -2.4455 -2.3055
   93MOL   C19429818  -5.732   4.153   5.812  0.1366 -0.6202  0.3359
   93MOL   C19529819  -5.877   4.173   5.859  1.0968 -0.4594 -1.0567
   93MOL   C19629820  -5.962   4.267   5.794 -0.6213  0.0760  0.4545
   93MOL   C19729821  -6.089   4.289   5.846  0.5495 -0.7478  0.2810
   93MOL   C19829822  -6.137   4.230   5.964  0.1404  0.1799 -0.7961
   93MOL   C19929823  -6.279   4.260   6.014  0.0221 -0.2849 -0.0842
   93MOL   C20029824  -6.053   4.139   6.032 -0.2626 -0.7088  0.7128
   93MOL   C20129825  -5.926   4.111   5.978 -0.0473  0.4219 -0.5365
   93MOL   H20229826  -5.705   4.051   5.837  4.3110  0.3263  0.0735
   93MOL   H20329827  -5.738   4.163   5.704 -0.8155  0.2433  0.4499
   93MOL   H20429828  -5.934   4.324   5.707 -1.8280  0.0652  0.0525
   93MOL   H20529829  -6.146   4.369   5.801  0.6803 -0.3239  0.8668
   93MOL   H20629830  -6.350   4.208   5.949  1.9068 -3.4411  0.2955
   93MOL   H20729831  -6.292   4.224   6.116  0.4910  1.8768  0.7548
   93MOL   H20829832  -6.086   4.091   6.123 -1.3819 -1.4134 -0.0482
   93MOL   H20929833  -5.860   4.034   6.013 -0.1998  0.8164  0.6576
   93MOL   C21029834  -6.311   4.412   6.021  0.2110 -0.5573  0.3221
   93MOL   C21129835  -6.449   4.444   6.079 -0.4116  0.9592 -0.2769
   93MOL   C21229836  -6.532   4.543   6.025  0.3119  0.3001 -0.0551
   93MOL   C21329837  -6.663   4.567   6.074 -0.0774 -0.5709 -0.5233
   93MOL   C21429838  -6.713   4.496   6.180 -0.2803 -0.0527  0.5940
   93MOL   C21529839  -6.845   4.551   6.228  0.5989 -0.3368 -0.8542
   93MOL   C21629840  -6.637   4.389   6.232  0.4276 -0.2753  0.0239
   93MOL   C21729841  -6.504   4.368   6.185 -0.5169  0.5439  0.0096
   93MOL   H21829842  -6.316   4.447   5.918 -1.1379 -0.1248  0.5293
   93MOL   H21929843  -6.240   4.471   6.078 -1.9845  2.1339  0.3925
   93MOL   H22029844  -6.513   4.598   5.934 -3.2744  0.1591 -0.9571
   93MOL   H22129845  -6.721   4.645   6.026  2.0939  1.3078 -0.2060
   93MOL   H22229846  -6.860   4.541   6.336 -1.3397  1.6273 -0.9059
   93MOL   H22329847  -6.859   4.657   6.209  0.2419  0.2070  2.1536
   93MOL   H22429848  -6.679   4.318   6.302  1.7846 -1.5503 -0.4187
   93MOL   H22529849  -6.453   4.286   6.233 -0.9043  1.6799  2.4591
   93MOL   C22629850  -6.961   4.484   6.156  0.9992  0.4910 -0.0565
   93MOL   C22729851  -7.095   4.526   6.213 -0.2722 -0.0497 -0.2138
   93MOL   C22829852  -7.141   4.494   6.345  0.0941 -0.5524 -0.4355
   93MOL   C22929853  -7.269   4.525   6.381 -0.2314  0.3904 -0.3905
   93MOL   C23029854  -7.364   4.590   6.299  0.1972  0.1505 -0.9110
   93MOL   C23129855  -7.509   4.607   6.343 -0.2291  0.3824 -0.3216
   93MOL   C23229856  -7.317   4.629   6.167 -0.1284  0.1287 -0.7764
   93MOL   C23329857  -7.185   4.592   6.130 -0.0935  0.0033  0.3469
   93MOL   H23429858  -6.972   4.376   6.169 -2.3938  0.9057  0.9954
   93MOL   H23529859  -6.958   4.500   6.048 -1.9089 -0.0488 -0.2636
   93MOL   H23629860  -7.081   4.437   6.414 -1.0258  0.5934  1.5423
   93MOL   H23729861  -7.301   4.487   6.476  2.3268 -0.1166  0.3223
   93MOL   H23829862  -7.564   4.519   6.308 -2.2488  1.2521  0.5859
   93MOL   H23929863  -7.510   4.606   6.452 -0.6793 -0.9963 -0.3175
   93MOL   H24029864  -7.393   4.658   6.095 -0.7482  0.1242 -0.1340
   93MOL   H24129865  -7.167   4.594   6.024 -3.1729 -0.6191 -0.2427
   93MOL   C24229866  -7.587   4.732   6.300 -0.7204  0.6002 -0.0731
   93MOL   C24329867  -7.727   4.727   6.360  0.2394  0.0826 -0.5382
   93MOL   C24429868  -7.750   4.738   6.502  0.5257 -0.0613  0.1343
   93MOL   C24529869  -7.881   4.744   6.551 -0.4192  0.5056  1.0512
   93MOL   C24629870  -7.990   4.739   6.458  1.0509 -0.1972 -0.4123
   93MOL   C24729871  -8.134   4.746   6.496 -0.4237 -0.2861  0.2221
   93MOL   C24829872  -7.968   4.726   6.322 -1.0477  0.4014 -0.9114
   93MOL   C24929873  -7.840   4.725   6.271  0.5407  0.0685  0.3261
   93MOL   H25029874  -7.540   4.825   6.332  1.4600 -1.6643  3.5725
   93MOL   H25129875  -7.589   4.731   6.191 -0.9655  0.5748 -0.0669
   93MOL   H25229876  -7.659   4.725   6.560  1.2508  0.0890 -0.9469
   93MOL   H25329877  -7.899   4.745   6.658  1.1311 -1.9793  1.3654
   93MOL   H25429878  -8.193   4.681   6.431 -2.4510  1.0960  0.6257
   93MOL   H25529879  -8.151   4.723   6.601 -0.8409 -0.5369  0.1026
   93MOL   H25629880  -8.054   4.718   6.257 -1.7467  1.0256 -0.0833
   93MOL   H25729881  -7.830   4.703   6.166 -1.0957 -0.4335  0.2603
   93MOL   C25829882  -8.199   4.878   6.459 -0.1730  0.2579  0.9445
   93MOL   C25929883  -8.343   4.877   6.491  1.3123 -0.4314  0.0067
   93MOL   C26029884  -8.386   4.914   6.616  0.1723 -0.2876 -0.2786
   93MOL   C26129885  -8.525   4.912   6.642  0.3253 -0.3367 -0.2360
   93MOL   C26229886  -8.618   4.872   6.546  0.6270  0.2563 -0.0923
   93MOL   C26329887  -8.767   4.869   6.577  0.0097  0.0883 -0.1128
   93MOL   C26429888  -8.571   4.832   6.425  0.1467 -0.7733  0.5039
   93MOL   C26529889  -8.439   4.840   6.393 -0.2714  0.0898 -0.4180
   93MOL   H26629890  -8.196   4.899   6.352  2.0999 -2.6221  0.3786
   93MOL   H26729891  -8.147   4.957   6.514  0.6568  0.4009 -0.0339
   93MOL   H26829892  -8.308   4.951   6.681  0.9990  0.7154 -1.8153
   93MOL   H26929893  -8.560   4.935   6.742  1.8998 -1.7690  0.6719
   93MOL   H27029894  -8.825   4.807   6.509 -0.0779  0.3378 -0.2665
   93MOL   H27129895  -8.780   4.816   6.671 -0.6665  1.4093  0.5542
   93MOL   H27229896  -8.649   4.813   6.353 -1.1034  1.0615  1.3378
   93MOL   H27329897  -8.398   4.810   6.298  2.0669  0.4624  0.4546
   93MOL   C27429898  -8.830   5.010   6.579 -0.4846 -0.6592  0.6207
   93MOL   C27529899  -8.963   5.025   6.635  0.4384  0.5813 -0.2331
   93MOL   C27629900  -8.986   5.078   6.767  0.5789 -0.1309  0.2810
   93MOL   C27729901  -9.117   5.088   6.818 -0.0841 -0.1042 -0.2881
   93MOL   C27829902  -9.228   5.056   6.738 -0.4299  0.2144  0.1167
   93MOL   C27929903  -9.365   5.066   6.786  0.6527  0.6049 -0.0259
   93MOL   C28029904  -9.204   5.007   6.603  0.3223  0.1382 -0.1029
   93MOL   C28129905  -9.075   4.991   6.554 -0.4598 -0.4983 -0.3588
   93MOL   H28229906  -8.767   5.074   6.641  0.3231 -1.0585  0.2193
   93MOL   H28329907  -8.831   5.061   6.482  1.1032 -0.8404  0.4972
   93MOL   H28429908  -8.909   5.115   6.833 -0.4819  0.9311  0.9613
   93MOL   H28529909  -9.130   5.115   6.921  0.8800 -2.4748  0.4766
   93MOL   H28629910  -9.422   4.988   6.736  0.9637 -0.8829  1.8812
   93MOL   H28729911  -9.371   5.047   6.893  1.0775  0.2328 -0.0700
   93MOL   H28829912  -9.285   4.984   6.535  1.9721 -1.5489 -1.5386
   93MOL   H28929913  -9.064   4.951   6.455 -2.4813  0.2632 -0.9111
   93MOL   C29029914  -9.442   5.193   6.761  0.2562  1.0126  0.5619
   93MOL   C29129915  -9.586   5.188   6.817 -0.8458  0.3396  0.2956
   93MOL   C29229916  -9.694   5.194   6.728 -0.3807 -0.1299  0.0579
   93MOL   C29329917  -9.826   5.195   6.775  0.4147  0.2489  0.1137
   93MOL   C29429918  -9.855   5.194   6.910 -1.3001  0.2951  0.5196
   93MOL   C29529919  -9.998   5.215   6.956  0.1734 -0.2290 -0.1630
   93MOL   C29629920  -9.748   5.182   6.998 -0.1502  0.4711  0.2331
   93MOL   C29729921  -9.614   5.175   6.954 -0.3204 -0.0479 -0.4765
   93MOL   H29829922  -9.446   5.225   6.657 -1.1097 -0.3141  0.1849
   93MOL   H29929923  -9.395   5.273   6.818 -0.5204  0.4008  2.1068
   93MOL   H30029924  -9.673   5.189   6.622  1.4152 -1.6162  0.4563
   93MOL   H30129925  -9.914   5.196   6.712 -0.7188 -1.0693  1.6463
   93MOL   H30229926 -10.072   5.178   6.886  1.0813 -1.0243 -0.7219
   93MOL   H30329927 -10.017   5.165   7.051 -0.1607  0.2509  0.0227
   93MOL   H30429928  -9.770   5.180   7.104 -2.4256  1.5872 -0.1817
   93MOL   H30529929  -9.534   5.154   7.023 -1.6881 -1.1088  0.8268
   93MOL   C30629930 -10.027   5.365   6.978 -0.0113 -0.0690  0.2970
   93MOL   C30729931 -10.162   5.384   7.053  0.9416  0.3567 -0.0771
   93MOL   C30829932 -10.168   5.343   7.187 -0.8653  0.5387 -0.0597
   93MOL   C30929933 -10.284   5.369   7.265  0.1308 -0.1648  0.3938
   93MOL   C31029934 -10.397   5.430   7.202  0.1409 -0.3626 -0.3331
   93MOL   C31129935 -10.514   5.485   7.286  0.4162  0.3960  0.2053
   93MOL   C31229936 -10.394   5.462   7.065 -0.1374  0.1882 -0.7990
   93MOL   C31329937 -10.277   5.439   6.990  0.1962 -0.2486  1.0523
   93MOL   H31429938 -10.020   5.424   6.886 -0.4027 -0.0629  0.2709
   93MOL   H31529939  -9.954   5.412   7.044  0.4861 -0.1268 -0.2056
   93MOL   H31629940 -10.079   5.299   7.230 -0.9553 -1.3988 -1.8045
   93MOL   H31729941 -10.299   5.339   7.368 -1.4250 -1.1583 -0.0941
   93MOL   H31829942 -10.495   5.591   7.305  0.3610  0.4516 -0.0472
   93MOL   H31929943 -10.607   5.468   7.232  0.2272 -1.1536  1.0051
   93MOL   H32029944 -10.482   5.499   7.015 -1.1318  0.5228  1.1775
   93MOL   H32129945 -10.272   5.455   6.884  1.1147 -0.2487  1.0923
   93MOL   H32229946 -10.523   5.426   7.377 -1.1693  2.5780  1.5313
   94MOL     C129947   7.433   7.002   2.506 -0.5994 -1.0240  0.3483
   94MOL     C229948   7.298   7.058   2.477  0.4155 -0.4059  0.9239
   94MOL     C329949   7.199   6.990   2.406  0.3935 -0.8168 -0.4641
   94MOL     C429950   7.076   7.056   2.386 -0.2436 -0.7267  0.0766
   94MOL     C529951   7.056   7.191   2.432 -0.0195 -0.4399 -1.3641
   94MOL     C629952   6.928   7.261   2.406 -0.5721 -0.0342 -0.0397
   94MOL     C729953   7.160   7.260   2.502  0.2158 -0.1820 -0.0480
   94MOL     C829954   7.283   7.192   2.518  0.4978  0.2416  0.3409
   94MOL     H929955   7.512   7.061   2.459 -1.6852  0.3407  0.2125
   94MOL    H1029956   7.457   7.010   2.612 -3.0082 -0.0815  0.8642
   94MOL    H1129957   7.219   6.890   2.369  1.8880 -0.4781 -0.5946
   94MOL    H1229958   7.003   7.021   2.314  0.1293  0.0535 -0.6964
   94MOL    H1329959   6.958   7.348   2.347  0.6670  0.8448  1.8310
   94MOL    H1429960   6.869   7.203   2.335  2.7157 -1.6992 -1.5361
   94MOL    H1529961   7.159   7.360   2.542  1.1919  0.4131 -1.4538
   94MOL    H1629962   7.366   7.249   2.556  1.1927 -0.7339  0.3226
   94MOL    H1729963   7.453   6.902   2.467  2.0775 -0.0238 -0.9812
   94MOL    C1829964   6.849   7.282   2.530  0.1724  0.6777 -0.2904
   94MOL    C1929965   6.729   7.367   2.505  0.2566 -0.2552 -0.2110
   94MOL    C2029966   6.624   7.322   2.422 -0.0796  0.2702 -0.6481
   94MOL    C2129967   6.511   7.403   2.402 -0.0641 -0.2582  0.4117
   94MOL    C2229968   6.497   7.531   2.458  0.3353 -0.2651 -0.2562
   94MOL    C2329969   6.374   7.615   2.446 -0.2383 -0.0768  0.2721
   94MOL    C2429970   6.608   7.578   2.528  0.2395 -0.3477 -0.0190
   94MOL    C2529971   6.722   7.496   2.555  0.0730  0.0597  0.5204
   94MOL    H2629972   6.827   7.187   2.580  1.5472 -0.1571 -1.2468
   94MOL    H2729973   6.915   7.338   2.597  0.1862  0.1619  0.1317
   94MOL    H2829974   6.629   7.220   2.386  0.3549 -0.2561  0.8380
   94MOL    H2929975   6.431   7.363   2.342  0.2114  0.7965 -0.6860
   94MOL    H3029976   6.349   7.604   2.340  0.1412  1.3850  0.0226
   94MOL    H3129977   6.396   7.717   2.476 -0.0484  0.9419 -3.1259
   94MOL    H3229978   6.616   7.678   2.568  0.8322 -0.9970  1.5115
   94MOL    H3329979   6.794   7.534   2.626 -1.2118  3.6566  0.0213
   94MOL    C3429980   6.256   7.563   2.532  0.4718  0.4043 -0.0213
   94MOL    C3529981   6.132   7.650   2.513  0.8178  0.0815 -0.7890
   94MOL    C3629982   6.040   7.618   2.406 -0.0170  0.3576 -0.6944
   94MOL    C3729983   5.917   7.688   2.396 -0.6333  0.0016 -0.2056
   94MOL    C3829984   5.903   7.803   2.473  0.2208  0.1913  0.1898
   94MOL    C3929985   5.779   7.893   2.456 -0.5920  0.0467  0.9300
   94MOL    C4029986   5.992   7.838   2.571  0.1223 -0.5700  0.6103
   94MOL    C4129987   6.106   7.760   2.596  0.0042 -0.2863  0.7522
   94MOL    H4229988   6.286   7.542   2.635 -1.8431 -0.1064  0.5930
   94MOL    H4329989   6.224   7.471   2.483 -0.4446  1.8459 -2.1952
   94MOL    H4429990   6.063   7.532   2.344  1.5902  1.6672 -1.9741
   94MOL    H4529991   5.843   7.657   2.324 -0.4508  0.5395 -0.6325
   94MOL    H4629992   5.789   7.986   2.512  1.4762  0.6417 -0.3754
   94MOL    H4729993   5.761   7.927   2.354  0.7068 -0.5494  0.4853
   94MOL    H4829994   5.988   7.930   2.628 -0.8068 -0.3735  0.2454
   94MOL    H4929995   6.174   7.805   2.667  1.0160 -0.7761  0.1055
   94MOL    C5029996   5.659   7.832   2.521 -0.0988 -0.6277 -0.4579
   94MOL    C5129997   5.531   7.919   2.520 -0.0155 -0.1090  0.4429
   94MOL    C5229998   5.441   7.909   2.414  0.5080  0.1572 -0.0425
   94MOL    C5329999   5.319   7.982   2.421  0.0721 -0.5695  0.3503
   94MOL    C5430000   5.288   8.060   2.538  0.4495  0.1805  0.5281
   94MOL    C5530001   5.156   8.131   2.552  0.6272  0.2046  0.2720
   94MOL    C5630002   5.385   8.073   2.643 -0.0901 -0.5897 -0.9666
   94MOL    C5730003   5.510   8.010   2.623 -0.0708  0.1752 -0.5238
   94MOL    H5830004   5.683   7.793   2.620 -0.3559 -0.7250 -0.4325
   94MOL    H5930005   5.637   7.743   2.463  0.3649 -0.7606 -0.4270
   94MOL    H6030006   5.449   7.834   2.337 -1.2339  0.7752 -0.8647
   94MOL    H6130007   5.252   7.981   2.337 -0.7573 -0.1929  0.9987
   94MOL    H6230008   5.154   8.192   2.641 -0.9935  0.5313  0.0315
   94MOL    H6330009   5.144   8.194   2.464  0.8074 -2.5540 -1.8230
   94MOL    H6430010   5.379   8.141   2.726 -0.6000 -0.0650 -1.4329
   94MOL    H6530011   5.586   8.029   2.698  0.6572  1.1260 -1.4886
   94MOL    C6630012   5.042   8.037   2.569 -0.3991  0.0011 -0.4897
   94MOL    C6730013   4.908   8.112   2.558 -0.3617  0.1670  0.1837
   94MOL    C6830014   4.864   8.197   2.665  0.1284 -0.0758 -0.7290
   94MOL    C6930015   4.745   8.279   2.648  0.5612  0.4367  0.4441
   94MOL    C7030016   4.669   8.254   2.532 -0.3494  0.3991 -0.7676
   94MOL    C7130017   4.543   8.340   2.524 -0.3355 -0.1193  0.3659
   94MOL    C7230018   4.707   8.161   2.432  0.0079  0.3208 -0.1617
   94MOL    C7330019   4.824   8.090   2.445 -0.0171  0.0252  0.3855
   94MOL    H7430020   5.046   7.999   2.671 -0.6670  3.0247  0.6914
   94MOL    H7530021   5.049   7.952   2.501  4.5957 -0.6702  0.6098
   94MOL    H7630022   4.922   8.209   2.756  1.6710 -1.3248 -1.5032
   94MOL    H7730023   4.710   8.348   2.723  0.7122  0.7378  0.2390
   94MOL    H7830024   4.498   8.290   2.439 -2.8514 -1.8243  2.6362
   94MOL    H7930025   4.562   8.439   2.482 -1.8002  0.0194 -0.0075
   94MOL    H8030026   4.642   8.157   2.345  0.7516  0.4811 -0.7292
   94MOL    H8130027   4.851   8.019   2.368 -0.3907  0.9536 -0.6123
   94MOL    C8230028   4.461   8.332   2.652  0.4939  1.2540  0.1860
   94MOL    C8330029   4.319   8.378   2.624 -1.1838 -0.6072  0.3260
   94MOL    C8430030   4.265   8.485   2.698 -0.0637  0.3277  0.3336
   94MOL    C8530031   4.129   8.507   2.699  0.2431 -0.4060 -0.0352
   94MOL    C8630032   4.034   8.430   2.625 -0.3177  0.2113  0.2935
   94MOL    C8730033   3.888   8.454   2.633  0.0847  0.5079  0.1008
   94MOL    C8830034   4.094   8.330   2.546  0.2683  0.4500 -0.7378
   94MOL    C8930035   4.231   8.301   2.542 -1.0133  0.0834 -0.0806
   94MOL    H9030036   4.505   8.394   2.730  0.3265  0.5589  0.8504
   94MOL    H9130037   4.462   8.230   2.691 -1.7590  0.4790 -1.6749
   94MOL    H9230038   4.327   8.543   2.765 -0.6976  0.6964  0.6003
   94MOL    H9330039   4.097   8.585   2.766 -0.9143 -0.2938 -0.7006
   94MOL    H9430040   3.858   8.451   2.738  1.8636 -2.9527  0.5756
   94MOL    H9530041   3.826   8.373   2.595 -0.1870  1.1885 -0.9234
   94MOL    H9630042   4.034   8.287   2.467  0.2422  1.7399 -1.4344
   94MOL    H9730043   4.265   8.211   2.494 -1.6285  0.5075 -1.3487
   94MOL    C9830044   3.855   8.592   2.564 -0.0707 -0.6293  0.2426
   94MOL    C9930045   3.710   8.616   2.586  0.4618 -0.1212 -0.2683
   94MOL   C10030046   3.685   8.707   2.689 -0.2545 -0.3485  0.5295
   94MOL   C10130047   3.554   8.739   2.726 -0.7573 -0.2503 -0.2250
   94MOL   C10230048   3.442   8.677   2.660 -0.9005  0.6172 -0.7270
   94MOL   C10330049   3.299   8.699   2.699  0.1491  0.1581 -0.2658
   94MOL   C10430050   3.473   8.586   2.557  0.9655 -0.3267  0.0553
   94MOL   C10530051   3.600   8.562   2.517  0.3031  0.3976  0.0331
   94MOL   H10630052   3.870   8.584   2.456 -0.3251  0.3744  0.1296
   94MOL   H10730053   3.911   8.676   2.603  1.1055 -1.2902 -0.0108
   94MOL   H10830054   3.763   8.762   2.739 -1.8963  3.2623 -0.7193
   94MOL   H10930055   3.523   8.809   2.802 -1.2024  0.3272 -0.9338
   94MOL   H11030056   3.245   8.604   2.696  1.3147 -0.5432  0.5104
   94MOL   H11130057   3.304   8.727   2.804 -0.2588 -0.1899 -0.1515
   94MOL   H11230058   3.392   8.542   2.501 -0.6959  1.1641  1.1903
   94MOL   H11330059   3.606   8.501   2.429  1.3136  0.8424 -0.2178
   94MOL   C11430060   3.218   8.791   2.607 -0.0827  0.0190 -0.1234
   94MOL   C11530061   3.098   8.853   2.670  0.2629  0.1984  0.6038
   94MOL   C11630062   3.114   8.918   2.794  0.0708 -0.5560 -0.4935
   94MOL   C11730063   2.999   8.970   2.866  0.3863 -0.4355  0.4071
   94MOL   C11830064   2.869   8.944   2.815  0.3810 -0.4307 -0.3639
   94MOL   C11930065   2.740   8.998   2.877  0.9570  1.1771  0.3623
   94MOL   C12030066   2.860   8.880   2.690  0.3806 -0.2552 -0.1728
   94MOL   C12130067   2.969   8.845   2.612 -0.3014  0.0572  0.5705
   94MOL   H12230068   3.200   8.728   2.520  0.3933  1.3759 -1.2231
   94MOL   H12330069   3.277   8.877   2.576 -0.0131 -0.4585 -1.3500
   94MOL   H12430070   3.210   8.933   2.840 -0.0056  0.9488 -0.7892
   94MOL   H12530071   3.020   9.025   2.957  0.1170 -0.6065  0.5761
   94MOL   H12630072   2.663   9.003   2.800  0.0900 -0.4695  1.0992
   94MOL   H12730073   2.698   8.925   2.947 -0.5591  1.5243 -0.1640
   94MOL   H12830074   2.764   8.862   2.642  0.5159  0.7111 -0.8219
   94MOL   H12930075   2.945   8.791   2.521 -2.0288  0.2096  0.9209
   94MOL   C13030076   2.750   9.126   2.953 -0.3816  0.3206 -0.0033
   94MOL   C13130077   2.615   9.179   2.983  0.4234  0.3568 -0.3364
   94MOL   C13230078   2.540   9.130   3.092  0.1596 -0.1493 -0.2931
   94MOL   C13330079   2.404   9.167   3.112 -0.1649 -0.0603 -0.4517
   94MOL   C13430080   2.343   9.258   3.025 -0.0204 -0.3393 -0.1661
   94MOL   C13530081   2.210   9.315   3.048 -0.6234 -0.3777  0.6420
   94MOL   C13630082   2.424   9.314   2.917 -0.1903  0.1092  0.4102
   94MOL   C13730083   2.559   9.275   2.902 -0.1874 -0.2112 -0.5722
   94MOL   H13830084   2.807   9.194   2.890 -1.6748  0.1993 -1.3296
   94MOL   H13930085   2.810   9.112   3.043 -0.5820  2.5332  0.5070
   94MOL   H14030086   2.580   9.047   3.149  0.0689 -0.6810 -0.9881
   94MOL   H14130087   2.348   9.127   3.195 -1.0206  0.0602 -0.9584
   94MOL   H14230088   2.178   9.267   3.141  2.1452 -0.4731  1.5906
   94MOL   H14330089   2.218   9.422   3.068  3.2292 -0.7565  1.5390
   94MOL   H14430090   2.386   9.394   2.855 -2.8897 -1.2235  0.2533
   94MOL   H14530091   2.615   9.315   2.818 -1.8420 -0.2300 -1.7214
   94MOL   C14630092   2.110   9.277   2.937 -0.6235  0.0988 -0.6698
   94MOL   C14730093   1.969   9.323   2.970  0.1839  0.6976  0.0554
   94MOL   C14830094   1.917   9.440   2.925 -0.1507 -0.8177  0.3523
   94MOL   C14930095   1.785   9.471   2.952  0.4959 -0.5870  0.5947
   94MOL   C15030096   1.701   9.387   3.030 -0.4256  0.4473  0.5467
   94MOL   C15130097   1.554   9.414   3.050  0.3050  0.1650  0.1748
   94MOL   C15230098   1.756   9.267   3.081  0.2995  0.1952  0.0571
   94MOL   C15330099   1.889   9.242   3.054  0.3682 -0.1247 -0.2208
   94MOL   H15430100   2.098   9.171   2.917 -2.3117 -0.2751  1.9448
   94MOL   H15530101   2.144   9.330   2.848  0.5977  1.4488  0.5732
   94MOL   H15630102   1.976   9.506   2.863 -1.5228  1.3572  1.3112
   94MOL   H15730103   1.750   9.564   2.909 -0.9416 -0.8452  1.1656
   94MOL   H15830104   1.524   9.378   3.148  2.6358 -1.5375  0.3112
   94MOL   H15930105   1.543   9.522   3.056 -3.7103 -0.0457 -1.4442
   94MOL   H16030106   1.690   9.193   3.123  1.4301 -0.8674 -0.0315
   94MOL   H16130107   1.925   9.145   3.085 -1.4501 -0.5605  0.5956
   94MOL   C16230108   1.467   9.330   2.955 -0.0973 -0.3787 -0.3154
   94MOL   C16330109   1.326   9.352   2.980  1.2657  0.0145  0.2991
   94MOL   C16430110   1.251   9.267   3.060  0.7880 -0.1636  0.5125
   94MOL   C16530111   1.115   9.296   3.087  0.2980  0.5576  0.2233
   94MOL   C16630112   1.055   9.409   3.020 -0.0911 -0.3132  0.9740
   94MOL   C16730113   0.900   9.431   3.038 -0.0775  0.1629 -0.1259
   94MOL   C16830114   1.133   9.494   2.935  0.2895  0.6684 -0.1526
   94MOL   C16930115   1.268   9.458   2.916  0.3538 -0.6533  0.6407
   94MOL   H17030116   1.504   9.227   2.963  2.3732  0.4364 -0.6340
   94MOL   H17130117   1.482   9.359   2.851  1.7322 -0.2290 -0.0307
   94MOL   H17230118   1.303   9.185   3.109  1.3055 -0.5415 -0.6439
   94MOL   H17330119   1.054   9.234   3.151 -0.2925 -0.9734 -1.7793
   94MOL   H17430120   0.860   9.395   2.944  1.5497  1.3943 -1.3345
   94MOL   H17530121   0.869   9.366   3.120  1.4050  0.4523  0.6836
   94MOL   H17630122   1.090   9.575   2.878  0.2318  1.0715  0.4573
   94MOL   H17730123   1.320   9.519   2.843 -0.5171 -2.4319 -1.5261
   94MOL   C17830124   0.844   9.572   3.060  0.4650 -0.1377 -0.1944
   94MOL   C17930125   0.705   9.569   3.110 -0.1490  0.0409 -0.4275
   94MOL   C18030126   0.671   9.540   3.248  0.0916  0.5033  0.3177
   94MOL   C18130127   0.539   9.544   3.292  0.1470  0.4047 -0.4896
   94MOL   C18230128   0.444   9.579   3.197 -0.0248 -0.6267 -0.0393
   94MOL   C18330129   0.302   9.612   3.239  0.2270 -0.7622 -0.7513
   94MOL   C18430130   0.473   9.587   3.062 -0.7643 -0.4813  0.2560
   94MOL   C18530131   0.604   9.581   3.016 -0.9708 -0.0431 -0.3892
   94MOL   H18630132   0.850   9.638   2.973  0.7693 -1.1341 -0.9298
   94MOL   H18730133   0.909   9.621   3.133  0.1138 -2.7006  1.9115
   94MOL   H18830134   0.752   9.514   3.316  0.1571  0.8223  0.3637
   94MOL   H18930135   0.518   9.535   3.398  1.3777 -2.0143 -0.4221
   94MOL   H19030136   0.227   9.537   3.214 -0.7972 -0.3783  1.0917
   94MOL   H19130137   0.302   9.600   3.347  2.1384  0.9555 -0.5318
   94MOL   H19230138   0.390   9.601   2.994 -1.7692 -0.1567  1.5366
   94MOL   H19330139   0.638   9.584   2.913 -1.6053  0.2658 -0.5881
   94MOL   C19430140   0.244   9.752   3.213 -0.2845 -0.0133  0.5835
   94MOL   C19530141   0.098   9.771   3.260  1.0300  0.3033  0.0825
   94MOL   C19630142  -0.015   9.706   3.194  0.5410  0.1192 -0.0649
   94MOL   C19730143  -0.143   9.709   3.247  0.3419  1.2258  0.3644
   94MOL   C19830144  -0.174   9.784   3.361  0.0495 -0.1417  0.0937
   94MOL   C19930145  -0.323   9.781   3.415 -0.6207  0.2015  0.7305
   94MOL   C20030146  -0.066   9.852   3.423 -0.0844 -0.1941 -0.4376
   94MOL   C20130147   0.068   9.844   3.376 -0.0330 -0.4570 -0.2811
   94MOL   H20230148   0.244   9.765   3.105 -0.1038  1.0826  0.7063
   94MOL   H20330149   0.300   9.834   3.257  0.6637 -0.8097  0.8662
   94MOL   H20430150  -0.012   9.642   3.107  1.6405  0.3648 -0.2278
   94MOL   H20530151  -0.220   9.657   3.192 -1.5671  1.8736  2.3656
   94MOL   H20630152  -0.390   9.738   3.341  2.7862 -2.0109 -1.2018
   94MOL   H20730153  -0.315   9.719   3.504 -0.1486 -1.4937 -0.4602
   94MOL   H20830154  -0.086   9.913   3.510  0.9574  1.7323 -1.4951
   94MOL   H20930155   0.141   9.901   3.430 -0.7703  1.2313 -1.0495
   94MOL   C21030156  -0.376   9.917   3.463  0.3307 -0.6069  0.8015
   94MOL   C21130157  -0.524   9.922   3.494  1.4331 -0.4781  0.4612
   94MOL   C21230158  -0.620   9.916   3.390  0.3845  0.0995  0.0057
   94MOL   C21330159  -0.756   9.923   3.436  0.1867 -0.5710 -0.1223
   94MOL   C21430160  -0.786   9.947   3.570 -0.1201 -0.9331  0.1526
   94MOL   C21530161  -0.936   9.971   3.609  0.2700 -0.1003  0.0853
   94MOL   C21630162  -0.687   9.950   3.670 -0.4955  0.1851  0.6823
   94MOL   C21730163  -0.558   9.935   3.630  0.0912 -0.3019  0.3747
   94MOL   H21830164  -0.350   9.982   3.380 -0.8920 -0.4247  0.5458
   94MOL   H21930165  -0.314   9.953   3.545 -1.2866  0.9085  1.3806
   94MOL   H22030166  -0.588   9.913   3.287  1.2458  0.0337  0.2727
   94MOL   H22130167  -0.836   9.934   3.365 -0.9071 -0.9881  1.0270
   94MOL   H22230168  -0.986   9.903   3.540 -1.9719 -0.7064  2.2263
   94MOL   H22330169  -0.951   9.944   3.713  3.5970  0.0919  0.6528
   94MOL   H22430170  -0.713   9.954   3.775  1.9430  0.5497  1.2885
   94MOL   H22530171  -0.482   9.939   3.708 -1.3831  1.7835  1.7449
   94MOL   C22630172  -0.994  10.113   3.573  0.2771  0.2278  0.0023
   94MOL   C22730173  -1.139  10.122   3.606  0.5862 -0.1737  0.5656
   94MOL   C22830174  -1.227  10.097   3.499 -0.3377  0.3879  0.1431
   94MOL   C22930175  -1.365  10.102   3.524  0.6995 -0.8237 -0.2956
   94MOL   C23030176  -1.415  10.145   3.645 -0.2696  0.1872 -0.0770
   94MOL   C23130177  -1.563  10.171   3.667 -0.4453  0.3277  0.2004
   94MOL   C23230178  -1.325  10.179   3.750  0.2304 -0.4905  0.2712
   94MOL   C23330179  -1.186  10.164   3.732  0.0931 -0.8062  1.0385
   94MOL   H23430180  -0.991  10.135   3.466 -1.7468 -0.8154 -0.2896
   94MOL   H23530181  -0.939  10.194   3.620  0.7982 -0.8172  1.2284
   94MOL   H23630182  -1.199  10.069   3.399 -0.9354 -0.2043  0.1327
   94MOL   H23730183  -1.434  10.076   3.446  0.4329  0.0471 -0.3582
   94MOL   H23830184  -1.617  10.102   3.602  1.5640 -0.3502 -0.8191
   94MOL   H23930185  -1.587  10.127   3.763  4.4419 -0.6696  1.0754
   94MOL   H24030186  -1.357  10.230   3.840 -1.7987  1.7586 -1.6334
   94MOL   H24130187  -1.117  10.192   3.810 -0.1061 -1.3637  1.4168
   94MOL   C24230188  -1.600  10.320   3.653 -0.3133  0.4491 -0.1183
   94MOL   C24330189  -1.749  10.335   3.676 -0.2107 -0.3252 -0.2784
   94MOL   C24430190  -1.794  10.366   3.803  0.1808  0.0619 -0.0652
   94MOL   C24530191  -1.929  10.370   3.824  0.1311  0.1896 -0.2713
   94MOL   C24630192  -2.028  10.342   3.727  0.1129  0.2147 -0.3428
   94MOL   C24730193  -2.176  10.351   3.749 -0.5925  0.1211 -0.0961
   94MOL   C24830194  -1.984  10.321   3.595 -0.7026  0.3527  0.4331
   94MOL   C24930195  -1.842  10.317   3.571  0.1721  0.4243 -0.2813
   94MOL   H25030196  -1.537  10.376   3.723 -2.6376 -0.1693  2.5671
   94MOL   H25130197  -1.587  10.367   3.556 -0.6294 -2.8314 -1.8027
   94MOL   H25230198  -1.723  10.378   3.884  0.6875  1.1694 -0.6624
   94MOL   H25330199  -1.970  10.399   3.919 -1.2486 -0.4107 -0.6832
   94MOL   H25430200  -2.227  10.280   3.684  0.5769  0.0360 -0.9476
   94MOL   H25530201  -2.210  10.319   3.847 -2.9864 -0.0738 -0.9614
   94MOL   H25630202  -2.060  10.300   3.522  0.6792  1.2233 -1.2811
   94MOL   H25730203  -1.812  10.300   3.469  2.6775 -0.3463  0.5520
   94MOL   C25830204  -2.233  10.490   3.719  0.3247 -0.2974  0.1410
   94MOL   C25930205  -2.384  10.493   3.716 -0.4083 -0.2568 -0.4645
   94MOL   C26030206  -2.449  10.473   3.598  0.0213  0.3381 -0.7956
   94MOL   C26130207  -2.586  10.482   3.591  0.1981 -0.1965 -0.0328
   94MOL   C26230208  -2.659  10.500   3.717 -0.5035  0.7512  0.2608
   94MOL   C26330209  -2.807  10.499   3.707 -0.5122  0.6589  0.1674
   94MOL   C26430210  -2.592  10.499   3.839 -0.2296  0.1080  0.3966
   94MOL   C26530211  -2.450  10.507   3.844 -0.8288  0.9702 -0.4008
   94MOL   H26630212  -2.182  10.529   3.631  1.9407  2.7085  2.3189
   94MOL   H26730213  -2.207  10.557   3.801  3.8702 -0.3666 -0.8560
   94MOL   H26830214  -2.398  10.457   3.505 -2.0615 -2.0010 -1.6132
   94MOL   H26930215  -2.642  10.476   3.499  0.3862 -2.4792 -0.0271
   94MOL   H27030216  -2.841  10.430   3.630 -2.3327  1.1172  0.5367
   94MOL   H27130217  -2.846  10.470   3.805 -1.9195  0.6370 -0.3877
   94MOL   H27230218  -2.647  10.513   3.931  0.6722  1.6513  0.7145
   94MOL   H27330219  -2.390  10.511   3.934 -3.0757 -0.6129  1.2218
   94MOL   C27430220  -2.855  10.634   3.667  0.5051 -0.1738  0.0172
   94MOL   C27530221  -3.000  10.649   3.679 -0.3070 -0.2518 -0.6410
   94MOL   C27630222  -3.081  10.566   3.611 -0.0697 -0.6828  0.2766
   94MOL   C27730223  -3.220  10.579   3.624  0.0649  0.0315 -0.1062
   94MOL   C27830224  -3.273  10.677   3.711  0.2198  0.6882 -0.6580
   94MOL   C27930225  -3.427  10.701   3.710 -0.9711 -0.1011  0.2811
   94MOL   C28030226  -3.186  10.756   3.788 -0.0407 -0.2228 -0.4382
   94MOL   C28130227  -3.054  10.744   3.772 -0.0815  0.1445  0.6273
   94MOL   H28230228  -2.805  10.715   3.721  1.4251 -2.1571  2.2399
   94MOL   H28330229  -2.831  10.640   3.561 -0.6305  2.6083 -0.1301
   94MOL   H28430230  -3.044  10.492   3.541 -1.1435 -0.8554 -0.1264
   94MOL   H28530231  -3.272  10.524   3.547  1.2497  0.3751 -1.1710
   94MOL   H28630232  -3.464  10.603   3.740  0.0201 -0.6756 -0.3327
   94MOL   H28730233  -3.453  10.783   3.777 -2.2193 -1.2100  1.1807
   94MOL   H28830234  -3.217  10.824   3.866  0.7644 -1.2088  0.7602
   94MOL   H28930235  -2.984  10.806   3.827 -0.1534 -0.2746  1.1987
   94MOL   C29030236  -3.472  10.727   3.565 -0.6948  0.1220 -0.0974
   94MOL   C29130237  -3.623  10.758   3.560  0.1777 -0.5426 -0.7477
   94MOL   C29230238  -3.672  10.867   3.636  0.2760  0.7053  0.3776
   94MOL   C29330239  -3.820  10.893   3.637 -0.3215 -0.1651  0.9020
   94MOL   C29430240  -3.906  10.807   3.566  0.2058 -0.4216 -0.6133
   94MOL   C29530241  -4.061  10.824   3.568  0.1913  0.2368 -0.6636
   94MOL   C29630242  -3.847  10.700   3.490  0.3227  0.4436  0.1405
   94MOL   C29730243  -3.710  10.679   3.489  0.6488 -0.0681 -0.0046
   94MOL   H29830244  -3.459  10.636   3.506  1.7883  0.4117 -0.0559
   94MOL   H29930245  -3.419  10.814   3.526  0.4147 -0.1711  0.7342
   94MOL   H30030246  -3.603  10.929   3.690 -0.1327  1.6302 -0.1482
   94MOL   H30130247  -3.865  10.962   3.706  0.0985 -0.0754  1.0872
   94MOL   H30230248  -4.105  10.759   3.492 -0.1399 -2.5515  1.8211
   94MOL   H30330249  -4.105  10.784   3.659  1.8791  0.2856  0.1943
   94MOL   H30430250  -3.910  10.638   3.428  0.3529  1.7353 -1.2218
   94MOL   H30530251  -3.674  10.599   3.425  0.5723  0.2120 -0.3986
   94MOL   C30630252  -4.098  10.974   3.542 -0.3128  0.9162 -0.8220
   94MOL   C30730253  -4.242  10.990   3.507  0.5471 -0.1447  0.2305
   94MOL   C30830254  -4.271  11.050   3.381  0.7230 -0.5115 -0.1638
   94MOL   C30930255  -4.407  11.074   3.355 -0.1430  0.0649 -0.3044
   94MOL   C31030256  -4.504  11.058   3.451 -0.3753  0.0550 -0.5691
   94MOL   C31130257  -4.645  11.108   3.417  0.4664 -0.7163 -0.1984
   94MOL   C31230258  -4.471  11.006   3.582  0.5676  0.1191  0.1259
   94MOL   C31330259  -4.338  10.970   3.602 -0.0616 -0.1428  0.0628
   94MOL   H31430260  -4.039  11.016   3.461 -0.3429  0.4525 -1.0822
   94MOL   H31530261  -4.067  11.032   3.628 -0.8161  0.4083 -0.2905
   94MOL   H31630262  -4.192  11.079   3.313  0.2743 -0.4636 -0.6697
   94MOL   H31730263  -4.446  11.131   3.272 -0.6104  1.2985  0.7631
   94MOL   H31830264  -4.706  11.127   3.505  0.1208 -0.3144 -0.5245
   94MOL   H31930265  -4.649  11.188   3.344  1.5078  2.4946  3.1400
   94MOL   H32030266  -4.551  11.007   3.655 -0.7889 -0.5978 -1.3214
   94MOL   H32130267  -4.309  10.918   3.693 -2.0381  2.8313  2.5121
   94MOL   H32230268  -4.705  11.027   3.375 -0.8265  1.1203 -1.9981
   95MOL     C130269   5.592   2.724   7.743 -0.5336 -0.0827 -0.3626
   95MOL     C230270   5.719   2.687   7.679 -0.2265 -0.0761 -0.1603
   95MOL     C330271   5.779   2.562   7.702 -0.3148 -0.1984  0.0304
   95MOL     C430272   5.909   2.538   7.668 -1.0937  0.0501  0.0678
   95MOL     C530273   5.984   2.641   7.609 -1.1395  0.1578 -0.0981
   95MOL     C630274   6.116   2.606   7.553  0.5757  0.1487  0.0846
   95MOL     C730275   5.931   2.773   7.584 -0.2960  0.2928  0.3940
   95MOL     C830276   5.791   2.790   7.617  0.0238 -0.5541  0.2375
   95MOL     H930277   5.519   2.700   7.665 -1.0243 -1.7682  0.5795
   95MOL    H1030278   5.582   2.668   7.836 -0.7094 -1.1899 -1.0294
   95MOL    H1130279   5.715   2.490   7.752 -0.9437  2.3325  2.9954
   95MOL    H1230280   5.949   2.441   7.695  0.5125  0.9605  1.0739
   95MOL    H1330281   6.139   2.503   7.581  0.2727  0.9092  3.3810
   95MOL    H1430282   6.109   2.604   7.444 -0.0417 -0.9059  0.1435
   95MOL    H1530283   5.990   2.849   7.536 -0.6392  0.2143 -0.1557
   95MOL    H1630284   5.738   2.883   7.604 -0.5157 -0.7671  0.8883
   95MOL    H1730285   5.592   2.833   7.745  0.4878  0.0022 -3.1819
   95MOL    C1830286   6.244   2.690   7.587  0.1195 -1.0430  0.1237
   95MOL    C1930287   6.374   2.641   7.527 -0.1363 -0.2269  0.6996
   95MOL    C2030288   6.401   2.508   7.498  0.2023  0.7626  0.0522
   95MOL    C2130289   6.523   2.476   7.432  0.0245 -0.3967  0.6516
   95MOL    C2230290   6.619   2.576   7.405 -0.9176 -0.1529 -0.3250
   95MOL    C2330291   6.759   2.541   7.350  0.0910 -0.2291 -0.1298
   95MOL    C2430292   6.586   2.709   7.425 -0.1010  0.1370  0.2774
   95MOL    C2530293   6.463   2.741   7.485  0.0087  0.3149 -0.0199
   95MOL    H2630294   6.231   2.793   7.556  0.1150 -0.8163  0.8910
   95MOL    H2730295   6.244   2.688   7.696 -0.9708  2.0323  0.2169
   95MOL    H2830296   6.333   2.433   7.535  1.6069  0.0198  1.1874
   95MOL    H2930297   6.544   2.378   7.391  0.0064 -0.7131  1.3816
   95MOL    H3030298   6.769   2.606   7.263  1.4632  2.2605  1.8202
   95MOL    H3130299   6.762   2.447   7.296  0.8654  0.5980 -1.5715
   95MOL    H3230300   6.662   2.781   7.398  0.8972 -0.7816  0.6332
   95MOL    H3330301   6.435   2.844   7.501 -2.8780 -0.6693  1.7776
   95MOL    C3430302   6.872   2.536   7.452 -0.2240  0.1756  0.3701
   95MOL    C3530303   7.008   2.499   7.394 -0.2465 -0.0144 -0.2927
   95MOL    C3630304   7.063   2.579   7.293  0.6156 -0.4051 -0.1835
   95MOL    C3730305   7.186   2.537   7.237  0.4666  0.4009  0.1677
   95MOL    C3830306   7.253   2.426   7.289 -0.2091 -0.0484 -0.5229
   95MOL    C3930307   7.383   2.380   7.223 -0.5545 -0.1848  0.0678
   95MOL    C4030308   7.192   2.344   7.388 -1.0139 -0.1145 -0.1570
   95MOL    C4130309   7.070   2.383   7.438  0.4268  0.0497  0.0298
   95MOL    H4230310   6.840   2.475   7.536 -0.8427  1.0695  0.7968
   95MOL    H4330311   6.884   2.635   7.497 -0.3750 -0.3075  1.4865
   95MOL    H4430312   7.006   2.660   7.249  0.4420 -0.7033 -0.5126
   95MOL    H4530313   7.230   2.597   7.160  0.7842  0.9273  0.7543
   95MOL    H4630314   7.392   2.272   7.219 -0.1613 -0.0801 -2.5288
   95MOL    H4730315   7.372   2.415   7.121 -0.3417 -0.1073  0.0730
   95MOL    H4830316   7.250   2.259   7.418  1.2680  1.7235  0.7480
   95MOL    H4930317   7.017   2.325   7.512 -2.2463  1.4613 -0.7063
   95MOL    C5030318   7.503   2.444   7.282  0.1915  0.1250  0.4637
   95MOL    C5130319   7.632   2.382   7.233 -0.1316  0.1680 -0.0845
   95MOL    C5230320   7.718   2.447   7.147  0.0740  0.1487  0.3965
   95MOL    C5330321   7.844   2.395   7.107  0.4963  0.6540  0.2500
   95MOL    C5430322   7.885   2.267   7.154  0.1223 -0.3015 -0.0916
   95MOL    C5530323   8.008   2.193   7.105 -0.1484  0.7230  0.4115
   95MOL    C5630324   7.798   2.205   7.244 -0.3343 -0.0286  0.3912
   95MOL    C5730325   7.671   2.256   7.278  0.1979 -0.4131  0.0912
   95MOL    H5830326   7.511   2.429   7.390  0.3976 -1.5168  0.2381
   95MOL    H5930327   7.491   2.550   7.259 -1.5791 -0.1494  0.0510
   95MOL    H6030328   7.685   2.536   7.095 -0.5539  0.1248  0.7494
   95MOL    H6130329   7.924   2.435   7.046  0.6369  0.4748  0.3126
   95MOL    H6230330   7.977   2.094   7.070  1.3685  1.0454 -1.8808
   95MOL    H6330331   8.033   2.245   7.013 -1.3463 -1.0528 -0.9456
   95MOL    H6430332   7.833   2.108   7.276  0.0874 -0.2074 -0.6148
   95MOL    H6530333   7.604   2.197   7.339 -3.1524  1.5268 -1.6208
   95MOL    C6630334   8.114   2.188   7.221 -0.0461 -0.4059  0.3880
   95MOL    C6730335   8.250   2.131   7.177 -0.2913  0.7392 -0.2172
   95MOL    C6830336   8.313   2.019   7.232 -0.3019 -0.0858 -0.1045
   95MOL    C6930337   8.435   1.971   7.181 -0.0947 -0.4301 -0.0434
   95MOL    C7030338   8.495   2.035   7.071 -0.2377 -0.0887 -0.1056
   95MOL    C7130339   8.625   1.989   7.006 -0.2967  0.1306  0.0863
   95MOL    C7230340   8.439   2.152   7.021 -0.0469 -0.6295 -0.0291
   95MOL    C7330341   8.315   2.194   7.072  0.0267  0.3907  0.1226
   95MOL    H7430342   8.081   2.120   7.300 -0.6862 -0.0818  0.3996
   95MOL    H7530343   8.140   2.287   7.256  1.4217 -0.1982 -1.2426
   95MOL    H7630344   8.266   1.952   7.303  1.2733 -0.3074  0.7503
   95MOL    H7730345   8.477   1.880   7.221 -1.0675 -0.2168  1.5589
   95MOL    H7830346   8.651   2.022   6.905  0.5477  3.0016  1.1847
   95MOL    H7930347   8.623   1.880   7.003  1.6954  0.0924 -0.7132
   95MOL    H8030348   8.479   2.199   6.932 -1.9431  0.5751 -0.2676
   95MOL    H8130349   8.270   2.281   7.028  0.3109  0.7227  0.4872
   95MOL    C8230350   8.748   2.036   7.100  0.4980 -0.4354  0.0276
   95MOL    C8330351   8.884   1.993   7.042 -0.3675  0.9055 -0.9552
   95MOL    C8430352   8.935   1.858   7.076 -0.6134 -0.5988 -0.0288
   95MOL    C8530353   9.052   1.811   7.011 -0.0131 -0.2712 -0.5048
   95MOL    C8630354   9.113   1.889   6.914 -0.3853 -0.9202 -0.2006
   95MOL    C8730355   9.244   1.843   6.851  0.8408 -0.3571  0.1196
   95MOL    C8830356   9.066   2.017   6.884 -0.5861 -0.5297 -0.1222
   95MOL    C8930357   8.955   2.076   6.947 -0.4781 -0.5050  0.1830
   95MOL    H9030358   8.736   2.000   7.202 -0.4936 -3.7041 -1.1758
   95MOL    H9130359   8.741   2.144   7.100  0.8863 -0.4006 -1.6249
   95MOL    H9230360   8.887   1.788   7.143 -1.4908 -0.8047 -0.8642
   95MOL    H9330361   9.074   1.706   7.020 -1.0258 -0.5527 -1.2534
   95MOL    H9430362   9.234   1.897   6.757  3.7815  0.9380  0.5169
   95MOL    H9530363   9.227   1.742   6.814 -2.5738 -0.4542  1.7635
   95MOL    H9630364   9.116   2.083   6.814  2.6548 -0.0579  2.5190
   95MOL    H9730365   8.903   2.169   6.932 -1.0558 -0.8890 -0.2271
   95MOL    C9830366   9.370   1.875   6.933 -0.5466 -0.3827 -0.1839
   95MOL    C9930367   9.503   1.815   6.883 -0.4576  0.0484  0.6726
   95MOL   C10030368   9.575   1.730   6.974  0.2872 -0.3954  0.4841
   95MOL   C10130369   9.691   1.671   6.925  0.0109  0.3787 -0.5004
   95MOL   C10230370   9.740   1.687   6.794  0.8004  0.1158 -0.6284
   95MOL   C10330371   9.872   1.621   6.751 -1.4659 -0.5227  0.2068
   95MOL   C10430372   9.656   1.757   6.704 -0.2241 -0.3437  0.2491
   95MOL   C10530373   9.542   1.826   6.746  0.3801  0.8627  0.0750
   95MOL   H10630374   9.351   1.822   7.026  0.6841 -1.9189 -0.7838
   95MOL   H10730375   9.382   1.979   6.961  0.3004 -0.8340  1.1923
   95MOL   H10830376   9.541   1.712   7.075 -1.3613  2.6939  0.5393
   95MOL   H10930377   9.745   1.607   6.993  0.6686  0.7276 -0.6919
   95MOL   H11030378   9.885   1.515   6.775 -0.5602 -0.2867  0.7936
   95MOL   H11130379   9.875   1.623   6.642 -0.4434  0.0320  0.2337
   95MOL   H11230380   9.684   1.771   6.600 -0.4150 -2.2233 -0.0598
   95MOL   H11330381   9.467   1.875   6.686 -0.8160 -1.1101 -0.0935
   95MOL   C11430382   9.984   1.710   6.801 -0.1859  0.2200 -1.3519
   95MOL   C11530383  10.123   1.658   6.786 -0.3960  0.0899  0.4555
   95MOL   C11630384  10.156   1.534   6.840 -0.2683 -0.2442 -0.2450
   95MOL   C11730385  10.280   1.478   6.802  0.6936  0.1072 -0.0181
   95MOL   C11830386  10.381   1.546   6.725  0.9602 -0.5778  0.0705
   95MOL   C11930387  10.521   1.497   6.707 -0.1727  0.5468  0.1248
   95MOL   C12030388  10.344   1.673   6.674 -0.2926 -0.5594  0.1534
   95MOL   C12130389  10.213   1.725   6.700  0.1811  0.2194 -0.1998
   95MOL   H12230390   9.971   1.732   6.906  2.3603  3.2988 -1.5978
   95MOL   H12330391   9.977   1.805   6.749  1.0962 -0.0834 -2.1147
   95MOL   H12430392  10.090   1.490   6.913  0.4150  1.0662  1.1896
   95MOL   H12530393  10.315   1.389   6.852  0.6553  0.9485  1.5372
   95MOL   H12630394  10.598   1.573   6.709 -0.2258  0.6017  0.0717
   95MOL   H12730395  10.531   1.431   6.793  2.3016  0.0552 -0.5186
   95MOL   H12830396  10.426   1.730   6.632 -0.8816  0.5937  0.5382
   95MOL   H12930397  10.194   1.820   6.653 -2.4734 -0.7010 -1.0894
   95MOL   C13030398  10.548   1.414   6.583  0.1739  0.4463 -0.5837
   95MOL   C13130399  10.689   1.364   6.576  0.4780 -0.2016  0.9197
   95MOL   C13230400  10.789   1.434   6.502  0.6250 -0.2481 -0.1018
   95MOL   C13330401  10.922   1.378   6.496  0.6525 -0.2840  0.5387
   95MOL   C13430402  10.949   1.257   6.555 -0.0517 -0.0127 -1.1366
   95MOL   C13530403  11.083   1.192   6.522  0.3242  0.1430 -0.6128
   95MOL   C13630404  10.857   1.203   6.645  0.2267 -0.3089 -0.6419
   95MOL   C13730405  10.727   1.256   6.658 -0.6185  0.1096 -0.5017
   95MOL   H13830406  10.523   1.486   6.505  0.4767  1.5547  0.3164
   95MOL   H13930407  10.477   1.331   6.580  0.2157  0.3434  0.8514
   95MOL   H14030408  10.765   1.525   6.449  0.9267 -0.2726 -0.2826
   95MOL   H14130409  10.992   1.432   6.434 -1.5349 -0.9836 -2.6249
   95MOL   H14230410  11.105   1.102   6.579  1.1943  0.6785 -0.0876
   95MOL   H14330411  11.074   1.160   6.418 -3.5918 -1.5280  0.1685
   95MOL   H14430412  10.881   1.116   6.704  0.8668  1.1263  1.2675
   95MOL   H14530413  10.652   1.212   6.722  1.7025 -0.3638  2.0102
   95MOL   C14630414  11.200   1.290   6.529  0.6244 -0.1622 -0.3547
   95MOL   C14730415  11.337   1.246   6.482 -0.3951  0.6285 -0.3625
   95MOL   C14830416  11.414   1.343   6.418  0.4839  0.0918 -0.2655
   95MOL   C14930417  11.545   1.314   6.369  0.1504 -0.1288 -0.5162
   95MOL   C15030418  11.604   1.193   6.397 -0.3362 -0.5662  0.4167
   95MOL   C15130419  11.745   1.158   6.353  0.2714 -0.2420 -0.3248
   95MOL   C15230420  11.526   1.097   6.461  0.3316 -0.7326 -0.1613
   95MOL   C15330421  11.393   1.115   6.495  0.3775 -0.0241 -0.0547
   95MOL   H15430422  11.221   1.319   6.632  1.4610  1.4701 -0.9736
   95MOL   H15530423  11.168   1.382   6.481 -1.7611 -0.6457  0.2713
   95MOL   H15630424  11.372   1.440   6.394  1.2630  0.9379  1.7130
   95MOL   H15730425  11.595   1.391   6.313 -0.5480 -0.8573 -2.1831
   95MOL   H15830426  11.813   1.220   6.411 -0.4769  1.4356 -1.2223
   95MOL   H15930427  11.762   1.050   6.359  0.6114 -0.1726 -0.0474
   95MOL   H16030428  11.566   0.998   6.477 -1.1591 -1.3962 -0.5417
   95MOL   H16130429  11.338   1.034   6.541  0.7940  0.1552  0.7520
   95MOL   C16230430  11.758   1.193   6.200  0.2067  0.4146 -0.1051
   95MOL   C16330431  11.896   1.180   6.146 -0.1801  0.1448 -0.4300
   95MOL   C16430432  11.975   1.296   6.117  0.1284  0.2890  0.5103
   95MOL   C16530433  12.109   1.279   6.085  0.0350 -0.5056  0.2627
   95MOL   C16630434  12.174   1.158   6.094  0.3892 -0.7267 -0.2757
   95MOL   C16730435  12.323   1.144   6.076  0.4004  0.0680 -0.1968
   95MOL   C16830436  12.094   1.040   6.123  0.1439 -0.6262  0.3774
   95MOL   C16930437  11.957   1.054   6.151 -0.2143  0.2241  0.3750
   95MOL   H17030438  11.738   1.299   6.184 -2.4680 -0.0108  0.3079
   95MOL   H17130439  11.691   1.137   6.135  1.0741 -0.2077 -0.4733
   95MOL   H17230440  11.942   1.398   6.106 -0.4804 -0.0453 -0.9056
   95MOL   H17330441  12.176   1.359   6.060  1.6799 -2.2049 -0.9118
   95MOL   H17430442  12.356   1.055   6.022  1.4049  0.1753  0.2240
   95MOL   H17530443  12.362   1.224   6.014 -0.6037  1.6301  1.1653
   95MOL   H17630444  12.150   0.950   6.142  0.7299  0.3146  3.4579
   95MOL   H17730445  11.914   0.959   6.180  0.5242 -0.1946  0.1101
   95MOL   C17830446  12.406   1.169   6.199  0.0975  0.2020  0.0818
   95MOL   C17930447  12.558   1.175   6.174 -0.3652  0.6880  0.5217
   95MOL   C18030448  12.617   1.289   6.121  0.1237  0.2306  0.4401
   95MOL   C18130449  12.758   1.290   6.098  0.2740  0.0241  0.2157
   95MOL   C18230450  12.839   1.180   6.129  0.4407 -0.5024  0.0752
   95MOL   C18330451  12.987   1.181   6.124 -0.3926 -0.8771 -0.0437
   95MOL   C18430452  12.777   1.071   6.184  0.0408 -0.3615 -0.1940
   95MOL   C18530453  12.639   1.063   6.190 -0.1925 -0.4059 -0.4514
   95MOL   H18630454  12.381   1.081   6.258 -0.7655  0.2752 -0.1609
   95MOL   H18730455  12.376   1.257   6.256 -0.3131 -0.7679  1.3656
   95MOL   H18830456  12.566   1.380   6.096 -0.2243 -0.8032 -2.7818
   95MOL   H18930457  12.805   1.382   6.067 -1.0271  0.5395 -0.2702
   95MOL   H19030458  13.027   1.280   6.103  0.2279 -0.8682  1.1539
   95MOL   H19130459  13.023   1.136   6.216  2.8613  1.5713 -0.0671
   95MOL   H19230460  12.841   0.985   6.200  0.0629 -0.3631 -0.2900
   95MOL   H19330461  12.591   0.973   6.226  2.0298 -1.6301 -0.4539
   95MOL   C19430462  13.046   1.088   6.018 -0.1804 -0.2630  0.4942
   95MOL   C19530463  13.190   1.065   6.024  0.4927  1.2182  0.2763
   95MOL   C19630464  13.234   0.948   6.099  0.6272 -0.3830 -0.1617
   95MOL   C19730465  13.377   0.927   6.116 -1.0771 -0.3531 -0.3677
   95MOL   C19830466  13.464   1.012   6.048 -0.0189 -0.2649  0.1160
   95MOL   C19930467  13.610   0.984   6.048  0.1239  0.3989 -0.1928
   95MOL   C20030468  13.419   1.119   5.965 -0.4552 -0.7499  0.4875
   95MOL   C20130469  13.284   1.142   5.956 -0.1718 -0.0752 -0.5020
   95MOL   H20230470  13.014   1.126   5.921 -0.8459 -0.1699  0.7511
   95MOL   H20330471  12.990   0.995   6.019 -1.2217  0.3519 -0.4060
   95MOL   H20430472  13.166   0.883   6.151 -0.8877  0.0615 -1.5549
   95MOL   H20530473  13.417   0.842   6.169 -1.4630 -1.3197 -1.5875
   95MOL   H20630474  13.672   1.074   6.040  0.2832  0.2866 -0.2313
   95MOL   H20730475  13.633   0.941   6.145 -0.5653  1.0685  0.2722
   95MOL   H20830476  13.491   1.167   5.901 -0.6729 -0.0874  0.7432
   95MOL   H20930477  13.255   1.226   5.895  0.5303  1.3349  1.0458
   95MOL   C21030478  13.650   0.882   5.934  0.3348 -0.2197  0.1910
   95MOL   C21130479  13.797   0.866   5.945 -0.2423  1.4924  1.3949
   95MOL   C21230480  13.844   0.755   6.021 -0.4964 -0.4188  0.0011
   95MOL   C21330481  13.981   0.734   6.031 -0.2480  0.8104 -0.1331
   95MOL   C21430482  14.071   0.816   5.958  0.1723  0.2931 -0.4775
   95MOL   C21530483  14.214   0.789   5.974  0.7878 -0.4999 -0.5270
   95MOL   C21630484  14.019   0.915   5.869 -0.4537  0.3923 -0.2126
   95MOL   C21730485  13.883   0.943   5.866 -0.0626  0.0390 -0.1745
   95MOL   H21830486  13.616   0.914   5.836  0.4772 -1.4946 -0.2866
   95MOL   H21930487  13.612   0.782   5.955  2.0919 -0.6918  1.2017
   95MOL   H22030488  13.777   0.683   6.067 -0.9239  0.5475  0.8923
   95MOL   H22130489  14.021   0.650   6.086 -2.9662 -0.2556  0.2682
   95MOL   H22230490  14.217   0.689   6.017  0.7115 -0.7980 -1.2185
   95MOL   H22330491  14.253   0.764   5.876 -0.6808 -2.4944 -0.6376
   95MOL   H22430492  14.084   0.983   5.816 -0.9583  0.4769 -0.7273
   95MOL   H22530493  13.849   1.019   5.796 -0.4884 -0.3006 -0.3383
   95MOL   C22630494  14.271   0.893   6.066 -0.5857 -0.1863 -0.3838
   95MOL   C22730495  14.414   0.864   6.100  0.6379 -0.3693 -0.0366
   95MOL   C22830496  14.448   0.780   6.211  0.2547  0.2758 -0.8154
   95MOL   C22930497  14.580   0.745   6.239 -0.6537 -0.7870 -0.2177
   95MOL   C23030498  14.682   0.803   6.161 -1.0348  0.2526  0.0054
   95MOL   C23130499  14.822   0.754   6.181  0.0405  0.4923 -0.0763
   95MOL   C23230500  14.655   0.888   6.053 -0.1903  0.0771  0.1961
   95MOL   C23330501  14.523   0.921   6.025  0.1241 -0.1489 -0.4051
   95MOL   H23430502  14.207   0.894   6.154  0.3838  0.5127  0.3238
   95MOL   H23530503  14.257   0.990   6.020  1.4305  0.8257  1.0293
   95MOL   H23630504  14.365   0.746   6.272  0.0505 -0.9729 -1.7763
   95MOL   H23730505  14.604   0.682   6.323 -1.4101 -1.1338 -0.2688
   95MOL   H23830506  14.892   0.834   6.156  1.0827 -0.3085  0.2142
   95MOL   H23930507  14.858   0.735   6.282 -2.6210  1.0947  1.0078
   95MOL   H24030508  14.737   0.922   5.991 -1.1734  1.5795 -0.3098
   95MOL   H24130509  14.505   0.974   5.933 -0.0146  1.8160  0.7351
   95MOL   C24230510  14.863   0.647   6.078  0.5554  0.2731  0.2370
   95MOL   C24330511  15.013   0.609   6.100 -0.1568  0.0336  0.2359
   95MOL   C24430512  15.045   0.476   6.140 -0.0726 -0.4839  0.3459
   95MOL   C24530513  15.181   0.441   6.143 -0.3161 -0.5065  0.4474
   95MOL   C24630514  15.279   0.540   6.114 -0.4542 -0.7648 -0.4478
   95MOL   C24730515  15.426   0.499   6.115  0.5975  0.5344  0.5545
   95MOL   C24830516  15.248   0.672   6.078  0.7176  0.6145  0.0082
   95MOL   C24930517  15.115   0.703   6.067  0.3690  0.2464  0.5138
   95MOL   H25030518  14.796   0.562   6.092 -0.6105  1.0370 -0.6331
   95MOL   H25130519  14.854   0.682   5.975  0.3881  2.7240  1.0614
   95MOL   H25230520  14.964   0.410   6.167 -1.0431  1.3084  1.8316
   95MOL   H25330521  15.218   0.345   6.176  0.9922  0.2319  1.1850
   95MOL   H25430522  15.491   0.586   6.117 -1.3338  2.0135 -0.0775
   95MOL   H25530523  15.449   0.442   6.205 -1.0588  1.6489  1.7019
   95MOL   H25630524  15.320   0.750   6.056 -2.5692  4.6150  2.7029
   95MOL   H25730525  15.078   0.801   6.042 -0.6707 -0.4783 -0.8542
   95MOL   C25830526  15.469   0.411   5.994  0.6199  0.2836  0.1824
   95MOL   C25930527  15.618   0.381   6.002  0.0207  0.6293  1.2800
   95MOL   C26030528  15.719   0.466   5.953 -0.3927 -0.3540 -1.0789
   95MOL   C26130529  15.856   0.439   5.961 -0.2798 -0.0293  0.0896
   95MOL   C26230530  15.900   0.318   6.014  0.0857  0.5063  0.6816
   95MOL   C26330531  16.045   0.283   6.000  0.5670 -0.4949 -0.2833
   95MOL   C26430532  15.799   0.237   6.069 -0.5577 -0.0290  0.0140
   95MOL   C26530533  15.660   0.267   6.064  0.2479 -0.1961  0.0091
   95MOL   H26630534  15.442   0.447   5.895 -0.0524 -0.5911  0.0434
   95MOL   H26730535  15.427   0.310   5.994  3.1151 -0.7988 -1.5567
   95MOL   H26830536  15.685   0.557   5.905 -1.1165  0.8529  1.6079
   95MOL   H26930537  15.915   0.522   5.924 -0.5911 -0.8303 -2.2954
   95MOL   H27030538  16.099   0.378   5.995 -1.5581  0.7920  0.6804
   95MOL   H27130539  16.082   0.236   6.091  0.3267  2.1984  1.2671
   95MOL   H27230540  15.825   0.137   6.101 -3.5188 -1.0520 -0.6522
   95MOL   H27330541  15.592   0.196   6.109  2.4670 -1.7377  1.0134
   95MOL   C27430542  16.075   0.190   5.883  0.0499  0.2121 -0.1063
   95MOL   C27530543  16.222   0.160   5.870 -0.4268 -0.5450  1.0673
   95MOL   C27630544  16.311   0.238   5.790  0.0189  0.2690 -0.3824
   95MOL   C27730545  16.447   0.210   5.784  0.5055 -0.3658 -0.2942
   95MOL   C27830546  16.503   0.109   5.864  0.3933  0.4520  0.6309
   95MOL   C27930547  16.653   0.075   5.859  0.5383  0.1538 -0.2092
   95MOL   C28030548  16.418   0.028   5.944 -0.3386 -0.1574  0.2101
   95MOL   C28130549  16.277   0.051   5.947 -0.0608 -0.0602  0.3095
   95MOL   H28230550  16.008   0.105   5.881 -0.4326  0.5902 -0.2300
   95MOL   H28330551  16.049   0.250   5.795  0.8110 -0.2221 -0.6321
   95MOL   H28430552  16.263   0.318   5.736  1.1513  0.7689 -0.6618
   95MOL   H28530553  16.508   0.266   5.714 -0.5393 -0.7956 -1.5700
   95MOL   H28630554  16.708   0.170   5.858  0.2136  0.3329 -1.5214
   95MOL   H28730555  16.689   0.018   5.945  0.9164 -0.6554 -0.8974
   95MOL   H28830556  16.465  -0.059   5.987  0.2900 -0.0870 -0.3086
   95MOL   H28930557  16.213  -0.016   6.002  1.1185 -1.2355  0.2574
   95MOL   C29030558  16.684  -0.003   5.735  0.4183  0.2809  1.1452
   95MOL   C29130559  16.831  -0.039   5.725 -0.3526  0.7541  0.1693
   95MOL   C29230560  16.872  -0.166   5.754  0.6238  0.2492 -0.4711
   95MOL   C29330561  17.009  -0.196   5.749  0.1749  0.1020 -0.6342
   95MOL   C29430562  17.105  -0.095   5.715  0.2002  0.1570  0.4976
   95MOL   C29530563  17.249  -0.126   5.709 -0.4342 -0.3643  0.1992
   95MOL   C29630564  17.062   0.039   5.697 -0.5434 -0.0042 -0.3662
   95MOL   C29730565  16.921   0.061   5.703 -0.5183  0.5318 -0.2252
   95MOL   H29830566  16.655   0.046   5.642  0.5786  1.4847  1.7243
   95MOL   H29930567  16.627  -0.095   5.751  1.3128 -0.5443 -0.2760
   95MOL   H30030568  16.805  -0.246   5.781  0.5555  1.0833  1.9599
   95MOL   H30130569  17.026  -0.299   5.778 -0.3559 -0.4782 -2.3125
   95MOL   H30230570  17.302  -0.051   5.767  1.8389  0.0522 -2.3340
   95MOL   H30330571  17.262  -0.225   5.753  0.5581 -0.5174 -0.4450
   95MOL   H30430572  17.126   0.124   5.680  0.2717 -1.0556 -2.7517
   95MOL   H30530573  16.883   0.161   5.688 -1.9485 -0.1139 -1.0008
   95MOL   C30630574  17.313  -0.137   5.564  0.0922 -0.6180 -0.6287
   95MOL   C30730575  17.449  -0.203   5.571  0.2950 -0.0880  0.5005
   95MOL   C30830576  17.460  -0.343   5.580 -0.2165 -0.2332  0.2270
   95MOL   C30930577  17.590  -0.406   5.593  0.4674  0.5791  0.1613
   95MOL   C31030578  17.706  -0.327   5.587  0.1587  0.4703 -0.0946
   95MOL   C31130579  17.833  -0.397   5.592  0.2708 -0.0908  0.0892
   95MOL   C31230580  17.697  -0.189   5.593 -0.1535 -0.6652 -0.0495
   95MOL   C31330581  17.568  -0.126   5.572 -0.3961 -0.0692 -0.1553
   95MOL   H31430582  17.308  -0.036   5.523  2.2574  0.1271  0.8540
   95MOL   H31530583  17.249  -0.191   5.494 -0.8505  0.0105 -0.2518
   95MOL   H31630584  17.373  -0.407   5.569 -0.9868  1.3325 -3.8877
   95MOL   H31730585  17.593  -0.513   5.603 -0.2617  0.6445  1.2349
   95MOL   H31830586  17.918  -0.331   5.609  0.5019 -0.1692 -0.7459
   95MOL   H31930587  17.834  -0.461   5.680  0.6613  0.5133  0.5275
   95MOL   H32030588  17.793  -0.139   5.601 -0.6235  0.1137  0.8763
   95MOL   H32130589  17.561  -0.018   5.566 -0.8116 -0.1355 -0.9057
   95MOL   H32230590  17.839  -0.467   5.508  1.1064 -0.3598  0.3660
   96MOL     C130591   6.597   1.689   0.220  0.7321  0.3172  0.2279
   96MOL     C230592   6.454   1.717   0.266  0.0058 -0.2525  0.0369
   96MOL     C330593   6.366   1.625   0.328 -0.4322  0.4117  0.0480
   96MOL     C430594   6.239   1.664   0.368  0.6689  0.6517 -0.2191
   96MOL     C530595   6.199   1.805   0.357  0.0724 -0.6808  0.6928
   96MOL     C630596   6.055   1.847   0.394 -0.2268 -0.5138  0.7039
   96MOL     C730597   6.287   1.896   0.301  0.2022  0.9274  0.3384
   96MOL     C830598   6.412   1.853   0.256 -0.2381  0.4706 -0.2594
   96MOL     H930599   6.636   1.680   0.322  1.4310 -0.4703 -0.1070
   96MOL    H1030600   6.618   1.599   0.163 -0.7807 -0.6626  1.1915
   96MOL    H1130601   6.407   1.527   0.348 -0.5003  0.7006  1.6465
   96MOL    H1230602   6.164   1.601   0.414  0.8305  1.5004  1.2392
   96MOL    H1330603   6.008   1.920   0.329 -1.6558  0.0507  2.3136
   96MOL    H1430604   5.996   1.760   0.366 -2.6205  1.4648 -0.5639
   96MOL    H1530605   6.271   2.002   0.286 -0.2419  1.0454  1.5774
   96MOL    H1630606   6.489   1.921   0.223  0.3781  0.1780  0.5488
   96MOL    H1730607   6.632   1.778   0.168  0.1917  0.4804  0.1455
   96MOL    C1830608   6.046   1.901   0.539 -0.4675 -0.0799  0.0766
   96MOL    C1930609   5.909   1.948   0.578 -0.8480 -0.4623 -0.2605
   96MOL    C2030610   5.886   2.077   0.631 -0.7309 -0.2464 -0.2340
   96MOL    C2130611   5.753   2.108   0.675 -0.0215 -0.4050 -0.7330
   96MOL    C2230612   5.647   2.015   0.666 -0.0960  0.4027  0.0121
   96MOL    C2330613   5.514   2.030   0.737  0.1195 -0.2326 -0.1081
   96MOL    C2430614   5.675   1.893   0.596 -0.4103  0.1704 -0.1768
   96MOL    C2530615   5.804   1.858   0.555 -0.3652 -0.0241 -0.0689
   96MOL    H2630616   6.074   1.818   0.605  0.7198 -0.4078 -0.8207
   96MOL    H2730617   6.114   1.986   0.545 -0.8681  0.1068  2.3193
   96MOL    H2830618   5.966   2.148   0.648 -0.7455  0.0268 -1.2491
   96MOL    H2930619   5.742   2.207   0.716 -0.7792 -0.1728 -1.4736
   96MOL    H3030620   5.455   2.112   0.697  0.2442  0.2710  0.7317
   96MOL    H3130621   5.541   2.052   0.840 -0.0290 -2.3084  0.3948
   96MOL    H3230622   5.600   1.819   0.575  0.4598 -0.8435  0.2052
   96MOL    H3330623   5.817   1.763   0.504  1.9359  0.7098 -0.9098
   96MOL    C3430624   5.419   1.908   0.742 -0.1659  0.6833  0.0425
   96MOL    C3530625   5.286   1.942   0.807  0.7817 -0.0978 -0.3669
   96MOL    C3630626   5.180   1.857   0.784  0.8635  0.3458  0.0131
   96MOL    C3730627   5.049   1.880   0.830  0.6857 -0.2513  0.3291
   96MOL    C3830628   5.033   1.988   0.925 -0.5539  0.4672  0.1245
   96MOL    C3930629   4.895   2.021   0.988 -0.0273 -0.7994  0.0592
   96MOL    C4030630   5.143   2.064   0.964 -0.7366 -0.4483 -0.5058
   96MOL    C4130631   5.273   2.044   0.902  1.3194 -0.3210 -0.3203
   96MOL    H4230632   5.460   1.820   0.793 -2.3704 -1.2072 -1.3912
   96MOL    H4330633   5.398   1.895   0.636 -1.2386  1.8375  0.1042
   96MOL    H4430634   5.193   1.772   0.719 -1.5854  1.9867 -2.7108
   96MOL    H4530635   4.969   1.808   0.820  0.8959 -0.8680  2.9403
   96MOL    H4630636   4.841   1.927   1.000 -0.8370 -0.5324 -1.3256
   96MOL    H4730637   4.909   2.065   1.086 -2.3182 -2.6253  1.2704
   96MOL    H4830638   5.118   2.142   1.034 -2.4890 -1.0496 -0.4330
   96MOL    H4930639   5.356   2.102   0.939  1.7105 -0.2726 -1.2745
   96MOL    C5030640   4.818   2.123   0.893 -0.3822  0.2972 -0.4200
   96MOL    C5130641   4.687   2.161   0.962  0.4248 -0.3385  0.1805
   96MOL    C5230642   4.670   2.292   1.009  0.2467 -0.2255  0.8032
   96MOL    C5330643   4.544   2.331   1.061  0.2191  0.8195 -0.9081
   96MOL    C5430644   4.436   2.230   1.068 -0.8498  0.3568 -0.7435
   96MOL    C5530645   4.306   2.284   1.128 -0.1595 -0.1407  0.2074
   96MOL    C5630646   4.452   2.103   1.015 -0.3217  0.0471  0.0700
   96MOL    C5730647   4.580   2.066   0.965  0.5489 -0.6704 -0.7114
   96MOL    H5830648   4.811   2.084   0.792  1.4358  2.2121 -1.3178
   96MOL    H5930649   4.880   2.212   0.886  0.3547 -0.0031  1.6864
   96MOL    H6030650   4.751   2.362   0.999  0.5624 -0.6362  0.4484
   96MOL    H6130651   4.528   2.436   1.081 -0.7045  0.4402  0.3849
   96MOL    H6230652   4.263   2.201   1.183 -0.3062  0.1286  0.4938
   96MOL    H6330653   4.330   2.362   1.200 -2.2006 -0.9781  1.8435
   96MOL    H6430654   4.369   2.034   1.010 -1.7779  1.8111 -0.6373
   96MOL    H6530655   4.588   1.973   0.910 -0.5701 -0.0259 -2.0056
   96MOL    C6630656   4.212   2.341   1.021 -0.2067 -0.5749 -0.0710
   96MOL    C6730657   4.077   2.398   1.072  0.2993 -0.2489 -0.7965
   96MOL    C6830658   4.060   2.534   1.107 -0.7962  0.3912  0.4373
   96MOL    C6930659   3.944   2.588   1.160 -0.1874 -0.0904 -0.4089
   96MOL    C7030660   3.842   2.502   1.198  0.0109 -0.6719  0.4570
   96MOL    C7130661   3.712   2.547   1.247  0.7199 -0.0473 -0.4465
   96MOL    C7230662   3.850   2.367   1.164  0.2488 -0.5794 -0.5007
   96MOL    C7330663   3.965   2.317   1.099  0.4002  0.3240 -0.0499
   96MOL    H7430664   4.176   2.270   0.947  0.5090  0.6396 -1.6294
   96MOL    H7530665   4.262   2.423   0.969 -2.0244  2.2002  2.3256
   96MOL    H7630666   4.132   2.613   1.091 -0.1970  0.0347  1.3054
   96MOL    H7730667   3.939   2.693   1.185 -1.4829 -0.6135  1.6223
   96MOL    H7830668   3.728   2.637   1.307 -2.9478  0.2671  0.1763
   96MOL    H7930669   3.664   2.470   1.307  0.2436  0.0821 -0.6634
   96MOL    H8030670   3.771   2.295   1.182  0.0556 -0.3562 -0.4471
   96MOL    H8130671   3.979   2.212   1.080  0.2945  0.4831 -1.0498
   96MOL    C8230672   3.625   2.595   1.128 -0.2002 -0.1408 -0.3700
   96MOL    C8330673   3.492   2.647   1.182 -0.3774 -0.3691 -0.3254
   96MOL    C8430674   3.411   2.570   1.261 -0.4257  0.4938  0.5460
   96MOL    C8530675   3.274   2.608   1.297  0.5439  0.2275  0.3405
   96MOL    C8630676   3.224   2.728   1.251  0.2997 -0.2828 -0.3577
   96MOL    C8730677   3.085   2.775   1.281  0.2094 -1.0612  0.1924
   96MOL    C8830678   3.301   2.814   1.176  0.0548  0.0619 -0.2833
   96MOL    C8930679   3.431   2.770   1.136 -0.4119  0.1948  0.1684
   96MOL    H9030680   3.628   2.521   1.048  0.0877  0.9282 -1.3610
   96MOL    H9130681   3.655   2.687   1.079  1.7381 -0.0766  0.8743
   96MOL    H9230682   3.441   2.472   1.296 -1.4649  0.3517  1.0728
   96MOL    H9330683   3.212   2.536   1.349 -1.6994 -0.0327 -2.5552
   96MOL    H9430684   3.089   2.869   1.336 -3.3139 -0.6425 -0.1249
   96MOL    H9530685   3.029   2.717   1.354 -0.9798  1.9759  1.7812
   96MOL    H9630686   3.266   2.902   1.126 -0.3141 -0.7321 -1.4337
   96MOL    H9730687   3.481   2.832   1.064  0.3833 -0.7895 -0.1399
   96MOL    C9830688   2.996   2.775   1.152  0.2750 -0.0250 -0.0647
   96MOL    C9930689   2.858   2.826   1.177  0.3297 -0.2192 -0.3969
   96MOL   C10030690   2.775   2.755   1.265 -0.7895 -0.2905 -0.2868
   96MOL   C10130691   2.651   2.814   1.293 -0.0008 -0.4455  0.3686
   96MOL   C10230692   2.603   2.938   1.229 -0.7652  0.5416 -0.1519
   96MOL   C10330693   2.475   3.011   1.267  0.2343  0.3623  0.1971
   96MOL   C10430694   2.696   3.006   1.151 -0.0602  0.2663  0.2334
   96MOL   C10530695   2.819   2.947   1.123  0.4707  0.7158 -0.4813
   96MOL   H10630696   3.007   2.671   1.122  3.1960 -0.0515  0.9483
   96MOL   H10730697   3.040   2.840   1.076  2.1454 -0.5189  0.5717
   96MOL   H10830698   2.802   2.674   1.331 -2.1966  0.8144  1.7261
   96MOL   H10930699   2.579   2.762   1.354 -0.8605 -0.2524 -0.4630
   96MOL   H11030700   2.439   2.984   1.367  0.8154  0.6723  0.4958
   96MOL   H11130701   2.499   3.117   1.272 -1.2364  0.6904  0.6113
   96MOL   H11230702   2.690   3.107   1.113 -0.5698  0.3657  0.5730
   96MOL   H11330703   2.886   2.990   1.050  1.8029  1.1037  0.9333
   96MOL   C11430704   2.349   2.994   1.176 -0.1108  0.1923  0.4918
   96MOL   C11530705   2.251   3.104   1.213 -0.2471  0.8032 -0.1093
   96MOL   C11630706   2.244   3.219   1.139 -0.0654 -0.0660 -0.4519
   96MOL   C11730707   2.147   3.318   1.166  0.3740  0.1348 -1.0702
   96MOL   C11830708   2.054   3.299   1.270 -0.1627 -0.1873 -0.4480
   96MOL   C11930709   1.934   3.389   1.284  0.1815 -0.4581  0.5569
   96MOL   C12030710   2.057   3.184   1.351 -0.5655 -0.6628 -0.2055
   96MOL   C12130711   2.157   3.088   1.314 -0.2567 -0.1216 -0.3675
   96MOL   H12230712   2.315   2.891   1.187  0.1152 -0.0659 -1.0088
   96MOL   H12330713   2.383   3.004   1.072 -1.1392  0.6996  0.1978
   96MOL   H12430714   2.310   3.250   1.059  0.6875  1.6920  0.8073
   96MOL   H12530715   2.137   3.406   1.105  0.4416  0.8915 -0.0085
   96MOL   H12630716   1.882   3.368   1.377 -1.8553 -0.3462 -0.5397
   96MOL   H12730717   1.966   3.493   1.293 -2.9071  0.7474 -1.5771
   96MOL   H12830718   1.985   3.156   1.426  1.1225  0.7434  1.9878
   96MOL   H12930719   2.163   3.004   1.382  0.0734 -0.6885 -1.0832
   96MOL   C13030720   1.843   3.372   1.169 -0.1984 -0.5534  0.0124
   96MOL   C13130721   1.723   3.462   1.184 -0.1435 -0.8613 -0.0100
   96MOL   C13230722   1.626   3.442   1.285  0.0205  0.3527  0.2082
   96MOL   C13330723   1.529   3.539   1.310 -0.2475  0.0784  0.6086
   96MOL   C13430724   1.521   3.651   1.225 -1.1258  0.0981 -0.5279
   96MOL   C13530725   1.412   3.756   1.244  0.0786  0.4656 -0.5819
   96MOL   C13630726   1.613   3.676   1.115  0.0901  0.4212  0.2835
   96MOL   C13730727   1.710   3.579   1.105 -0.2564 -0.3379 -0.5516
   96MOL   H13830728   1.800   3.271   1.169 -1.9904  0.1779 -0.1226
   96MOL   H13930729   1.890   3.383   1.071  1.6093 -2.0186  0.6902
   96MOL   H14030730   1.627   3.352   1.344  1.3755 -0.7619 -1.4604
   96MOL   H14130731   1.458   3.540   1.391 -2.1170  1.2259 -1.0282
   96MOL   H14230732   1.318   3.727   1.196  0.9550 -2.7778 -0.4195
   96MOL   H14330733   1.394   3.758   1.352  2.0279  2.4397 -0.2616
   96MOL   H14430734   1.605   3.764   1.052 -2.5771  0.3520  0.4638
   96MOL   H14530735   1.793   3.589   1.037 -0.2515  0.6763 -0.4103
   96MOL   C14630736   1.442   3.896   1.199 -0.5759 -0.0206 -0.6676
   96MOL   C14730737   1.329   3.998   1.230 -0.3299  0.0702 -0.9889
   96MOL   C14830738   1.351   4.120   1.298 -0.1956 -0.6414  0.4750
   96MOL   C14930739   1.240   4.198   1.348  0.4976 -0.3353 -0.1933
   96MOL   C15030740   1.110   4.175   1.304  0.3963  0.3679 -0.3129
   96MOL   C15130741   0.993   4.265   1.342  0.3318  0.0376 -0.7153
   96MOL   C15230742   1.091   4.059   1.218 -0.4611  0.7316  1.1275
   96MOL   C15330743   1.196   3.970   1.193 -0.4948 -0.4526 -0.4216
   96MOL   H15430744   1.451   3.902   1.091 -1.5282  0.5838 -0.7171
   96MOL   H15530745   1.533   3.936   1.245 -0.6694 -2.7553  2.1207
   96MOL   H15630746   1.452   4.138   1.331 -0.8162  1.5065  1.2637
   96MOL   H15730747   1.264   4.286   1.405 -0.6888  1.1773 -1.9621
   96MOL   H15830748   0.922   4.234   1.266  0.1501  1.1537 -1.0072
   96MOL   H15930749   0.959   4.247   1.444 -0.6607  0.4308 -0.9762
   96MOL   H16030750   0.994   4.032   1.180  0.0770 -0.5626  0.6585
   96MOL   H16130751   1.179   3.878   1.138  2.2879 -2.7104  2.3378
   96MOL   C16230752   1.023   4.409   1.323 -0.2146  0.9854 -0.1711
   96MOL   C16330753   0.910   4.509   1.325  0.4656  0.1567 -0.1790
   96MOL   C16430754   0.840   4.540   1.207  0.5077  0.5099  0.0733
   96MOL   C16530755   0.739   4.635   1.222 -0.2210  0.7743  0.2888
   96MOL   C16630756   0.692   4.692   1.343  0.9112  0.4834 -0.6470
   96MOL   C16730757   0.576   4.786   1.342 -0.4375  0.0589 -0.1414
   96MOL   C16830758   0.768   4.656   1.460 -0.2426  0.5235  0.7641
   96MOL   C16930759   0.872   4.565   1.451  0.0318 -0.0611 -0.0607
   96MOL   H17030760   1.070   4.415   1.225  0.4838  1.6760  0.2017
   96MOL   H17130761   1.103   4.442   1.390 -0.2256 -0.3141  0.4817
   96MOL   H17230762   0.858   4.496   1.110  1.2551  3.7363 -1.3004
   96MOL   H17330763   0.682   4.637   1.130  0.8522  1.0932 -0.3675
   96MOL   H17430764   0.584   4.840   1.436 -0.5544 -0.4321  0.1526
   96MOL   H17530765   0.589   4.867   1.270 -1.6804 -1.2624 -1.9019
   96MOL   H17630766   0.752   4.700   1.557 -0.2212  0.0532  0.9841
   96MOL   H17730767   0.924   4.550   1.544 -0.1012  0.0471  0.0306
   96MOL   C17830768   0.442   4.713   1.335 -0.4566 -0.3457 -0.0123
   96MOL   C17930769   0.328   4.816   1.322 -0.0714  1.3410  0.6665
   96MOL   C18030770   0.271   4.863   1.434  0.0593 -0.1808 -0.1995
   96MOL   C18130771   0.175   4.969   1.424  0.3648 -0.4306 -0.4200
   96MOL   C18230772   0.122   5.013   1.301 -0.2189  0.9531  0.1925
   96MOL   C18330773   0.008   5.110   1.293  0.1076  0.2638 -0.3640
   96MOL   C18430774   0.188   4.958   1.189 -0.7953  0.2542 -0.7243
   96MOL   C18530775   0.298   4.870   1.194  0.2555  0.2557 -0.7477
   96MOL   H18630776   0.431   4.656   1.428 -0.0745 -0.7509 -0.2131
   96MOL   H18730777   0.448   4.649   1.247  0.0113  0.9176 -0.9118
   96MOL   H18830778   0.302   4.825   1.531  0.2986  1.7558  0.5157
   96MOL   H18930779   0.132   5.013   1.512 -0.7762  0.5705 -1.4615
   96MOL   H19030780   0.030   5.207   1.337 -1.8944  0.3338  0.5528
   96MOL   H19130781  -0.012   5.127   1.188 -1.5251 -0.0656 -0.1302
   96MOL   H19230782   0.166   4.994   1.090  0.6345 -0.8432 -1.4753
   96MOL   H19330783   0.361   4.842   1.112  0.6204 -0.6394 -0.1702
   96MOL   C19430784  -0.120   5.059   1.361  0.2416 -0.2177 -0.0339
   96MOL   C19530785  -0.226   5.162   1.352  0.8528 -0.6180  0.5596
   96MOL   C19630786  -0.277   5.203   1.224  0.1793  0.4787  0.1976
   96MOL   C19730787  -0.366   5.311   1.211  0.5752  0.0153 -0.3669
   96MOL   C19830788  -0.396   5.378   1.332 -0.2444 -0.3937 -0.0779
   96MOL   C19930789  -0.508   5.480   1.321  0.6866 -0.5806 -0.0497
   96MOL   C20030790  -0.350   5.343   1.457 -0.3274  0.1623  0.3056
   96MOL   C20130791  -0.268   5.232   1.471 -0.4631 -0.6412  0.0569
   96MOL   H20230792  -0.104   5.035   1.467 -0.5480 -2.1871 -0.3467
   96MOL   H20330793  -0.168   4.974   1.313 -1.0242  0.5519 -0.1501
   96MOL   H20430794  -0.261   5.139   1.138  0.9444 -0.1779  0.8225
   96MOL   H20530795  -0.412   5.337   1.117  0.4112 -2.7104 -1.0588
   96MOL   H20630796  -0.496   5.553   1.402  0.0874 -1.3949  0.7803
   96MOL   H20730797  -0.502   5.532   1.225 -1.1796 -2.0743 -0.9983
   96MOL   H20830798  -0.380   5.402   1.543  3.5130  2.5077  0.1533
   96MOL   H20930799  -0.229   5.198   1.566 -2.3837  0.1273  1.1480
   96MOL   C21030800  -0.656   5.430   1.345 -1.1944 -0.8845  0.1037
   96MOL   C21130801  -0.751   5.553   1.357 -0.4989 -0.2366 -0.6124
   96MOL   C21230802  -0.769   5.634   1.473 -0.0850 -0.3332  0.6339
   96MOL   C21330803  -0.848   5.749   1.473 -0.0176 -0.3670  0.3916
   96MOL   C21430804  -0.920   5.781   1.357 -0.2330  0.4484 -0.2813
   96MOL   C21530805  -1.001   5.910   1.348 -0.1760  0.3992 -0.0601
   96MOL   C21630806  -0.920   5.697   1.249  0.0647 -0.1346  0.8838
   96MOL   C21730807  -0.837   5.584   1.248 -0.1873  0.1000 -0.2302
   96MOL   H21830808  -0.671   5.361   1.428 -2.3590 -0.4866  0.2360
   96MOL   H21930809  -0.682   5.361   1.264 -1.0596 -2.0190  1.0054
   96MOL   H22030810  -0.702   5.619   1.557  0.1958 -0.0494  0.4612
   96MOL   H22130811  -0.848   5.810   1.562 -0.6467 -1.9549  1.5085
   96MOL   H22230812  -0.981   5.976   1.433  0.7070  0.3362 -0.2151
   96MOL   H22330813  -0.954   5.965   1.267 -0.7475  2.6170  1.0765
   96MOL   H22430814  -0.985   5.705   1.163  0.9013  0.2695  0.2661
   96MOL   H22530815  -0.835   5.522   1.160 -1.6129  1.4543 -1.2297
   96MOL   C22630816  -1.150   5.885   1.338  1.3502  0.0757 -0.2979
   96MOL   C22730817  -1.243   5.998   1.352 -0.1232 -0.6351  0.3485
   96MOL   C22830818  -1.222   6.129   1.296 -0.2179  1.1099 -0.9684
   96MOL   C22930819  -1.325   6.225   1.301  0.3828  0.0216  0.2470
   96MOL   C23030820  -1.449   6.193   1.363  1.0759 -0.0426  0.3225
   96MOL   C23130821  -1.563   6.300   1.381 -0.1281 -0.4899 -0.9789
   96MOL   C23230822  -1.458   6.070   1.430  0.4192  0.6897 -0.3179
   96MOL   C23330823  -1.362   5.970   1.424 -0.6522  0.2035 -0.2351
   96MOL   H23430824  -1.190   5.804   1.398 -0.9593 -0.8718 -3.0026
   96MOL   H23530825  -1.166   5.852   1.235 -1.3414  2.4237 -0.6837
   96MOL   H23630826  -1.129   6.142   1.243 -0.7069  0.9259 -1.8835
   96MOL   H23730827  -1.311   6.320   1.251  0.3952 -0.0365  0.1400
   96MOL   H23830828  -1.571   6.313   1.489  0.0494  1.1710 -1.1529
   96MOL   H23930829  -1.546   6.391   1.323 -1.6418  1.1055  1.0166
   96MOL   H24030830  -1.549   6.050   1.483  0.6020  0.3033 -0.1481
   96MOL   H24130831  -1.369   5.878   1.480 -1.5904  0.1651 -0.4152
   96MOL   C24230832  -1.694   6.249   1.317  0.3388 -0.6061  0.3199
   96MOL   C24330833  -1.806   6.356   1.326 -0.2199  0.4675  1.1485
   96MOL   C24430834  -1.869   6.403   1.208  0.1577  0.3046  0.0838
   96MOL   C24530835  -1.969   6.503   1.216  0.1796 -0.3343 -0.3601
   96MOL   C24630836  -2.017   6.547   1.339 -0.0017  1.0110  0.2413
   96MOL   C24730837  -2.117   6.664   1.355  0.0911 -0.0526 -0.1818
   96MOL   C24830838  -1.952   6.499   1.454  0.5409  0.1263  0.4957
   96MOL   C24930839  -1.851   6.401   1.450  0.1009 -0.4498  0.3953
   96MOL   H25030840  -1.670   6.225   1.213 -1.8035 -1.4476  0.0057
   96MOL   H25130841  -1.741   6.158   1.354 -1.9661  0.4876  0.1684
   96MOL   H25230842  -1.841   6.375   1.108 -2.3524 -2.1359 -0.0054
   96MOL   H25330843  -2.012   6.542   1.125 -0.0619  2.9563  1.0936
   96MOL   H25430844  -2.112   6.686   1.461 -0.9688 -0.1635 -0.1069
   96MOL   H25530845  -2.085   6.747   1.292  2.4244 -0.4618  0.4403
   96MOL   H25630846  -1.991   6.534   1.548 -0.8932 -1.3126  0.4488
   96MOL   H25730847  -1.810   6.362   1.542 -2.0036  0.3107  1.6862
   96MOL   C25830848  -2.253   6.605   1.316  0.3812  0.2213 -0.1556
   96MOL   C25930849  -2.371   6.702   1.323 -0.1144 -0.3377 -0.0941
   96MOL   C26030850  -2.413   6.743   1.451  0.2857 -0.2173 -0.6336
   96MOL   C26130851  -2.521   6.835   1.464  0.1017 -0.3714  0.0845
   96MOL   C26230852  -2.588   6.880   1.352  0.1223  0.2733  0.3955
   96MOL   C26330853  -2.714   6.964   1.371  0.8872  0.3872 -0.2681
   96MOL   C26430854  -2.547   6.839   1.227 -0.0113  0.7619  0.3428
   96MOL   C26530855  -2.439   6.754   1.208 -0.7470 -0.0571 -0.6930
   96MOL   H26630856  -2.266   6.520   1.384 -0.9942 -0.6548 -1.4986
   96MOL   H26730857  -2.256   6.563   1.216 -1.2627 -0.9960  0.3770
   96MOL   H26830858  -2.380   6.694   1.542  0.3051  1.3998  0.2377
   96MOL   H26930859  -2.565   6.868   1.557  0.7255  3.5227 -0.9181
   96MOL   H27030860  -2.707   6.990   1.477 -1.0123 -0.9654  0.2111
   96MOL   H27130861  -2.701   7.055   1.313  0.5208  1.0757  0.7074
   96MOL   H27230862  -2.606   6.847   1.136  1.1168 -2.1244 -0.7066
   96MOL   H27330863  -2.406   6.716   1.113  1.1533 -1.1782  0.3731
   96MOL   C27430864  -2.848   6.889   1.344 -0.5464  0.3241 -0.1934
   96MOL   C27530865  -2.970   6.970   1.369 -0.1888  0.2498 -0.6579
   96MOL   C27630866  -3.053   6.941   1.481 -0.0422 -0.8057 -0.3826
   96MOL   C27730867  -3.166   7.023   1.505  0.3935 -0.2427  0.0439
   96MOL   C27830868  -3.195   7.129   1.429  0.3117  0.4050  0.7509
   96MOL   C27930869  -3.322   7.211   1.439 -0.4864  0.1037 -0.4040
   96MOL   C28030870  -3.121   7.153   1.313  0.3977  0.1857  0.5086
   96MOL   C28130871  -3.006   7.077   1.282 -0.2656  0.3845 -0.4016
   96MOL   H28230872  -2.848   6.846   1.244  0.8093  2.0729 -0.9778
   96MOL   H28330873  -2.848   6.798   1.403 -1.5831  0.5189  0.1348
   96MOL   H28430874  -3.019   6.857   1.540  2.4228  0.0083 -0.5792
   96MOL   H28530875  -3.236   7.000   1.584 -1.1657  1.0778 -0.9383
   96MOL   H28630876  -3.344   7.226   1.545  0.3491 -0.6314 -0.1181
   96MOL   H28730877  -3.324   7.310   1.395 -2.7304  0.2972  0.0643
   96MOL   H28830878  -3.144   7.228   1.240  2.1641  0.8660  0.6210
   96MOL   H28930879  -2.956   7.098   1.189 -0.5293 -1.7207 -1.0455
   96MOL   C29030880  -3.443   7.148   1.362  0.0487 -0.3950  0.5456
   96MOL   C29130881  -3.572   7.229   1.382 -0.7326  0.6514 -0.4096
   96MOL   C29230882  -3.583   7.354   1.315 -0.6814 -0.1110 -0.3542
   96MOL   C29330883  -3.697   7.435   1.335  0.2999  0.3181 -0.0298
   96MOL   C29430884  -3.806   7.383   1.403 -0.3449 -0.0166  0.2285
   96MOL   C29530885  -3.931   7.456   1.426  0.3461 -0.9543  0.2280
   96MOL   C29630886  -3.797   7.251   1.461 -0.0912 -0.9516 -0.3977
   96MOL   C29730887  -3.677   7.175   1.456  0.2670 -0.0213 -0.0886
   96MOL   H29830888  -3.461   7.044   1.390 -2.7152 -0.1297 -0.0244
   96MOL   H29930889  -3.420   7.150   1.255 -1.3863 -0.2590  0.2297
   96MOL   H30030890  -3.498   7.402   1.270 -0.9291  0.5868 -0.0866
   96MOL   H30130891  -3.708   7.526   1.278  0.4046  1.1333  1.2387
   96MOL   H30230892  -3.976   7.434   1.523 -0.9722  0.3143 -0.0802
   96MOL   H30330893  -3.903   7.560   1.436 -0.8260 -0.1756 -3.8685
   96MOL   H30430894  -3.882   7.213   1.515 -0.5422  0.9993  0.2951
   96MOL   H30530895  -3.679   7.076   1.499 -1.4662  0.0651  0.0385
   96MOL   C30630896  -4.027   7.450   1.309 -0.4077  0.9106  0.6063
   96MOL   C30730897  -4.151   7.536   1.314  0.3828 -0.0261  0.1019
   96MOL   C30830898  -4.247   7.530   1.206 -0.8302  0.3738  0.5631
   96MOL   C30930899  -4.366   7.600   1.224  0.1002  0.4367 -0.0712
   96MOL   C31030900  -4.389   7.682   1.336  0.3585 -0.5065 -0.8145
   96MOL   C31130901  -4.513   7.757   1.347 -1.2811 -0.0527  0.0244
   96MOL   C31230902  -4.291   7.693   1.434 -0.0583  0.1912 -0.5385
   96MOL   C31330903  -4.174   7.620   1.422 -0.1004 -0.9335 -1.0539
   96MOL   H31430904  -4.055   7.345   1.300 -0.1405  1.0129 -1.8522
   96MOL   H31530905  -3.972   7.477   1.219 -0.9588 -1.7441 -0.5705
   96MOL   H31630906  -4.223   7.473   1.117 -1.0196  0.8722  0.1920
   96MOL   H31730907  -4.444   7.589   1.149  0.4033  2.2837 -0.6868
   96MOL   H31830908  -4.545   7.799   1.252 -0.0122 -0.9176 -0.7940
   96MOL   H31930909  -4.598   7.698   1.384 -1.6935  0.6250  0.1743
   96MOL   H32030910  -4.303   7.759   1.519 -0.4216 -0.0979 -0.3623
   96MOL   H32130911  -4.112   7.630   1.509 -0.5479 -1.0333 -0.7187
   96MOL   H32230912  -4.496   7.843   1.412  1.3599 -1.2078  0.9133
   97MOL     C130913   7.508   0.117   6.788  0.2042 -0.0009  0.3184
   97MOL     C230914   7.366   0.165   6.795  0.1180  0.0051  0.4114
   97MOL     C330915   7.327   0.301   6.814 -0.0476  0.0199  0.8660
   97MOL     C430916   7.191   0.339   6.828  0.0045  0.0659  0.2294
   97MOL     C530917   7.088   0.245   6.832  0.2119 -0.1153 -0.0477
   97MOL     C630918   6.946   0.289   6.838  0.3315  0.8473  0.1691
   97MOL     C730919   7.124   0.111   6.821 -0.1487 -0.6606  0.2755
   97MOL     C830920   7.258   0.071   6.805 -0.3971  0.2110 -0.9676
   97MOL     H930921   7.543   0.081   6.885  2.9930  0.1412 -0.5932
   97MOL    H1030922   7.519   0.039   6.713 -2.4931 -0.2088  0.0977
   97MOL    H1130923   7.399   0.379   6.835 -1.3728  1.6798 -0.6458
   97MOL    H1230924   7.166   0.444   6.829 -3.3431 -0.6097 -2.6106
   97MOL    H1330925   6.910   0.367   6.770  0.1756 -0.8318 -1.7164
   97MOL    H1430926   6.880   0.207   6.811  0.6907  1.4485 -2.6565
   97MOL    H1530927   7.043   0.040   6.830 -0.2674 -0.7551 -1.3223
   97MOL    H1630928   7.279  -0.035   6.809  0.4173  0.3862 -0.3625
   97MOL    H1730929   7.569   0.206   6.769 -2.3061  2.0315  1.5216
   97MOL    C1830930   6.911   0.314   6.988  0.2708 -0.0033  0.2369
   97MOL    C1930931   6.779   0.385   7.000  0.5436  0.0654 -0.1981
   97MOL    C2030932   6.660   0.305   7.006 -0.0385  0.0925 -0.3305
   97MOL    C2130933   6.540   0.374   7.007 -0.3327  0.8191  0.4478
   97MOL    C2230934   6.538   0.516   7.008 -0.3628 -0.2557  0.0914
   97MOL    C2330935   6.409   0.591   7.006  0.6636  0.2059  1.1990
   97MOL    C2430936   6.657   0.583   7.014 -0.0835 -0.9618  0.3097
   97MOL    C2530937   6.782   0.524   7.007  0.2025 -0.1809 -0.1772
   97MOL    H2630938   6.929   0.228   7.052  0.1618 -0.8363 -0.8339
   97MOL    H2730939   6.983   0.388   7.022 -1.8944  1.2243  2.2250
   97MOL    H2830940   6.662   0.197   7.016  0.4129  0.2908  2.0183
   97MOL    H2930941   6.451   0.315   7.020 -0.6709  0.5940 -2.6608
   97MOL    H3030942   6.347   0.552   6.926  2.1361  1.4719 -0.5933
   97MOL    H3130943   6.415   0.695   6.972 -0.4360  0.1742  0.8707
   97MOL    H3230944   6.649   0.691   7.010 -2.9719 -1.1397  0.7246
   97MOL    H3330945   6.876   0.576   6.994  0.9208 -1.7231 -1.3626
   97MOL    C3430946   6.353   0.596   7.149  0.5075  0.0085  0.4433
   97MOL    C3530947   6.219   0.661   7.146 -0.0065  0.7494 -0.2081
   97MOL    C3630948   6.207   0.804   7.152  0.0658 -0.3874  0.2358
   97MOL    C3730949   6.081   0.857   7.172 -0.2901  0.1690 -0.4625
   97MOL    C3830950   5.968   0.778   7.195  0.5425 -0.5749 -0.7293
   97MOL    C3930951   5.830   0.837   7.229  0.1265 -0.1724  0.3587
   97MOL    C4030952   5.978   0.640   7.198  0.0439  0.6199 -0.1159
   97MOL    C4130953   6.102   0.584   7.167 -0.2723  0.0910  0.0025
   97MOL    H4230954   6.426   0.644   7.213  1.4886  0.0283 -0.6638
   97MOL    H4330955   6.343   0.491   7.179 -0.8807 -0.1276 -0.4168
   97MOL    H4430956   6.298   0.862   7.144 -1.5278  2.1872  0.1978
   97MOL    H4530957   6.063   0.963   7.173  1.5640  0.4919  1.1007
   97MOL    H4630958   5.824   0.937   7.186 -1.2340 -0.8283 -1.0411
   97MOL    H4730959   5.747   0.793   7.174 -3.2582  2.0226  3.3791
   97MOL    H4830960   5.891   0.587   7.234  1.0174 -1.1747 -0.3737
   97MOL    H4930961   6.107   0.477   7.176 -2.2552 -0.0072  0.1838
   97MOL    C5030962   5.805   0.862   7.375 -0.1083  0.3990 -0.5151
   97MOL    C5130963   5.673   0.934   7.407  0.0478  0.8535  0.8110
   97MOL    C5230964   5.558   0.868   7.460 -0.2592 -0.5679 -0.3469
   97MOL    C5330965   5.447   0.949   7.487  0.0063  0.2731 -0.4903
   97MOL    C5430966   5.446   1.087   7.464 -0.3861 -0.4569 -0.5912
   97MOL    C5530967   5.323   1.169   7.506  0.3362 -0.1781  0.8559
   97MOL    C5630968   5.563   1.152   7.416 -0.9341  0.3491 -0.2451
   97MOL    C5730969   5.674   1.074   7.388 -0.5850  0.0415  0.7388
   97MOL    H5830970   5.875   0.924   7.432  0.9895 -0.3270 -1.0593
   97MOL    H5930971   5.805   0.767   7.428  2.9331 -0.5047 -2.0237
   97MOL    H6030972   5.547   0.765   7.487 -0.9005 -0.3100  0.3976
   97MOL    H6130973   5.355   0.905   7.521 -0.1395 -0.5842 -1.9426
   97MOL    H6230974   5.308   1.252   7.438  0.0883 -0.1816  0.9066
   97MOL    H6330975   5.236   1.105   7.496  1.7632 -1.7708 -2.0300
   97MOL    H6430976   5.574   1.257   7.393 -0.7530  0.4576  0.3371
   97MOL    H6530977   5.767   1.124   7.365  0.2921 -1.1218  1.6673
   97MOL    C6630978   5.331   1.229   7.650  0.4177  0.3280  0.3243
   97MOL    C6730979   5.198   1.306   7.680  1.2257 -0.2361  0.1305
   97MOL    C6830980   5.100   1.244   7.761  0.2580 -0.4928 -0.4312
   97MOL    C6930981   4.984   1.309   7.806 -0.1965 -0.2838  0.3924
   97MOL    C7030982   4.962   1.443   7.764 -0.4243 -0.2867  0.1795
   97MOL    C7130983   4.832   1.518   7.804 -0.5039  0.2018 -0.5511
   97MOL    C7230984   5.060   1.505   7.682  0.1714 -0.2258 -0.6440
   97MOL    C7330985   5.173   1.433   7.638 -0.3735  0.2475 -0.1896
   97MOL    H7430986   5.415   1.298   7.661 -1.2077  2.3065  0.5957
   97MOL    H7530987   5.347   1.148   7.721  0.1197  1.7559  2.0475
   97MOL    H7630988   5.113   1.141   7.791 -1.0140  0.2232  2.8488
   97MOL    H7730989   4.902   1.259   7.855 -2.3985  0.9379 -1.9246
   97MOL    H7830990   4.791   1.455   7.883  0.1883  1.2907  0.7186
   97MOL    H7930991   4.757   1.514   7.725 -1.2663  0.4529  0.1521
   97MOL    H8030992   5.054   1.606   7.643  1.0145 -0.5511 -1.6620
   97MOL    H8130993   5.228   1.491   7.565  1.1426 -2.5837 -1.4089
   97MOL    C8230994   4.852   1.665   7.850 -0.0919 -0.4748  0.1189
   97MOL    C8330995   4.732   1.738   7.908  0.6526 -0.0197  0.0200
   97MOL    C8430996   4.612   1.747   7.837 -0.2755  0.4462 -0.0180
   97MOL    C8530997   4.495   1.811   7.888 -0.4615 -0.4418 -0.3838
   97MOL    C8630998   4.495   1.860   8.022  0.9102  0.6626  0.2777
   97MOL    C8730999   4.364   1.898   8.078  0.0510 -0.2888  0.1945
   97MOL    C8831000   4.620   1.859   8.088 -0.1508 -0.3350 -0.6191
   97MOL    C8931001   4.735   1.786   8.042  0.8652 -0.0430 -0.7287
   97MOL    H9031002   4.897   1.722   7.768  0.6373  0.6268  1.2684
   97MOL    H9131003   4.928   1.660   7.927  0.2788 -1.7026 -0.3189
   97MOL    H9231004   4.599   1.710   7.736  0.8412  0.5723 -0.2154
   97MOL    H9331005   4.403   1.818   7.833 -0.9128  0.1833  0.4349
   97MOL    H9431006   4.347   1.871   8.183 -0.4991  0.9196  0.4300
   97MOL    H9531007   4.290   1.845   8.019  0.3323  0.6935 -1.0600
   97MOL    H9631008   4.619   1.892   8.191  1.3094 -2.4549  0.1145
   97MOL    H9731009   4.820   1.761   8.103 -0.8108 -1.7131  0.9874
   97MOL    C9831010   4.334   2.045   8.054  0.6365 -0.3212  0.5398
   97MOL    C9931011   4.189   2.079   8.075 -0.1181 -0.7357 -0.0333
   97MOL   C10031012   4.150   2.121   8.206  0.2718 -0.0275  0.4540
   97MOL   C10131013   4.025   2.166   8.232  0.9843 -0.5832 -0.3484
   97MOL   C10231014   3.924   2.148   8.138 -0.2765  0.1519 -0.0985
   97MOL   C10331015   3.784   2.181   8.177  0.1695  0.3741  0.2210
   97MOL   C10431016   3.960   2.098   8.010  0.3641  0.1669  0.1725
   97MOL   C10531017   4.093   2.070   7.971  0.5648  0.3192  1.0887
   97MOL   H10631018   4.360   2.077   7.954 -0.4264  2.1265  1.0089
   97MOL   H10731019   4.401   2.105   8.115 -2.3626  1.2076  2.4900
   97MOL   H10831020   4.220   2.122   8.288 -0.9596 -1.4479  1.5737
   97MOL   H10931021   4.004   2.215   8.326 -0.7853 -2.6263  0.3812
   97MOL   H11031022   3.708   2.137   8.112 -1.9221  0.3248  2.6316
   97MOL   H11131023   3.767   2.142   8.277 -1.3954  2.7612  0.9353
   97MOL   H11231024   3.889   2.088   7.929  0.3896 -0.8722  0.2722
   97MOL   H11331025   4.093   2.028   7.872  0.3870  1.1929  0.7184
   97MOL   C11431026   3.756   2.331   8.171 -1.0256 -0.0843  0.3434
   97MOL   C11531027   3.612   2.364   8.211 -0.8077  0.3153  0.1758
   97MOL   C11631028   3.559   2.309   8.331  0.7665  0.8722 -0.8152
   97MOL   C11731029   3.427   2.328   8.376  0.3699 -0.3718 -0.0863
   97MOL   C11831030   3.350   2.426   8.302  0.1166 -0.1338 -0.5964
   97MOL   C11931031   3.216   2.469   8.353  0.0082  0.0427 -0.0590
   97MOL   C12031032   3.403   2.486   8.188 -0.4292 -0.4018  0.1816
   97MOL   C12131033   3.527   2.450   8.139  0.4545  0.1375 -0.4459
   97MOL   H12231034   3.760   2.361   8.066  2.2723 -1.2274  0.0591
   97MOL   H12331035   3.836   2.379   8.227 -2.1295  1.2948  0.7425
   97MOL   H12431036   3.626   2.256   8.397  0.5665  2.1663  0.4666
   97MOL   H12531037   3.384   2.284   8.464  0.4939  0.4560  0.3965
   97MOL   H12631038   3.162   2.513   8.270 -0.0138 -0.2241 -0.1854
   97MOL   H12731039   3.155   2.386   8.387  0.1311  0.2593  0.7159
   97MOL   H12831040   3.352   2.556   8.124  0.0131 -0.3233 -0.0826
   97MOL   H12931041   3.558   2.499   8.047 -1.8225  1.4964 -0.5203
   97MOL   C13031042   3.229   2.580   8.457  0.0773 -0.1884 -0.4482
   97MOL   C13131043   3.093   2.640   8.494  0.0065 -0.5691  0.1563
   97MOL   C13231044   2.998   2.685   8.396  0.3232  0.6988  0.2844
   97MOL   C13331045   2.872   2.729   8.424 -0.0108  0.2788 -0.0285
   97MOL   C13431046   2.832   2.745   8.557 -0.8582  0.3959  0.1368
   97MOL   C13531047   2.703   2.806   8.584  0.1067  0.1256  0.0689
   97MOL   C13631048   2.920   2.704   8.658  0.4589 -0.3078  0.1337
   97MOL   C13731049   3.054   2.656   8.628  0.6906  0.0359  0.6739
   97MOL   H13831050   3.287   2.653   8.400 -0.4900 -0.1259 -0.9410
   97MOL   H13931051   3.281   2.548   8.548 -2.5144 -0.4749  0.9748
   97MOL   H14031052   3.025   2.670   8.293 -1.0620 -0.8297  0.1275
   97MOL   H14131053   2.808   2.756   8.342  0.5538  0.2242 -0.4866
   97MOL   H14231054   2.640   2.767   8.504  0.1766  0.9180 -0.3790
   97MOL   H14331055   2.662   2.773   8.679  3.2268 -1.0801  1.0734
   97MOL   H14431056   2.900   2.731   8.760  0.2716  1.6829 -0.4092
   97MOL   H14531057   3.123   2.632   8.708  1.3796 -0.1514  0.0333
   97MOL   C14631058   2.704   2.956   8.544  0.3280  0.3906  0.2820
   97MOL   C14731059   2.573   3.015   8.571  0.1678  0.2098 -0.3337
   97MOL   C14831060   2.492   3.061   8.468 -1.1972 -0.4411 -0.2705
   97MOL   C14931061   2.356   3.102   8.483  0.6139  0.8829  0.0667
   97MOL   C15031062   2.308   3.111   8.613  0.5068 -0.6484 -0.5423
   97MOL   C15131063   2.165   3.153   8.631 -0.4078  0.3024 -0.0115
   97MOL   C15231064   2.391   3.076   8.725 -0.8607 -0.3506 -0.0776
   97MOL   C15331065   2.520   3.022   8.699 -0.5284 -0.4324 -0.3004
   97MOL   H15431066   2.731   2.979   8.441  1.0217 -1.1554  0.1161
   97MOL   H15531067   2.785   3.011   8.592 -0.0164 -0.6805  2.1359
   97MOL   H15631068   2.544   3.077   8.374  0.7840  1.5502  1.1007
   97MOL   H15731069   2.285   3.138   8.410 -0.0780  0.0044  0.2961
   97MOL   H15831070   2.104   3.117   8.548 -0.5297  2.7945 -1.0337
   97MOL   H15931071   2.128   3.109   8.724 -1.2548  0.0176 -0.4736
   97MOL   H16031072   2.343   3.070   8.822 -1.6747  1.8186 -0.3226
   97MOL   H16131073   2.574   2.989   8.786  0.6443  1.0685 -0.4403
   97MOL   C16231074   2.156   3.309   8.647 -0.0206  0.2930  0.5003
   97MOL   C16331075   2.014   3.362   8.652  0.1575 -1.1545 -0.3710
   97MOL   C16431076   1.922   3.325   8.751  0.2988 -0.3743  0.3522
   97MOL   C16531077   1.790   3.380   8.742 -0.8387 -0.2952 -0.2162
   97MOL   C16631078   1.755   3.478   8.647 -0.1183  0.0032  0.3896
   97MOL   C16731079   1.612   3.538   8.641 -0.4167  0.1751  0.5218
   97MOL   C16831080   1.853   3.520   8.555 -0.1226  0.1060  0.8034
   97MOL   C16931081   1.979   3.460   8.560  0.4497 -0.6241 -0.3387
   97MOL   H17031082   2.213   3.347   8.562 -0.3440 -0.9578 -0.2781
   97MOL   H17131083   2.200   3.348   8.739  1.2540  0.9507 -0.3658
   97MOL   H17231084   1.951   3.253   8.826 -0.9487  0.3957  1.6002
   97MOL   H17331085   1.719   3.346   8.816 -1.1798 -0.8845 -0.8006
   97MOL   H17431086   1.567   3.521   8.543 -1.7630 -1.5153  1.4103
   97MOL   H17531087   1.552   3.494   8.721 -2.1436 -0.2554 -0.9779
   97MOL   H17631088   1.841   3.592   8.475 -4.1656 -0.8884  0.4163
   97MOL   H17731089   2.054   3.500   8.492 -0.0531 -0.8569 -1.0378
   97MOL   C17831090   1.621   3.692   8.666 -0.1706  0.3215  0.7511
   97MOL   C17931091   1.486   3.757   8.669  0.1847 -0.3024 -0.9171
   97MOL   C18031092   1.404   3.709   8.776  0.2770  0.2754  0.7247
   97MOL   C18131093   1.282   3.776   8.803  0.4909 -0.5884 -0.3275
   97MOL   C18231094   1.233   3.872   8.710  0.9290  0.2822  0.4246
   97MOL   C18331095   1.095   3.929   8.735 -0.6319  0.0975 -0.3351
   97MOL   C18431096   1.312   3.913   8.598 -0.0937  0.0949  0.1091
   97MOL   C18531097   1.442   3.859   8.586  1.0080 -0.5905 -0.1622
   97MOL   H18631098   1.677   3.739   8.585 -0.1919 -0.9223  0.0121
   97MOL   H18731099   1.683   3.719   8.751 -1.4811  2.4686  1.0834
   97MOL   H18831100   1.438   3.634   8.846  1.4692  0.5454  0.4591
   97MOL   H18931101   1.226   3.743   8.890 -1.1589  0.0686 -1.1325
   97MOL   H19031102   1.031   3.877   8.664  0.8045 -2.4665  0.1740
   97MOL   H19131103   1.052   3.894   8.829 -0.2455  1.3933  0.3446
   97MOL   H19231104   1.275   3.989   8.530 -3.2683 -1.1096  0.3874
   97MOL   H19331105   1.509   3.894   8.509  0.4896 -0.0946 -0.3942
   97MOL   C19431106   1.081   4.081   8.704 -0.0463  0.0429 -0.3008
   97MOL   C19531107   0.942   4.119   8.742  0.3203  0.1748  0.0637
   97MOL   C19631108   0.920   4.212   8.850  0.4160  0.3297  0.0888
   97MOL   C19731109   0.784   4.238   8.882 -0.6675 -0.2741 -0.0061
   97MOL   C19831110   0.681   4.166   8.821 -0.7235 -0.1251  0.2636
   97MOL   C19931111   0.541   4.196   8.854  0.6138 -0.9538  0.5008
   97MOL   C20031112   0.699   4.076   8.718 -0.4264  0.7078 -0.1383
   97MOL   C20131113   0.832   4.055   8.678  0.3492  0.3126  0.3766
   97MOL   H20231114   1.095   4.097   8.597 -2.1128  0.1421 -0.5759
   97MOL   H20331115   1.154   4.129   8.769 -0.4632  0.5125 -0.1835
   97MOL   H20431116   0.995   4.268   8.902  0.6946  1.8605 -1.9070
   97MOL   H20531117   0.755   4.302   8.965  0.5670 -1.1648  1.1407
   97MOL   H20631118   0.483   4.104   8.852  0.0430 -0.5789 -0.2167
   97MOL   H20731119   0.542   4.223   8.960 -2.8423  1.7253 -0.0813
   97MOL   H20831120   0.612   4.036   8.669 -0.4525  0.0731  0.4191
   97MOL   H20931121   0.840   3.988   8.594 -2.8933  0.2836  0.0382
   97MOL   C21031122   0.478   4.302   8.761  0.5621 -0.1964  0.4101
   97MOL   C21131123   0.349   4.348   8.814  0.6399  0.0179  0.2104
   97MOL   C21231124   0.353   4.455   8.904  0.3053 -0.2096  0.0198
   97MOL   C21331125   0.228   4.490   8.959 -0.2694 -0.5870 -0.3051
   97MOL   C21431126   0.110   4.432   8.917  0.2696  0.2538 -0.9545
   97MOL   C21531127  -0.025   4.495   8.954  0.1101  0.2085 -0.0914
   97MOL   C21631128   0.109   4.319   8.828 -0.4083 -0.1530 -0.4333
   97MOL   C21731129   0.231   4.272   8.784  0.0304  0.2095  0.5161
   97MOL   H21831130   0.476   4.273   8.655 -1.3674 -2.5234  1.0308
   97MOL   H21931131   0.537   4.393   8.773  0.6670 -0.1352 -0.4682
   97MOL   H22031132   0.445   4.509   8.919 -0.8347  2.0560 -0.8993
   97MOL   H22131133   0.227   4.580   9.019 -0.8262  0.0330 -1.2356
   97MOL   H22231134  -0.006   4.580   9.020 -1.2252 -0.0830  0.6982
   97MOL   H22331135  -0.078   4.538   8.869  1.0222 -0.3703 -0.9587
   97MOL   H22431136   0.019   4.268   8.797  0.1421 -1.2137 -0.3435
   97MOL   H22531137   0.231   4.185   8.719 -1.4314  2.0296 -2.0048
   97MOL   C22631138  -0.139   4.409   9.014 -0.2104 -0.1477  0.2944
   97MOL   C22731139  -0.253   4.503   9.057  0.9161  0.6900  0.3441
   97MOL   C22831140  -0.243   4.607   9.152 -0.2739  0.3958  0.2011
   97MOL   C22931141  -0.350   4.687   9.184 -0.4584 -0.8861  0.7312
   97MOL   C23031142  -0.474   4.664   9.124  0.6168  0.3066 -0.5182
   97MOL   C23131143  -0.600   4.742   9.166 -0.4925 -0.1981  0.4325
   97MOL   C23231144  -0.487   4.565   9.023  0.0304 -0.1901 -0.3281
   97MOL   C23331145  -0.381   4.481   8.991 -0.4401 -0.1652  0.2043
   97MOL   H23431146  -0.107   4.357   9.104 -2.0435  0.1921  1.1778
   97MOL   H23531147  -0.168   4.331   8.944 -2.0913 -0.2192  1.1250
   97MOL   H23631148  -0.154   4.628   9.210 -0.0344 -4.2092  1.7565
   97MOL   H23731149  -0.326   4.773   9.245 -2.0880 -0.4691  0.8089
   97MOL   H23831150  -0.689   4.695   9.125 -2.2051  1.2874  2.3095
   97MOL   H23931151  -0.619   4.727   9.272 -3.3652 -0.5424 -0.0853
   97MOL   H24031152  -0.579   4.537   8.974 -0.4209 -0.9845  0.9624
   97MOL   H24131153  -0.394   4.412   8.909  0.6695  0.3162 -0.3867
   97MOL   C24231154  -0.588   4.890   9.129  0.1605 -0.3775  0.2857
   97MOL   C24331155  -0.718   4.954   9.130 -0.1395 -0.4266 -0.0492
   97MOL   C24431156  -0.807   4.942   9.023 -0.7208 -0.2808 -0.5388
   97MOL   C24531157  -0.925   5.019   9.021 -0.3771 -0.1813  0.8542
   97MOL   C24631158  -0.964   5.097   9.133 -0.1556  0.2480  0.4001
   97MOL   C24731159  -1.092   5.178   9.132 -0.7135  0.2316 -0.0035
   97MOL   C24831160  -0.880   5.093   9.248 -0.7421  0.5200 -0.1609
   97MOL   C24931161  -0.755   5.029   9.241 -0.0977 -0.3924 -0.7105
   97MOL   H25031162  -0.513   4.940   9.190  2.0089 -2.6897 -0.0194
   97MOL   H25131163  -0.561   4.902   9.024 -0.3171  0.4995  0.2567
   97MOL   H25231164  -0.771   4.887   8.938  0.1343 -1.1576  0.3800
   97MOL   H25331165  -0.995   5.017   8.938  0.1694  1.0738  0.3521
   97MOL   H25431166  -1.135   5.172   9.032 -1.0101  0.1602  0.1277
   97MOL   H25531167  -1.171   5.127   9.187 -1.3940 -0.5140 -1.6373
   97MOL   H25631168  -0.903   5.135   9.345 -1.0296  1.2504 -0.5393
   97MOL   H25731169  -0.693   5.033   9.330  0.6448  0.0037 -1.2389
   97MOL   C25831170  -1.074   5.327   9.180 -0.3964 -0.2489  0.2727
   97MOL   C25931171  -1.189   5.425   9.164 -0.4150  0.4467  0.3960
   97MOL   C26031172  -1.308   5.413   9.238  0.2506  0.8549 -0.0041
   97MOL   C26131173  -1.407   5.508   9.217  0.3468  0.0940  0.1728
   97MOL   C26231174  -1.395   5.614   9.133 -0.1624 -0.2304  0.2287
   97MOL   C26331175  -1.504   5.717   9.112 -1.1169  0.1487  0.2998
   97MOL   C26431176  -1.279   5.616   9.053 -0.6147 -0.6453  0.2338
   97MOL   C26531177  -1.178   5.518   9.063  0.0956 -0.4279  0.3181
   97MOL   H26631178  -0.983   5.369   9.138 -0.3441 -0.2870  0.3491
   97MOL   H26731179  -1.055   5.326   9.287  0.6204 -0.9111  0.0991
   97MOL   H26831180  -1.326   5.337   9.312 -2.9634 -0.6703 -2.2782
   97MOL   H26931181  -1.504   5.488   9.260  0.4639  0.3733  0.5701
   97MOL   H27031182  -1.576   5.693   9.191 -1.4971 -1.2356 -0.4423
   97MOL   H27131183  -1.462   5.812   9.144  0.8529 -0.7143  0.3327
   97MOL   H27231184  -1.258   5.697   8.985  3.7547 -1.6216  0.2926
   97MOL   H27331185  -1.090   5.527   9.002 -0.5550 -2.8291 -1.0330
   97MOL   C27431186  -1.561   5.712   8.977  0.7438 -0.4378 -0.0858
   97MOL   C27531187  -1.683   5.802   8.962 -0.1313  1.1430  0.0748
   97MOL   C27631188  -1.707   5.884   8.847 -0.2500 -0.0490  0.0541
   97MOL   C27731189  -1.826   5.965   8.838 -0.1738  0.0926 -0.0176
   97MOL   C27831190  -1.922   5.961   8.939  0.2844 -0.2175  0.1289
   97MOL   C27931191  -2.049   6.029   8.912  0.3257  0.2733 -0.3647
   97MOL   C28031192  -1.901   5.877   9.047  0.3014 -0.6146 -0.5831
   97MOL   C28131193  -1.777   5.809   9.068 -0.3272 -0.1432  0.5100
   97MOL   H28231194  -1.485   5.741   8.905  2.0007 -1.4605  0.7908
   97MOL   H28331195  -1.585   5.606   8.964  1.5282 -0.7451  0.8886
   97MOL   H28431196  -1.649   5.877   8.756 -0.9949 -0.9473 -0.3607
   97MOL   H28531197  -1.839   6.007   8.739  2.9637 -0.2276 -0.6226
   97MOL   H28631198  -2.069   6.039   8.806 -1.1815 -0.5010 -0.1754
   97MOL   H28731199  -2.127   5.969   8.959 -1.4911  0.4530 -3.0333
   97MOL   H28831200  -1.976   5.866   9.125 -1.4939 -0.3070 -2.2319
   97MOL   H28931201  -1.766   5.764   9.165  0.0202 -0.8592  0.1389
   97MOL   C29031202  -2.065   6.171   8.969 -0.7210 -0.4024  0.2877
   97MOL   C29131203  -2.201   6.236   8.956 -0.0633  0.3963 -0.4716
   97MOL   C29231204  -2.279   6.268   9.071 -0.0746 -0.5730 -0.5916
   97MOL   C29331205  -2.405   6.330   9.057 -0.2323  0.6611  0.3039
   97MOL   C29431206  -2.459   6.356   8.930 -0.5248  0.0649  0.0822
   97MOL   C29531207  -2.596   6.409   8.918 -0.1846 -0.5768 -0.4575
   97MOL   C29631208  -2.381   6.321   8.819 -0.1019 -0.9455  0.6353
   97MOL   C29731209  -2.250   6.265   8.830  0.7136 -0.2452  0.2713
   97MOL   H29831210  -1.976   6.228   8.941 -0.4238 -1.0387 -0.0612
   97MOL   H29931211  -2.046   6.152   9.074 -0.9770 -0.4616  0.3237
   97MOL   H30031212  -2.241   6.239   9.168  1.9707  3.0555 -0.2096
   97MOL   H30131213  -2.468   6.357   9.140  1.7131  2.1622  1.3518
   97MOL   H30231214  -2.659   6.324   8.946 -0.1685 -0.8511 -1.2261
   97MOL   H30331215  -2.612   6.479   9.000  2.7056 -0.8015  0.3427
   97MOL   H30431216  -2.411   6.350   8.720  2.8994  0.3045  0.0302
   97MOL   H30531217  -2.194   6.240   8.741  1.5871  0.8447  0.4909
   97MOL   C30631218  -2.633   6.490   8.794 -0.4018 -0.3417  0.2029
   97MOL   C30731219  -2.777   6.532   8.813  0.4500 -0.1821  0.6486
   97MOL   C30831220  -2.809   6.653   8.882 -0.0121 -0.4235 -0.4318
   97MOL   C30931221  -2.943   6.693   8.909 -0.1712 -0.3677 -0.3003
   97MOL   C31031222  -3.048   6.610   8.865  0.0682 -0.1809 -0.1307
   97MOL   C31131223  -3.190   6.664   8.873 -0.6527  0.1247 -0.1377
   97MOL   C31231224  -3.016   6.490   8.801  0.3714  0.8164  0.4289
   97MOL   C31331225  -2.882   6.452   8.768 -0.8243 -0.5348 -0.5487
   97MOL   H31431226  -2.614   6.431   8.704  1.6104  2.3357 -1.1729
   97MOL   H31531227  -2.562   6.570   8.779  0.0146 -0.5638  0.9909
   97MOL   H31631228  -2.730   6.724   8.899  1.1860 -1.6526 -0.8010
   97MOL   H31731229  -2.955   6.793   8.948  1.5987  0.7803 -2.5550
   97MOL   H31831230  -3.230   6.673   8.974  0.7415 -2.2071  0.6831
   97MOL   H31931231  -3.195   6.762   8.827  0.8507  0.8795  1.2587
   97MOL   H32031232  -3.094   6.420   8.773  1.1914  0.5017 -1.0927
   97MOL   H32131233  -2.869   6.358   8.717 -0.2600 -0.5939 -0.2961
   97MOL   H32231234  -3.247   6.585   8.824  0.7949 -1.8638  1.2913
   98MOL     C131235   1.471   4.799   4.721 -0.7521  0.2596  0.0250
   98MOL     C231236   1.318   4.798   4.720  0.2530  0.0001 -0.1845
   98MOL     C331237   1.249   4.918   4.696  0.7958 -0.0501  0.1132
   98MOL     C431238   1.109   4.919   4.688 -0.4466  0.6031 -0.1003
   98MOL     C531239   1.036   4.802   4.711 -0.6642  0.1905 -0.2093
   98MOL     C631240   0.887   4.805   4.699  0.2896 -0.1391  1.0067
   98MOL     C731241   1.102   4.685   4.758  0.7425 -0.3870  0.0914
   98MOL     C831242   1.241   4.682   4.753  0.0597  0.4095 -0.0857
   98MOL     H931243   1.512   4.894   4.684  1.3209 -0.1871  1.0751
   98MOL    H1031244   1.513   4.776   4.819 -2.0553 -0.7080  0.3626
   98MOL    H1131245   1.300   5.010   4.672 -0.6988  0.8176  0.1572
   98MOL    H1231246   1.053   5.008   4.662  1.3509  1.3976 -1.3385
   98MOL    H1331247   0.846   4.894   4.651 -1.6490 -1.5349  0.0032
   98MOL    H1431248   0.840   4.722   4.646 -0.3007  0.7754  0.0585
   98MOL    H1531249   1.046   4.594   4.773  0.8844 -0.2722  1.4239
   98MOL    H1631250   1.289   4.591   4.787  0.6559  0.7388 -0.0338
   98MOL    H1731251   1.509   4.723   4.652  1.0484  0.3330  0.9027
   98MOL    C1831252   0.812   4.801   4.837  0.3581  0.5007  0.9103
   98MOL    C1931253   0.668   4.825   4.814 -0.0567  0.0126 -0.8577
   98MOL    C2031254   0.586   4.715   4.782  0.2622  0.1253 -0.2619
   98MOL    C2131255   0.446   4.729   4.757  0.1409 -0.5011 -0.6402
   98MOL    C2231256   0.385   4.857   4.759  0.5617 -0.1607  0.4213
   98MOL    C2331257   0.234   4.871   4.745 -0.0357 -0.1402  0.0569
   98MOL    C2431258   0.470   4.969   4.786  0.2379 -0.8158 -0.0879
   98MOL    C2531259   0.603   4.951   4.822  0.0855 -0.0859 -0.8462
   98MOL    H2631260   0.812   4.697   4.870 -1.1195  0.8572  2.0654
   98MOL    H2731261   0.846   4.871   4.913  0.9652  0.5299  0.6140
   98MOL    H2831262   0.636   4.619   4.791  2.1739  1.0081 -1.0302
   98MOL    H2931263   0.389   4.639   4.740 -2.1026  0.7444  0.0996
   98MOL    H3031264   0.213   4.861   4.639 -0.4787 -1.1940  0.2338
   98MOL    H3131265   0.201   4.974   4.758 -0.5988  0.2151 -3.7102
   98MOL    H3231266   0.431   5.069   4.796  0.7582 -0.2671 -3.1042
   98MOL    H3331267   0.661   5.033   4.862  1.0165  0.0710 -2.4568
   98MOL    C3431268   0.156   4.771   4.834 -0.5041  1.2288  0.0374
   98MOL    C3531269   0.009   4.777   4.825 -0.2135 -0.8402  0.2415
   98MOL    C3631270  -0.065   4.688   4.744 -0.5749  0.1801  0.0495
   98MOL    C3731271  -0.205   4.692   4.728  0.6021 -0.0832  0.1376
   98MOL    C3831272  -0.272   4.801   4.792  0.3852 -0.1256 -0.8404
   98MOL    C3931273  -0.421   4.805   4.777  0.9460 -0.2163 -0.0952
   98MOL    C4031274  -0.196   4.897   4.865 -0.5218  0.0583  0.4623
   98MOL    C4131275  -0.056   4.885   4.879 -0.4808  0.1097 -0.1357
   98MOL    H4231276   0.183   4.788   4.938 -0.7084 -2.5910  0.8170
   98MOL    H4331277   0.192   4.671   4.808 -0.9300  0.8072  1.0267
   98MOL    H4431278  -0.029   4.604   4.686 -2.0083 -1.2887  1.2511
   98MOL    H4531279  -0.259   4.619   4.669  0.2343  0.0643  0.2903
   98MOL    H4631280  -0.451   4.900   4.732  1.7058  0.3736  0.6347
   98MOL    H4731281  -0.455   4.733   4.702 -0.0933 -0.3497  0.4941
   98MOL    H4831282  -0.247   4.986   4.899  0.5736  0.5475  0.8752
   98MOL    H4931283   0.006   4.960   4.926 -0.8280  1.3438 -1.6079
   98MOL    C5031284  -0.494   4.785   4.913 -0.3064 -0.8344 -0.2086
   98MOL    C5131285  -0.642   4.787   4.875  0.0565 -0.9761  0.5230
   98MOL    C5231286  -0.712   4.912   4.874 -0.1846 -0.6897  0.8240
   98MOL    C5331287  -0.850   4.917   4.847  0.3062 -0.0113 -0.1677
   98MOL    C5431288  -0.918   4.798   4.818 -0.0380  0.3788  0.5425
   98MOL    C5531289  -1.067   4.803   4.778 -0.2037  0.9535 -0.4549
   98MOL    C5631290  -0.849   4.676   4.827 -0.0577 -0.0578  0.6703
   98MOL    C5731291  -0.710   4.670   4.851  0.1567 -0.1881  0.7294
   98MOL    H5831292  -0.468   4.868   4.977 -0.6347  0.4519 -1.7196
   98MOL    H5931293  -0.455   4.689   4.948  1.6621  1.1309  3.1070
   98MOL    H6031294  -0.664   5.004   4.903 -1.3026  0.1350  0.1083
   98MOL    H6131295  -0.906   5.009   4.849  0.4778  0.0778  0.5996
   98MOL    H6231296  -1.105   4.905   4.777 -0.8329  0.7265  0.4884
   98MOL    H6331297  -1.086   4.779   4.673 -0.6461 -1.4469  0.1463
   98MOL    H6431298  -0.899   4.581   4.813  3.3145 -1.7302 -0.5829
   98MOL    H6531299  -0.663   4.573   4.859  2.2659  0.8839  2.0074
   98MOL    C6631300  -1.163   4.699   4.843 -0.0563  0.6475 -0.0385
   98MOL    C6731301  -1.303   4.735   4.827  0.1665 -0.4726 -0.6593
   98MOL    C6831302  -1.399   4.635   4.804  0.6698  0.0842  0.2493
   98MOL    C6931303  -1.538   4.659   4.800 -0.3639 -0.0451  0.9296
   98MOL    C7031304  -1.583   4.794   4.818 -0.2081  0.1391  0.3934
   98MOL    C7131305  -1.734   4.819   4.806  0.9384  0.5477 -0.1919
   98MOL    C7231306  -1.490   4.899   4.844 -0.4949  0.7659  0.1746
   98MOL    C7331307  -1.349   4.868   4.839  0.1805  0.4169  0.4238
   98MOL    H7431308  -1.146   4.689   4.950 -2.1907  0.0065  0.2710
   98MOL    H7531309  -1.137   4.597   4.818  2.8988  0.9040  1.7189
   98MOL    H7631310  -1.359   4.536   4.788 -1.8015 -0.6182 -1.8430
   98MOL    H7731311  -1.598   4.570   4.787 -0.6162  0.2978 -0.3638
   98MOL    H7831312  -1.755   4.922   4.835  2.6142  0.5887  0.9527
   98MOL    H7931313  -1.771   4.754   4.886 -1.8992 -2.1341 -3.5070
   98MOL    H8031314  -1.521   4.998   4.875 -0.5913  0.7204  0.2234
   98MOL    H8131315  -1.283   4.947   4.872  0.4961  0.4128 -0.1885
   98MOL    C8231316  -1.815   4.782   4.680  1.0278  0.2486  0.2237
   98MOL    C8331317  -1.958   4.802   4.697 -0.2484 -0.0564 -0.0590
   98MOL    C8431318  -2.038   4.688   4.669  0.2060 -0.0330 -0.8473
   98MOL    C8531319  -2.180   4.690   4.679 -0.1805  0.6115 -0.2030
   98MOL    C8631320  -2.241   4.813   4.710 -0.1159  0.2081  0.9290
   98MOL    C8731321  -2.392   4.818   4.696 -0.5464  0.1505  0.9051
   98MOL    C8831322  -2.161   4.923   4.731 -0.5807 -0.4215 -0.4780
   98MOL    C8931323  -2.020   4.921   4.723 -0.8353  0.3292 -0.1214
   98MOL    H9031324  -1.794   4.680   4.649 -0.8430 -0.4764  1.2325
   98MOL    H9131325  -1.786   4.856   4.605 -1.7780 -0.1830 -1.3861
   98MOL    H9231326  -1.999   4.589   4.652  1.5816  0.5021 -0.8845
   98MOL    H9331327  -2.230   4.595   4.664  2.0716 -0.8659  1.2506
   98MOL    H9431328  -2.422   4.720   4.660  0.5911 -0.7878  2.4416
   98MOL    H9531329  -2.435   4.890   4.627 -0.8001 -1.3090 -0.4831
   98MOL    H9631330  -2.202   5.022   4.737 -2.1615 -1.0869  0.0636
   98MOL    H9731331  -1.965   5.012   4.737  0.1924 -0.5758  1.8769
   98MOL    C9831332  -2.462   4.834   4.834 -0.4875  0.0250  0.0646
   98MOL    C9931333  -2.619   4.832   4.826 -0.3006 -0.0819 -0.6026
   98MOL   C10031334  -2.688   4.945   4.863  0.0184 -0.0950  0.3534
   98MOL   C10131335  -2.827   4.952   4.853  0.3153  0.3091 -0.3130
   98MOL   C10231336  -2.896   4.837   4.815 -0.3110 -0.1844 -0.1077
   98MOL   C10331337  -3.043   4.837   4.829  0.0019  0.2542 -1.0058
   98MOL   C10431338  -2.827   4.717   4.785 -0.6445  0.3456  0.5825
   98MOL   C10531339  -2.684   4.711   4.788  0.1116  0.0389  0.5637
   98MOL   H10631340  -2.422   4.922   4.883 -0.5485  0.1975 -0.1969
   98MOL   H10731341  -2.439   4.754   4.904 -0.5431  0.1009  0.1675
   98MOL   H10831342  -2.635   5.036   4.884  0.2648 -0.5433  1.7204
   98MOL   H10931343  -2.875   5.048   4.862 -0.5804 -0.2327  0.9540
   98MOL   H11031344  -3.095   4.919   4.779 -1.8591  0.3756  1.0506
   98MOL   H11131345  -3.090   4.745   4.793  1.6808 -1.2823  0.6575
   98MOL   H11231346  -2.883   4.627   4.765  0.4554 -0.5067  1.2632
   98MOL   H11331347  -2.631   4.622   4.757 -2.4361 -1.5554  0.5760
   98MOL   C11431348  -3.080   4.835   4.981  0.2634  0.0936 -1.3767
   98MOL   C11531349  -3.233   4.864   5.004  0.0366  0.4451  0.3369
   98MOL   C11631350  -3.284   4.993   4.988  0.2920  0.0038  0.0868
   98MOL   C11731351  -3.419   5.014   5.025 -0.0285 -0.0481  0.3045
   98MOL   C11831352  -3.499   4.909   5.079  0.1576 -0.2547 -0.3035
   98MOL   C11931353  -3.641   4.934   5.110  0.4601  0.2669 -0.3505
   98MOL   C12031354  -3.444   4.773   5.081  0.7730  0.2976  0.6940
   98MOL   C12131355  -3.313   4.758   5.043  0.5460  0.4441 -0.1687
   98MOL   H12231356  -3.014   4.906   5.032 -0.0810 -1.5475  1.4545
   98MOL   H12331357  -3.034   4.743   5.018 -1.4224 -1.5149 -3.1537
   98MOL   H12431358  -3.219   5.072   4.953  2.1310 -0.9214  1.3075
   98MOL   H12531359  -3.473   5.107   5.014 -2.0820 -1.4068 -1.4302
   98MOL   H12631360  -3.675   4.848   5.168 -1.2857  0.5138 -0.9890
   98MOL   H12731361  -3.649   5.027   5.166  1.3419 -0.1183  0.4341
   98MOL   H12831362  -3.504   4.691   5.119  0.1647  0.1626 -0.5341
   98MOL   H12931363  -3.262   4.663   5.047 -1.8409 -0.9116 -0.4966
   98MOL   C13031364  -3.733   4.926   4.988  0.7620 -0.1816 -0.2641
   98MOL   C13131365  -3.877   4.950   5.035 -0.1568 -0.1094 -0.2496
   98MOL   C13231366  -3.973   4.843   5.041  0.2787 -0.1727  0.6663
   98MOL   C13331367  -4.101   4.866   5.086 -0.3795  0.3621  0.0012
   98MOL   C13431368  -4.145   4.991   5.112  0.0860  0.1197  0.5661
   98MOL   C13531369  -4.287   5.009   5.157 -0.2412 -0.3531  0.6063
   98MOL   C13631370  -4.055   5.104   5.094  0.1905 -0.2306  0.3203
   98MOL   C13731371  -3.920   5.084   5.058  0.0214 -0.1399  0.2073
   98MOL   H13831372  -3.717   4.833   4.934 -3.6402 -1.0460 -0.2464
   98MOL   H13931373  -3.709   5.000   4.911  1.6254 -1.3115 -1.0930
   98MOL   H14031374  -3.944   4.743   5.013 -0.6749 -0.6801  1.4586
   98MOL   H14131375  -4.178   4.790   5.093  1.1722 -1.4700 -1.8334
   98MOL   H14231376  -4.349   4.928   5.118  2.2587 -2.3764  0.7218
   98MOL   H14331377  -4.276   5.005   5.265  3.8918  1.0513  0.3522
   98MOL   H14431378  -4.096   5.201   5.118  0.8549 -0.1982  1.3490
   98MOL   H14531379  -3.854   5.169   5.046  0.4669 -0.6479 -1.0140
   98MOL   C14631380  -4.360   5.143   5.120  0.1470 -0.5070 -0.0183
   98MOL   C14731381  -4.511   5.125   5.145  0.4865  0.5754  0.3791
   98MOL   C14831382  -4.566   5.140   5.274 -0.1789  0.6345 -0.1250
   98MOL   C14931383  -4.700   5.127   5.287  0.5071  0.3210 -0.3954
   98MOL   C15031384  -4.784   5.110   5.176  0.2122 -0.4938  1.3831
   98MOL   C15131385  -4.942   5.097   5.191 -0.1258 -0.1525  0.1781
   98MOL   C15231386  -4.727   5.100   5.050 -0.3963  0.5429  0.3879
   98MOL   C15331387  -4.591   5.107   5.033 -0.4890  0.3289  0.0012
   98MOL   H15431388  -4.345   5.174   5.016  2.1865 -1.5465 -0.0600
   98MOL   H15531389  -4.316   5.223   5.180  1.9278 -0.0528 -1.8706
   98MOL   H15631390  -4.498   5.165   5.355 -0.9238  0.9099  0.4227
   98MOL   H15731391  -4.746   5.132   5.385  0.1231  2.1647 -0.6545
   98MOL   H15831392  -4.981   5.117   5.291 -0.9103 -0.5902 -0.0380
   98MOL   H15931393  -4.999   5.164   5.127  2.0101  0.8662 -0.7133
   98MOL   H16031394  -4.789   5.093   4.962 -0.6035 -0.8205  0.6302
   98MOL   H16131395  -4.552   5.099   4.933 -0.4662 -2.4437  0.2120
   98MOL   C16231396  -4.975   4.948   5.162 -0.4725  0.4458 -0.7808
   98MOL   C16331397  -5.120   4.918   5.145 -0.6452 -0.3044 -0.2430
   98MOL   C16431398  -5.190   4.853   5.252 -0.3513 -0.2595  0.4411
   98MOL   C16531399  -5.325   4.820   5.236  0.5499  0.2085 -0.1106
   98MOL   C16631400  -5.390   4.842   5.108 -0.7885 -0.5348 -0.2545
   98MOL   C16731401  -5.530   4.800   5.091  0.4203  0.3422  0.2384
   98MOL   C16831402  -5.322   4.902   5.004 -0.1311 -0.0684 -0.0415
   98MOL   C16931403  -5.186   4.942   5.026 -0.0839  1.2752  0.2430
   98MOL   H17031404  -4.939   4.876   5.235  1.0165  2.5121  0.5496
   98MOL   H17131405  -4.920   4.917   5.073  0.6111 -1.2261  0.4405
   98MOL   H17231406  -5.148   4.830   5.349  0.0258 -0.0554  0.3275
   98MOL   H17331407  -5.380   4.769   5.313 -2.2697  1.6371 -1.1173
   98MOL   H17431408  -5.537   4.709   5.032  0.8944 -0.4742  1.4319
   98MOL   H17531409  -5.575   4.779   5.188  2.9336 -1.0925  1.1435
   98MOL   H17631410  -5.357   4.927   4.905  0.2187 -0.6374 -0.3105
   98MOL   H17731411  -5.129   4.986   4.945  0.6139 -1.0193 -0.5533
   98MOL   C17831412  -5.628   4.893   5.014  0.2935  0.0738 -1.1104
   98MOL   C17931413  -5.764   4.828   4.999  0.4650 -0.2174  0.4829
   98MOL   C18031414  -5.847   4.790   5.110  0.4373  0.3199 -0.4872
   98MOL   C18131415  -5.975   4.726   5.087  0.2681 -0.3422  0.1708
   98MOL   C18231416  -6.014   4.704   4.953  0.0223 -0.4211 -0.6694
   98MOL   C18331417  -6.152   4.641   4.932 -0.6977  0.3631  0.4269
   98MOL   C18431418  -5.934   4.742   4.845 -0.3015 -0.4578 -0.5235
   98MOL   C18531419  -5.811   4.812   4.867 -0.3326  0.0607  0.3652
   98MOL   H18631420  -5.591   4.921   4.916 -1.6779  0.8264 -1.6669
   98MOL   H18731421  -5.637   4.979   5.081 -1.9252 -1.8540  1.1837
   98MOL   H18831422  -5.821   4.803   5.214 -0.4074  3.9177 -0.6601
   98MOL   H18931423  -6.038   4.693   5.169 -1.7707  0.5115 -1.0158
   98MOL   H19031424  -6.219   4.677   5.011 -1.7873  2.5255 -1.4312
   98MOL   H19131425  -6.198   4.682   4.842  0.7695  0.7843 -0.1345
   98MOL   H19231426  -5.957   4.725   4.741 -0.9102 -1.3984 -0.2412
   98MOL   H19331427  -5.749   4.847   4.785 -0.8235 -3.4676 -1.6373
   98MOL   C19431428  -6.147   4.490   4.935 -0.4295 -0.3435 -0.0438
   98MOL   C19531429  -6.290   4.446   4.928 -0.7646  0.3365  0.9758
   98MOL   C19631430  -6.358   4.444   4.806  0.4952  0.5076  1.0129
   98MOL   C19731431  -6.498   4.397   4.803 -0.5239 -0.1346  0.1000
   98MOL   C19831432  -6.555   4.348   4.918  0.8812 -0.2583  0.2910
   98MOL   C19931433  -6.700   4.302   4.918 -0.0177  0.4988 -0.2419
   98MOL   C20031434  -6.481   4.342   5.036  0.5562 -0.2650  0.2050
   98MOL   C20131435  -6.351   4.391   5.042  0.2828 -0.0871  0.5628
   98MOL   H20231436  -6.096   4.456   5.025 -1.2272 -2.8928 -0.5151
   98MOL   H20331437  -6.097   4.459   4.844 -0.1985  0.5652 -0.2277
   98MOL   H20431438  -6.315   4.470   4.711  1.8231  0.7366  1.6717
   98MOL   H20531439  -6.556   4.398   4.712  0.1235 -0.8853 -0.3221
   98MOL   H20631440  -6.754   4.355   4.839 -1.3020 -0.0492  0.2427
   98MOL   H20731441  -6.703   4.196   4.891 -1.6450 -0.0421  1.9180
   98MOL   H20831442  -6.520   4.299   5.128  1.4130  0.3400  0.8538
   98MOL   H20931443  -6.297   4.386   5.135  1.3397 -2.6085 -0.1609
   98MOL   C21031444  -6.775   4.321   5.049 -0.0426  0.1255 -0.4977
   98MOL   C21131445  -6.928   4.308   5.037 -0.6672  0.7531 -0.2453
   98MOL   C21231446  -7.009   4.413   4.990  0.1763 -0.3294 -0.0696
   98MOL   C21331447  -7.142   4.416   5.008  0.2677  0.0960 -0.0013
   98MOL   C21431448  -7.207   4.293   5.053  0.6307  0.8845  0.4675
   98MOL   C21531449  -7.358   4.289   5.073  0.7367 -0.8089 -0.4705
   98MOL   C21631450  -7.127   4.184   5.082 -0.4769  0.5317 -0.8245
   98MOL   C21731451  -6.990   4.192   5.085  0.8416  0.2486  0.7258
   98MOL   H21831452  -6.757   4.424   5.081 -1.7819  0.2709  0.0725
   98MOL   H21931453  -6.747   4.253   5.129 -1.4134  0.4509  0.2757
   98MOL   H22031454  -6.962   4.502   4.951  3.2075 -2.6969 -2.0824
   98MOL   H22131455  -7.196   4.507   4.985 -2.0047 -1.6325 -1.6809
   98MOL   H22231456  -7.391   4.207   5.136  0.6014 -0.2874  0.1414
   98MOL   H22331457  -7.384   4.376   5.134  2.0151 -1.8503  1.5802
   98MOL   H22431458  -7.173   4.094   5.118 -2.7796  1.5284 -1.2051
   98MOL   H22531459  -6.950   4.103   5.132  1.1190 -0.1585 -0.2817
   98MOL   C22631460  -7.440   4.297   4.943 -0.4745  0.0605  0.0500
   98MOL   C22731461  -7.587   4.304   4.972 -0.6892 -0.1426  0.4947
   98MOL   C22831462  -7.649   4.190   5.023  0.2654 -0.6260 -0.9028
   98MOL   C22931463  -7.786   4.186   5.054 -0.4326 -0.2337 -0.4823
   98MOL   C23031464  -7.864   4.300   5.043 -0.0864 -0.4762  0.6620
   98MOL   C23131465  -8.019   4.299   5.078  0.5168 -0.0370  0.5741
   98MOL   C23231466  -7.805   4.414   4.985  0.2897  0.1891  0.1728
   98MOL   C23331467  -7.669   4.414   4.945  0.2457  0.0654 -0.3049
   98MOL   H23431468  -7.439   4.219   4.867 -1.8861 -0.1239  0.2072
   98MOL   H23531469  -7.406   4.390   4.897 -0.5338 -0.0207 -0.1582
   98MOL   H23631470  -7.591   4.100   5.031  0.9574 -0.0748  0.3738
   98MOL   H23731471  -7.830   4.093   5.089 -0.8669 -0.4114 -1.4722
   98MOL   H23831472  -8.044   4.210   5.134  0.1132  0.8520  1.8303
   98MOL   H23931473  -8.047   4.380   5.146 -2.1129  0.2239 -0.7300
   98MOL   H24031474  -7.873   4.494   4.960  0.2430 -0.0025 -0.3352
   98MOL   H24131475  -7.617   4.497   4.899  2.8630 -0.5261  1.4628
   98MOL   C24231476  -8.109   4.292   4.950  0.3138 -0.5481 -0.1653
   98MOL   C24331477  -8.259   4.293   4.984 -0.7639 -0.0139  0.4936
   98MOL   C24431478  -8.317   4.411   5.017  0.2876 -0.2133 -0.2282
   98MOL   C24531479  -8.451   4.413   5.059 -0.6223  0.8269 -0.4565
   98MOL   C24631480  -8.527   4.292   5.063  0.2659 -0.4365 -0.8995
   98MOL   C24731481  -8.671   4.287   5.105 -0.0221 -0.4476  0.5332
   98MOL   C24831482  -8.456   4.170   5.035 -0.6528  0.5677 -0.0421
   98MOL   C24931483  -8.323   4.165   4.994  0.1979  0.6282  0.0235
   98MOL   H25031484  -8.084   4.371   4.879 -2.9284  0.2089 -0.5600
   98MOL   H25131485  -8.095   4.197   4.897 -2.1369 -0.8833 -0.2674
   98MOL   H25231486  -8.255   4.499   5.017 -1.0341  0.7414  0.6825
   98MOL   H25331487  -8.507   4.503   5.080  0.8342  1.4902  0.7077
   98MOL   H25431488  -8.685   4.199   5.168  1.8345 -1.2437 -0.1253
   98MOL   H25531489  -8.692   4.374   5.167 -0.5115  1.2055 -1.9172
   98MOL   H25631490  -8.495   4.070   5.049  0.2814  0.0978 -0.7419
   98MOL   H25731491  -8.282   4.067   4.975 -1.0163  0.0717  0.1754
   98MOL   C25831492  -8.773   4.292   4.987  0.0180  0.3557  0.0612
   98MOL   C25931493  -8.922   4.287   5.010  0.1745  0.1955  0.6632
   98MOL   C26031494  -8.987   4.403   5.052 -0.4724 -0.5960  0.0474
   98MOL   C26131495  -9.132   4.398   5.063 -0.2229  0.2560  0.0453
   98MOL   C26231496  -9.200   4.278   5.042  0.6653 -0.0070  0.2335
   98MOL   C26331497  -9.346   4.276   5.072  0.5258 -0.2728  0.1653
   98MOL   C26431498  -9.132   4.158   5.010  0.0962 -0.4760 -0.1679
   98MOL   C26531499  -8.993   4.172   4.980  0.5451 -0.0541 -0.7633
   98MOL   H26631500  -8.764   4.224   4.903 -1.2353  0.2709 -0.0050
   98MOL   H26731501  -8.765   4.396   4.954 -0.8719  0.9199  1.5658
   98MOL   H26831502  -8.939   4.493   5.085 -2.9795 -0.1275  2.6138
   98MOL   H26931503  -9.190   4.482   5.097  1.2123  1.0857  0.4770
   98MOL   H27031504  -9.358   4.195   5.143 -1.4533 -0.0045  0.1813
   98MOL   H27131505  -9.369   4.367   5.128  0.5523 -1.4056  2.0464
   98MOL   H27231506  -9.175   4.059   5.007  0.0361 -0.5535  2.1974
   98MOL   H27331507  -8.938   4.082   4.954  2.7272  0.3227  2.3088
   98MOL   C27431508  -9.436   4.264   4.941 -0.2891  0.2099 -0.0142
   98MOL   C27531509  -9.590   4.257   4.965 -0.2663 -0.1926 -0.7770
   98MOL   C27631510  -9.655   4.132   4.963 -0.0438 -0.0714  0.4965
   98MOL   C27731511  -9.799   4.119   4.965  0.2600  0.1095 -0.6285
   98MOL   C27831512  -9.873   4.237   4.977 -0.2021  0.2840  0.0631
   98MOL   C27931513 -10.023   4.226   4.985  1.3447 -0.5009  0.2143
   98MOL   C28031514  -9.809   4.367   4.990  0.4733 -0.1288 -0.6574
   98MOL   C28131515  -9.664   4.378   4.980  0.2581 -0.9261  0.5821
   98MOL   H28231516  -9.421   4.357   4.887  1.3401 -1.1071 -1.8584
   98MOL   H28331517  -9.398   4.175   4.891  1.0244 -0.1302  1.5334
   98MOL   H28431518  -9.596   4.043   4.947  0.5605  0.0668  1.9083
   98MOL   H28531519  -9.846   4.023   4.950 -2.3955  1.1726  0.6925
   98MOL   H28631520 -10.054   4.149   5.055  0.5441  0.2728  0.7151
   98MOL   H28731521 -10.075   4.313   5.026 -2.3535 -2.2032 -0.6451
   98MOL   H28831522  -9.871   4.455   4.998 -0.1501 -0.7024  0.9839
   98MOL   H28931523  -9.615   4.473   4.967 -2.3601  0.0524 -3.0346
   98MOL   C29031524 -10.089   4.185   4.852  0.0628  0.0549  0.2183
   98MOL   C29131525 -10.248   4.189   4.862 -0.2697 -0.5710  0.0268
   98MOL   C29231526 -10.325   4.067   4.862 -0.6440 -0.2714 -0.2304
   98MOL   C29331527 -10.465   4.075   4.864 -0.1542  0.5089 -0.3131
   98MOL   C29431528 -10.531   4.195   4.873 -0.1974  0.1544 -0.5051
   98MOL   C29531529 -10.683   4.201   4.896 -0.4604  0.3498 -0.4702
   98MOL   C29631530 -10.458   4.314   4.873 -0.7240  0.7527  0.3491
   98MOL   C29731531 -10.316   4.312   4.871  0.4714  0.0181  0.7208
   98MOL   H29831532 -10.059   4.088   4.812 -0.1002  0.4600 -0.8927
   98MOL   H29931533 -10.061   4.254   4.772 -3.2388  0.3216 -0.7793
   98MOL   H30031534 -10.276   3.971   4.865 -2.5524 -1.2400  1.8882
   98MOL   H30131535 -10.518   3.981   4.857  0.2384  0.2461  0.2289
   98MOL   H30231536 -10.710   4.101   4.930  1.9357 -0.0758  0.3067
   98MOL   H30331537 -10.703   4.265   4.981  1.7615 -1.6960  1.6762
   98MOL   H30431538 -10.504   4.411   4.886 -0.1346  1.4348 -2.2107
   98MOL   H30531539 -10.265   4.406   4.881  0.8399  0.1218 -1.7845
   98MOL   C30631540 -10.775   4.248   4.774 -0.2446  0.4180 -0.0749
   98MOL   C30731541 -10.923   4.274   4.800 -0.2581 -0.6388  0.1512
   98MOL   C30831542 -10.984   4.390   4.738 -0.6616  0.4198  0.3565
   98MOL   C30931543 -11.123   4.405   4.751 -0.5811 -0.2729 -0.9020
   98MOL   C31031544 -11.206   4.304   4.817  0.3420 -0.3505 -0.6193
   98MOL   C31131545 -11.357   4.321   4.818  1.0047  0.0963 -0.1544
   98MOL   C31231546 -11.143   4.190   4.873 -0.1266  0.4723 -0.1738
   98MOL   C31331547 -11.005   4.180   4.871 -0.2709  0.0454  0.3013
   98MOL   H31431548 -10.779   4.168   4.700  0.2782  0.4624 -0.1519
   98MOL   H31531549 -10.732   4.334   4.723 -0.6691  1.6870  1.6519
   98MOL   H31631550 -10.917   4.460   4.691  0.1125 -0.6193 -0.1223
   98MOL   H31731551 -11.167   4.493   4.707 -2.4738 -2.0752 -2.7426
   98MOL   H31831552 -11.405   4.359   4.728 -0.0617  0.1611  0.4276
   98MOL   H31931553 -11.407   4.226   4.835 -1.0022  1.1883  0.2378
   98MOL   H32031554 -11.197   4.106   4.913 -2.3919  1.1012 -1.7959
   98MOL   H32131555 -10.964   4.084   4.898  1.5891  0.7222 -0.0492
   98MOL   H32231556 -11.386   4.399   4.889  0.8837  0.7653 -0.9304
   99MOL     C131557   5.973   7.756   4.386 -0.3010 -0.1244 -0.3053
   99MOL     C231558   5.846   7.841   4.389 -0.4138  0.3238 -0.5698
   99MOL     C331559   5.736   7.789   4.459  0.5895  0.1303  0.4552
   99MOL     C431560   5.620   7.873   4.472 -0.0341  0.6987 -0.2374
   99MOL     C531561   5.614   8.008   4.419  0.5425  0.5340  0.3722
   99MOL     C631562   5.495   8.088   4.454  0.3803 -0.0048  0.5888
   99MOL     C731563   5.725   8.050   4.342  0.5224 -0.5499  0.1985
   99MOL     C831564   5.839   7.968   4.334  0.4720 -0.3740 -0.0266
   99MOL     H931565   6.004   7.737   4.283  2.8955  3.7222 -0.1577
   99MOL    H1031566   6.049   7.818   4.433 -0.1784  0.8700 -1.7721
   99MOL    H1131567   5.734   7.688   4.498 -1.0370 -1.3232 -3.1704
   99MOL    H1231568   5.538   7.838   4.534  0.7408 -0.7598 -0.0078
   99MOL    H1331569   5.472   8.053   4.555  1.1983 -1.2494  0.3631
   99MOL    H1431570   5.507   8.195   4.468 -0.8344  0.1619  0.3896
   99MOL    H1531571   5.726   8.146   4.293  0.6516 -0.0239  1.2020
   99MOL    H1631572   5.916   8.005   4.268 -0.5212  1.9798  0.0589
   99MOL    H1731573   5.951   7.660   4.432 -0.5667  0.1442  0.1335
   99MOL    C1831574   5.387   8.064   4.349  0.1103 -0.3274 -0.1428
   99MOL    C1931575   5.265   8.131   4.386  0.6796 -0.2283  0.3185
   99MOL    C2031576   5.176   8.063   4.469  0.2818 -0.0759  0.3656
   99MOL    C2131577   5.059   8.128   4.504  0.4592  0.5350 -0.6550
   99MOL    C2231578   5.017   8.242   4.446  0.5610 -0.2285  0.8277
   99MOL    C2331579   4.877   8.303   4.483 -0.5102 -0.7111  0.1949
   99MOL    C2431580   5.099   8.303   4.347 -0.1389  0.4319  0.6644
   99MOL    C2531581   5.224   8.247   4.322 -0.0315 -0.1177  0.2075
   99MOL    H2631582   5.425   8.093   4.251  2.3903  0.3687  0.9018
   99MOL    H2731583   5.368   7.957   4.342  3.0453 -1.0273  1.7981
   99MOL    H2831584   5.203   7.976   4.527 -0.0262 -0.0696  0.5168
   99MOL    H2931585   5.000   8.076   4.578  1.3473 -0.6879 -0.7912
   99MOL    H3031586   4.886   8.411   4.496  0.1843 -0.7094 -0.3058
   99MOL    H3131587   4.850   8.263   4.581  0.3055  1.6068  1.3975
   99MOL    H3231588   5.069   8.397   4.303  2.7625  1.6993  1.3282
   99MOL    H3331589   5.281   8.295   4.244 -4.0497  2.0448 -1.5603
   99MOL    C3431590   4.755   8.263   4.394  0.8629 -0.6595 -0.8680
   99MOL    C3531591   4.621   8.326   4.434  0.2073  0.7825 -0.4316
   99MOL    C3631592   4.549   8.265   4.542  0.1803  0.4203 -0.8574
   99MOL    C3731593   4.437   8.329   4.598  0.1114 -0.3905 -0.2223
   99MOL    C3831594   4.389   8.445   4.535  0.0861 -0.1454 -0.2252
   99MOL    C3931595   4.277   8.523   4.596 -0.0784  0.1588 -0.6046
   99MOL    C4031596   4.451   8.498   4.421 -0.2459 -0.0415 -0.3220
   99MOL    C4131597   4.570   8.444   4.375  0.4802 -0.1415 -0.2112
   99MOL    H4231598   4.748   8.155   4.383 -0.3874 -0.6574 -0.1919
   99MOL    H4331599   4.772   8.305   4.295 -1.2055 -0.5755 -1.2161
   99MOL    H4431600   4.586   8.171   4.581 -2.4700 -0.0518  0.6413
   99MOL    H4531601   4.395   8.279   4.684  0.6487 -2.3207 -1.0462
   99MOL    H4631602   4.264   8.498   4.702 -0.8563  0.6502 -0.5737
   99MOL    H4731603   4.300   8.628   4.576  0.7624 -0.0250 -0.5868
   99MOL    H4831604   4.417   8.594   4.385 -0.3479  0.3453  0.7878
   99MOL    H4931605   4.614   8.496   4.291 -0.3488 -2.2879 -2.0356
   99MOL    C5031606   4.133   8.477   4.549 -0.1675 -0.5995 -0.2924
   99MOL    C5131607   4.025   8.556   4.612 -0.0484 -0.1713  0.2565
   99MOL    C5231608   4.007   8.693   4.573 -0.2622 -0.5136  0.0971
   99MOL    C5331609   3.893   8.766   4.604  0.3384 -0.4590  0.4856
   99MOL    C5431610   3.800   8.706   4.695 -0.1631 -0.1696  0.3463
   99MOL    C5531611   3.666   8.781   4.738 -1.0451 -0.6279 -0.3967
   99MOL    C5631612   3.828   8.578   4.746  0.1291  0.0379 -0.2059
   99MOL    C5731613   3.930   8.500   4.694  0.2163 -0.4569 -0.6285
   99MOL    H5831614   4.111   8.373   4.573 -1.9895  0.2644  2.0116
   99MOL    H5931615   4.132   8.488   4.440 -0.8841 -0.3655 -0.2644
   99MOL    H6031616   4.070   8.746   4.503 -1.5907  0.8611 -0.0883
   99MOL    H6131617   3.888   8.866   4.563 -0.1953  0.0520  1.7249
   99MOL    H6231618   3.674   8.803   4.844 -0.2097  0.4993 -0.6756
   99MOL    H6331619   3.657   8.867   4.671 -0.5544 -0.8684 -0.7812
   99MOL    H6431620   3.762   8.539   4.822  0.4916  0.6881  0.4457
   99MOL    H6531621   3.946   8.402   4.737  0.3146  0.1124  0.6678
   99MOL    C6631622   3.539   8.696   4.734 -0.3813 -0.3299 -0.1653
   99MOL    C6731623   3.496   8.645   4.600  0.3836 -0.4952  0.0631
   99MOL    C6831624   3.453   8.745   4.503  0.3439 -0.7332  0.3251
   99MOL    C6931625   3.424   8.701   4.375 -0.1459  0.2330  0.0730
   99MOL    C7031626   3.424   8.561   4.344 -0.3348  0.5607 -0.6872
   99MOL    C7131627   3.389   8.512   4.212 -1.0879  0.1748 -0.3619
   99MOL    C7231628   3.453   8.465   4.445  0.5695  0.1279 -0.8753
   99MOL    C7331629   3.491   8.508   4.571  0.0028  0.9527 -0.3061
   99MOL    H7431630   3.457   8.749   4.782  1.2256  2.0293  0.0727
   99MOL    H7531631   3.553   8.610   4.801 -0.1086 -1.3850 -1.5533
   99MOL    H7631632   3.453   8.851   4.523 -0.3343 -0.0774 -2.8924
   99MOL    H7731633   3.397   8.784   4.312  1.7713  0.9804  0.2085
   99MOL    H7831634   3.299   8.565   4.180 -0.6273  2.7290  2.4019
   99MOL    H7931635   3.338   8.415   4.207 -0.3386 -0.3840  2.0657
   99MOL    H8031636   3.456   8.359   4.425 -0.2872 -0.0844  0.0854
   99MOL    H8131637   3.527   8.438   4.646  1.6329  1.3293 -0.7132
   99MOL    C8231638   3.499   8.512   4.113 -0.0569  0.4362  0.6081
   99MOL    C8331639   3.623   8.422   4.133 -0.3615  0.7206 -0.3358
   99MOL    C8431640   3.658   8.313   4.055  0.1674 -0.7910  0.4649
   99MOL    C8531641   3.781   8.245   4.065 -0.3528  0.0554 -0.2711
   99MOL    C8631642   3.873   8.278   4.167 -0.6631 -0.4591 -0.2586
   99MOL    C8731643   4.000   8.200   4.182  0.4890 -0.5034  0.2647
   99MOL    C8831644   3.838   8.391   4.249  0.2793  0.0442 -0.5541
   99MOL    C8931645   3.717   8.457   4.237  0.4927 -0.1792 -0.7966
   99MOL    H9031646   3.525   8.616   4.091 -3.3208  1.2097  0.0996
   99MOL    H9131647   3.451   8.473   4.024  3.2157 -0.2279 -0.9279
   99MOL    H9231648   3.598   8.280   3.971  0.9826  0.6296 -0.6933
   99MOL    H9331649   3.793   8.167   3.991 -2.3287  0.2287 -0.8038
   99MOL    H9431650   3.970   8.097   4.204 -0.9776 -0.2309 -0.4117
   99MOL    H9531651   4.061   8.219   4.271  0.7453  0.7916 -0.1808
   99MOL    H9631652   3.909   8.424   4.323  0.4121  0.2495 -0.7736
   99MOL    H9731653   3.702   8.544   4.299 -1.2938  0.3498 -1.9009
   99MOL    C9831654   4.092   8.215   4.063 -0.4370 -0.8316 -0.1323
   99MOL    C9931655   4.228   8.141   4.079  0.0197  0.5891  0.3205
   99MOL   C10031656   4.264   8.023   4.005  0.1027  0.3867  0.5377
   99MOL   C10131657   4.392   7.967   4.014 -0.6647 -0.1839  0.0393
   99MOL   C10231658   4.482   8.025   4.106 -0.6670 -0.1899 -0.6393
   99MOL   C10331659   4.622   7.958   4.132 -0.2734 -0.3016 -0.4104
   99MOL   C10431660   4.443   8.134   4.180  0.9058  0.3058  0.2514
   99MOL   C10531661   4.317   8.189   4.173 -0.3980  0.2929  0.6024
   99MOL   H10631662   4.116   8.321   4.052  1.4205 -1.2859 -0.5991
   99MOL   H10731663   4.040   8.179   3.974 -1.5822  2.2551 -0.7729
   99MOL   H10831664   4.207   7.972   3.928  1.9893 -1.4191  0.2853
   99MOL   H10931665   4.424   7.887   3.949  0.5925  0.1480  0.2429
   99MOL   H11031666   4.659   8.000   4.226  1.2633 -1.4767 -0.4632
   99MOL   H11131667   4.609   7.852   4.151 -1.9022 -0.3598 -1.8559
   99MOL   H11231668   4.501   8.172   4.263  0.9561  0.2240  0.2534
   99MOL   H11331669   4.299   8.276   4.235  0.5757  1.2177 -0.3738
   99MOL   C11431670   4.732   7.999   4.031  0.7526 -0.1127  0.2071
   99MOL   C11531671   4.862   7.926   4.051 -0.4218  1.2883 -0.0491
   99MOL   C11631672   4.969   7.988   4.115  0.0691  0.5698  0.2662
   99MOL   C11731673   5.086   7.918   4.129 -0.7717  0.2610 -0.7796
   99MOL   C11831674   5.106   7.797   4.066 -0.0546  0.0919  0.3609
   99MOL   C11931675   5.228   7.725   4.099  0.3266  0.5911  0.0662
   99MOL   C12031676   4.998   7.736   4.000  0.6950  0.1096 -0.3592
   99MOL   C12131677   4.870   7.798   3.992 -0.5501 -0.0099  0.9352
   99MOL   H12231678   4.741   8.107   4.026  2.9994 -0.3597 -2.3361
   99MOL   H12331679   4.691   7.967   3.935 -1.6747  2.0359  0.4882
   99MOL   H12431680   4.952   8.087   4.153 -2.4694  0.1571  0.3312
   99MOL   H12531681   5.170   7.959   4.183 -1.6095  0.1916  0.5932
   99MOL   H12631682   5.278   7.789   4.173  0.8752 -0.9917  1.0848
   99MOL   H12731683   5.225   7.623   4.137  1.1282 -0.0386 -1.5188
   99MOL   H12831684   5.001   7.636   3.961  2.5093  0.9634 -2.5117
   99MOL   H12931685   4.781   7.746   3.961 -0.4643  0.5495 -0.2677
   99MOL   C13031686   5.319   7.720   3.969 -0.6533  0.2062 -0.0970
   99MOL   C13131687   5.452   7.668   3.996  0.2907 -0.0257  0.9038
   99MOL   C13231688   5.557   7.745   4.047  0.2781  0.3705 -0.0695
   99MOL   C13331689   5.679   7.688   4.086 -0.2050 -0.4615 -0.5358
   99MOL   C13431690   5.702   7.553   4.061 -0.9505  0.4830 -0.3521
   99MOL   C13531691   5.837   7.493   4.087  0.2975  0.2011  0.1267
   99MOL   C13631692   5.607   7.475   3.996  0.1232  0.2973 -0.4440
   99MOL   C13731693   5.481   7.531   3.967  0.1767  0.0714  0.4319
   99MOL   H13831694   5.337   7.820   3.930 -0.3648  0.0317 -0.4184
   99MOL   H13931695   5.286   7.663   3.882 -0.3500  2.2620 -1.5937
   99MOL   H14031696   5.551   7.849   4.076 -1.5307  0.2348  0.0576
   99MOL   H14131697   5.752   7.752   4.133 -0.6496  1.1877 -2.0035
   99MOL   H14231698   5.873   7.535   4.181 -2.4839  1.7357  0.5741
   99MOL   H14331699   5.822   7.388   4.113  0.2854  0.4483  1.1359
   99MOL   H14431700   5.622   7.368   3.993 -0.1369  0.0546  3.7328
   99MOL   H14531701   5.399   7.474   3.926  1.8710 -1.5145 -0.8257
   99MOL   C14631702   5.930   7.516   3.965  0.4128  0.0861  0.4871
   99MOL   C14731703   6.072   7.469   3.979 -0.0690 -0.0365 -0.2509
   99MOL   C14831704   6.125   7.375   3.892  0.0740 -0.5500  0.5642
   99MOL   C14931705   6.261   7.337   3.904 -0.3649 -0.2748 -0.5400
   99MOL   C15031706   6.338   7.385   4.009  0.5704 -0.1463 -0.3097
   99MOL   C15131707   6.489   7.354   4.027  0.0616 -0.6096  0.0271
   99MOL   C15231708   6.288   7.492   4.090  0.1941 -0.6939 -0.4438
   99MOL   C15331709   6.157   7.522   4.078  0.3540 -0.1857 -0.2513
   99MOL   H15431710   5.931   7.615   3.920 -1.5480 -0.7065 -1.3247
   99MOL   H15531711   5.884   7.467   3.880 -1.7160  2.1795  0.3965
   99MOL   H15631712   6.068   7.330   3.812  2.4456 -1.0930 -0.8695
   99MOL   H15731713   6.308   7.278   3.828 -1.0861 -2.8265  0.9321
   99MOL   H15831714   6.539   7.372   3.932  0.9188 -1.7300  0.2562
   99MOL   H15931715   6.536   7.418   4.101 -2.2716 -0.9002  1.7999
   99MOL   H16031716   6.345   7.535   4.171  0.2467 -0.0793 -0.8049
   99MOL   H16131717   6.112   7.599   4.140  0.1298 -0.5507  0.0392
   99MOL   C16231718   6.504   7.205   4.061  0.0484 -0.0859  0.4101
   99MOL   C16331719   6.648   7.159   4.085  0.4611 -0.4657 -0.5385
   99MOL   C16431720   6.717   7.218   4.196  1.0568  0.5764 -0.0043
   99MOL   C16531721   6.851   7.180   4.225  0.3413 -0.4327  0.6429
   99MOL   C16631722   6.913   7.096   4.140 -0.5155  0.1506  0.5663
   99MOL   C16731723   7.062   7.051   4.161  0.2859  0.0806  0.2204
   99MOL   C16831724   6.848   7.040   4.026  0.4740 -0.0856 -0.2852
   99MOL   C16931725   6.713   7.063   3.999 -0.6274  0.2835 -0.1301
   99MOL   H17031726   6.456   7.140   3.988 -0.0023 -0.9800  1.2378
   99MOL   H17131727   6.445   7.184   4.150  0.7436 -0.2990  0.8218
   99MOL   H17231728   6.676   7.289   4.265  0.9597  1.9754 -1.4636
   99MOL   H17331729   6.895   7.224   4.313 -0.8218  2.9684 -0.4160
   99MOL   H17431730   7.118   7.079   4.072  1.6149 -2.8603  0.0839
   99MOL   H17531731   7.098   7.112   4.244  1.4520 -1.2679  0.7159
   99MOL   H17631732   6.887   6.957   3.969 -0.8868 -1.2737  0.4760
   99MOL   H17731733   6.652   7.024   3.919 -0.3301  0.9326 -0.6863
   99MOL   C17831734   7.080   6.901   4.189  1.1820  0.8273 -0.2182
   99MOL   C17931735   7.088   6.854   4.340  0.0995  0.2649  0.1501
   99MOL   C18031736   6.999   6.903   4.433 -0.0167 -0.1315  0.0882
   99MOL   C18131737   7.004   6.867   4.569  0.0340  0.2022 -0.7021
   99MOL   C18231738   7.107   6.787   4.615  0.3691  0.1489  0.5522
   99MOL   C18331739   7.120   6.740   4.759 -0.4388 -0.0281  0.3321
   99MOL   C18431740   7.206   6.749   4.522 -0.3014 -0.1363  0.6231
   99MOL   C18531741   7.190   6.765   4.382  0.5173  0.4201 -1.0565
   99MOL   H18631742   7.171   6.854   4.153  0.4845 -0.3520 -0.4580
   99MOL   H18731743   7.004   6.841   4.139  2.0186  0.6631 -1.3027
   99MOL   H18831744   6.919   6.968   4.398  2.1005  1.6347 -1.6211
   99MOL   H18931745   6.948   6.929   4.638 -0.5679 -0.7698 -0.3116
   99MOL   H19031746   7.216   6.693   4.776 -0.4955 -1.9134 -3.9557
   99MOL   H19131747   7.115   6.825   4.827  1.0554  0.8236 -0.5989
   99MOL   H19231748   7.289   6.688   4.555 -1.1812 -0.5663  2.1098
   99MOL   H19331749   7.272   6.729   4.322  1.4079  1.2575 -0.3617
   99MOL   C19431750   6.993   6.645   4.805 -0.2415  1.1302  0.3168
   99MOL   C19531751   6.866   6.724   4.823 -0.3629 -0.4278 -0.3430
   99MOL   C19631752   6.759   6.716   4.733  0.3990  0.0220  0.1472
   99MOL   C19731753   6.631   6.779   4.762 -0.1816 -0.7317 -0.0611
   99MOL   C19831754   6.618   6.858   4.879 -0.4715  0.1222  0.6589
   99MOL   C19931755   6.495   6.937   4.922 -0.0021  0.6749  0.2928
   99MOL   C20031756   6.725   6.872   4.962 -0.2580  0.1862 -0.7665
   99MOL   C20131757   6.846   6.806   4.941  0.0519  0.9822  0.0446
   99MOL   H20231758   7.019   6.603   4.902 -1.7647 -1.0892 -0.2003
   99MOL   H20331759   6.981   6.557   4.742  2.3097 -0.3065  1.7819
   99MOL   H20431760   6.771   6.658   4.643 -0.0608 -0.8303  0.6174
   99MOL   H20531761   6.547   6.770   4.694 -0.8418  0.8511  0.5270
   99MOL   H20631762   6.535   7.036   4.947 -1.0754  1.1803  0.0240
   99MOL   H20731763   6.439   6.956   4.831  0.8883  0.4302 -0.3182
   99MOL   H20831764   6.704   6.920   5.057 -3.3748 -0.1191 -1.2328
   99MOL   H20931765   6.926   6.817   5.013 -0.1681  1.7283  0.1818
   99MOL   C21031766   6.418   6.855   5.025 -0.6514  0.1892 -0.5535
   99MOL   C21131767   6.288   6.926   5.075  0.5558  0.4200  0.3749
   99MOL   C21231768   6.275   6.982   5.197  0.6497 -0.1964  0.0839
   99MOL   C21331769   6.145   7.039   5.233  0.1294  0.0261  0.0786
   99MOL   C21431770   6.035   7.033   5.146  0.0066 -0.1245 -0.0943
   99MOL   C21531771   5.891   7.068   5.185 -0.7396 -0.7327 -0.3969
   99MOL   C21631772   6.055   6.973   5.022 -0.5208  0.3653  0.3735
   99MOL   C21731773   6.180   6.930   4.984 -0.0898 -0.2236 -0.0677
   99MOL   H21831774   6.474   6.836   5.116  1.9383  0.1461 -2.1178
   99MOL   H21931775   6.410   6.750   4.995  2.6627  0.6374 -3.2950
   99MOL   H22031776   6.360   6.981   5.263  0.2935  1.2425  0.5746
   99MOL   H22131777   6.130   7.083   5.331  1.1771  2.9547 -1.0074
   99MOL   H22231778   5.878   7.161   5.240  0.3173 -0.5930 -0.3585
   99MOL   H22331779   5.829   7.073   5.096  0.8017  2.5829 -1.3837
   99MOL   H22431780   5.970   6.958   4.957 -1.4768  1.0645  1.4480
   99MOL   H22531781   6.196   6.885   4.887 -2.4058 -0.2220 -0.4637
   99MOL   C22631782   5.833   6.965   5.283 -0.1149  0.3663 -0.0039
   99MOL   C22731783   5.697   7.005   5.344  0.1426  0.5114 -0.0675
   99MOL   C22831784   5.700   7.067   5.467  0.5431  0.3213  0.0897
   99MOL   C22931785   5.578   7.105   5.526  0.3376  0.7147  0.9668
   99MOL   C23031786   5.459   7.077   5.461  0.7984  0.4248 -0.1459
   99MOL   C23131787   5.326   7.133   5.511 -0.1552  0.6076  0.0354
   99MOL   C23231788   5.455   7.011   5.339 -0.2714 -0.5625  0.3851
   99MOL   C23331789   5.580   6.977   5.281  0.4360  0.1910  0.7386
   99MOL   H23431790   5.906   6.949   5.362 -0.7715  2.7304  1.1518
   99MOL   H23531791   5.817   6.872   5.228 -0.0773 -0.3506  1.1771
   99MOL   H23631792   5.796   7.094   5.508  0.7937 -0.0462 -0.2475
   99MOL   H23731793   5.585   7.156   5.621  4.5498  2.4972 -0.1657
   99MOL   H23831794   5.347   7.230   5.557 -1.1773  1.1619 -0.6434
   99MOL   H23931795   5.260   7.159   5.428  0.5183 -0.6076 -0.8918
   99MOL   H24031796   5.368   6.988   5.280  0.4768 -3.2783  0.2283
   99MOL   H24131797   5.586   6.924   5.188 -0.4384  0.2549  0.6467
   99MOL   C24231798   5.255   7.039   5.612  0.6039 -0.1462 -0.2989
   99MOL   C24331799   5.127   7.091   5.667  0.3793  0.5119 -0.1725
   99MOL   C24431800   5.128   7.148   5.796 -0.1018  0.8944  0.0990
   99MOL   C24531801   5.006   7.205   5.848 -0.2947 -0.2268 -0.0121
   99MOL   C24631802   4.893   7.213   5.764  0.6556  0.3074  0.6376
   99MOL   C24731803   4.778   7.298   5.797  0.0371 -0.8222 -0.4264
   99MOL   C24831804   4.890   7.143   5.641  0.1420 -0.2231  0.4355
   99MOL   C24931805   5.006   7.086   5.591 -0.2168 -0.2435  0.6296
   99MOL   H25031806   5.229   6.949   5.557 -3.0994  0.5303  0.2372
   99MOL   H25131807   5.323   7.011   5.693  0.4022 -1.8017 -0.6771
   99MOL   H25231808   5.222   7.151   5.849  1.4442  1.5144 -2.5895
   99MOL   H25331809   5.011   7.260   5.941 -1.6163  0.2648 -0.2183
   99MOL   H25431810   4.784   7.324   5.903  0.8785  0.1436 -0.7053
   99MOL   H25531811   4.781   7.382   5.729  0.5566 -1.2420 -0.9258
   99MOL   H25631812   4.802   7.133   5.578  0.2740  0.7825  0.0922
   99MOL   H25731813   5.007   7.046   5.491 -1.5170  1.3241 -0.0122
   99MOL   C25831814   4.645   7.222   5.787  0.2102 -1.0112 -0.0424
   99MOL   C25931815   4.523   7.303   5.848  0.7560  0.1538  0.2298
   99MOL   C26031816   4.426   7.358   5.767 -0.5128 -0.1645  0.5155
   99MOL   C26131817   4.315   7.419   5.823  0.2512 -0.8540  0.0081
   99MOL   C26231818   4.288   7.406   5.960 -0.0300  0.6894  0.4579
   99MOL   C26331819   4.160   7.459   6.020  0.9789 -0.3406  0.4695
   99MOL   C26431820   4.378   7.342   6.035 -0.1605 -0.3644  0.0730
   99MOL   C26531821   4.496   7.293   5.984  0.6859  0.6079  0.3293
   99MOL   H26631822   4.666   7.132   5.845  1.8676  0.8213  2.2884
   99MOL   H26731823   4.631   7.189   5.684  0.0744  0.2956 -0.4526
   99MOL   H26831824   4.446   7.348   5.662 -2.0210  2.5744 -0.0708
   99MOL   H26931825   4.240   7.466   5.761 -0.7510  0.8170  2.4237
   99MOL   H27031826   4.174   7.468   6.128  0.9442  0.1365  0.4333
   99MOL   H27131827   4.159   7.565   5.996  2.0019  0.0152  1.9394
   99MOL   H27231828   4.371   7.340   6.143  1.9634  0.5909  0.2706
   99MOL   H27331829   4.561   7.250   6.059  0.4123 -1.6016 -0.6600
   99MOL   C27431830   4.031   7.397   5.976  0.1174  0.5350 -0.2975
   99MOL   C27531831   3.916   7.475   6.040 -0.5179  0.0851  0.3169
   99MOL   C27631832   3.867   7.437   6.165 -0.3505 -0.2662 -0.0999
   99MOL   C27731833   3.768   7.505   6.235  0.1937  0.0683  0.0613
   99MOL   C27831834   3.701   7.608   6.169  0.0916  0.5338 -0.5201
   99MOL   C27931835   3.602   7.689   6.244 -0.1328 -0.1488 -0.2808
   99MOL   C28031836   3.739   7.650   6.045 -0.4042  0.1012 -0.3508
   99MOL   C28131837   3.852   7.589   5.983  0.1514 -0.2938  1.0002
   99MOL   H28231838   4.022   7.407   5.868  1.4456  0.5748 -0.4162
   99MOL   H28331839   4.020   7.292   6.000 -1.2653  0.9372  0.9005
   99MOL   H28431840   3.910   7.347   6.207  3.1969  1.1799 -0.4910
   99MOL   H28531841   3.746   7.476   6.336  0.5582 -1.1143 -0.2014
   99MOL   H28631842   3.627   7.681   6.350 -1.2265  2.7093  0.2296
   99MOL   H28731843   3.628   7.793   6.226 -0.6405  0.2379  1.1818
   99MOL   H28831844   3.683   7.736   6.010 -0.1510  0.5344  0.2936
   99MOL   H28931845   3.882   7.616   5.883  0.9472 -1.5291  0.8935
   99MOL   C29031846   3.457   7.661   6.207 -0.2619  0.5176  0.6080
   99MOL   C29131847   3.355   7.747   6.280 -0.3687  0.2562  0.2145
   99MOL   C29231848   3.338   7.881   6.233 -0.1145 -0.1142  0.5527
   99MOL   C29331849   3.250   7.966   6.303  0.1925 -0.1855  0.1038
   99MOL   C29431850   3.168   7.915   6.404  0.2151  0.1514 -0.1298
   99MOL   C29531851   3.064   8.009   6.470  0.8539 -0.3592 -0.6955
   99MOL   C29631852   3.179   7.779   6.444 -0.4833 -0.4205  0.4006
   99MOL   C29731853   3.275   7.698   6.382 -0.3308 -0.5137 -0.3816
   99MOL   H29831854   3.430   7.557   6.223 -3.7638  1.5128  1.6563
   99MOL   H29931855   3.442   7.689   6.103  1.1003  0.8154  0.4782
   99MOL   H30031856   3.400   7.919   6.152 -0.7037  1.2196  0.7128
   99MOL   H30131857   3.238   8.070   6.279 -2.1605 -0.1921  1.1373
   99MOL   H30231858   3.006   7.961   6.549  0.5026 -0.5352 -1.0606
   99MOL   H30331859   3.119   8.078   6.534  3.1857 -2.5894 -0.1866
   99MOL   H30431860   3.119   7.738   6.524  1.5092 -1.5746  1.3260
   99MOL   H30531861   3.287   7.593   6.406 -2.2029 -1.1536 -2.0565
   99MOL   C30631862   2.971   8.083   6.361  0.5181  0.1868  0.7196
   99MOL   C30731863   2.896   8.203   6.411  0.2893  0.0997 -0.0894
   99MOL   C30831864   2.754   8.202   6.427 -0.1076  0.8002 -0.3854
   99MOL   C30931865   2.677   8.313   6.470  0.0968 -0.3056  0.7349
   99MOL   C31031866   2.746   8.438   6.471 -0.2225  0.2255 -0.1883
   99MOL   C31131867   2.667   8.565   6.485 -0.1065 -0.2689  0.5738
   99MOL   C31231868   2.888   8.440   6.460  0.1895 -0.0875 -0.2071
   99MOL   C31331869   2.962   8.325   6.424  0.7958 -0.3776  0.6000
   99MOL   H31431870   2.911   8.009   6.308  0.7534 -0.5047  1.4038
   99MOL   H31531871   3.034   8.128   6.284  1.9156 -0.4872  1.4363
   99MOL   H31631872   2.706   8.107   6.412  0.0688  0.5813  0.3805
   99MOL   H31731873   2.569   8.304   6.479 -0.3502  3.5277 -0.1371
   99MOL   H31831874   2.621   8.571   6.584  1.4597 -1.2130  1.3652
   99MOL   H31931875   2.733   8.652   6.478 -0.5296  0.0313  0.2368
   99MOL   H32031876   2.932   8.539   6.464  0.3232 -0.0735 -1.6006
   99MOL   H32131877   3.068   8.331   6.404  0.4414 -0.5980 -1.4420
   99MOL   H32231878   2.588   8.568   6.410  0.7350  1.5918 -0.2756
  100MOL     C131879   6.827   5.838   7.869 -0.0169 -0.0528  0.7199
  100MOL     C231880   6.710   5.912   7.936  0.4858  0.1986 -0.5977
  100MOL     C331881   6.574   5.880   7.917  0.5991 -0.9925 -0.4755
  100MOL     C431882   6.467   5.958   7.964 -0.1876 -0.0397 -0.2200
  100MOL     C531883   6.498   6.075   8.043  0.2960 -0.0181  0.6094
  100MOL     C631884   6.396   6.167   8.105  0.2214  0.0949 -0.0493
  100MOL     C731885   6.634   6.104   8.072  0.2644  0.0240 -0.0285
  100MOL     C831886   6.735   6.018   8.025  0.3104  0.2978  0.5127
  100MOL     H931887   6.887   5.910   7.813  0.1905 -1.7914 -1.3469
  100MOL    H1031888   6.895   5.795   7.942 -0.0018  1.3695  1.5638
  100MOL    H1131889   6.557   5.792   7.856  0.4048 -1.9186  0.8947
  100MOL    H1231890   6.370   5.926   7.931  0.6663 -3.2444  0.2392
  100MOL    H1331891   6.317   6.097   8.132 -0.9100  1.0105 -0.9609
  100MOL    H1431892   6.433   6.210   8.198 -0.1244  0.9859 -0.3227
  100MOL    H1531893   6.656   6.185   8.141 -1.2784 -0.5895  1.2043
  100MOL    H1631894   6.834   6.045   8.057  0.2443 -0.0741  1.0381
  100MOL    H1731895   6.798   5.759   7.799 -2.7826  0.0906  1.6398
  100MOL    C1831896   6.337   6.267   8.008 -0.3127 -0.8909  0.0727
  100MOL    C1931897   6.228   6.354   8.067 -0.0735 -0.1083 -0.3685
  100MOL    C2031898   6.104   6.352   7.996 -0.0515  0.6235 -0.4601
  100MOL    C2131899   5.996   6.425   8.049  0.0085 -0.4520  0.1166
  100MOL    C2231900   6.016   6.511   8.160  0.2003 -0.0770  0.3930
  100MOL    C2331901   5.893   6.595   8.199  0.0108  0.1477 -0.3373
  100MOL    C2431902   6.142   6.513   8.228 -0.3805 -0.6509 -0.1594
  100MOL    C2531903   6.250   6.437   8.179  0.5312 -0.9197  0.2206
  100MOL    H2631904   6.423   6.328   7.977  0.6824 -2.6442 -0.6654
  100MOL    H2731905   6.299   6.216   7.920 -0.4136 -3.5457  1.6210
  100MOL    H2831906   6.100   6.280   7.916 -3.5100  2.1312 -1.7448
  100MOL    H2931907   5.900   6.414   8.000  1.3861 -1.8638 -2.4278
  100MOL    H3031908   5.809   6.527   8.217 -1.3844  1.4626 -1.7918
  100MOL    H3131909   5.870   6.652   8.109 -1.6273  0.8182  0.4727
  100MOL    H3231910   6.159   6.585   8.307 -0.2790  0.0679 -0.8318
  100MOL    H3331911   6.350   6.449   8.220  0.4302 -1.6953  0.7023
  100MOL    C3431912   5.922   6.697   8.320  0.7655 -0.2370  0.1930
  100MOL    C3531913   5.806   6.801   8.331  0.3493 -0.7397  0.3774
  100MOL    C3631914   5.829   6.939   8.340 -0.1262  0.1913 -0.8873
  100MOL    C3731915   5.728   7.038   8.327  0.7029  0.2144  0.4883
  100MOL    C3831916   5.596   6.989   8.325 -0.0496  0.7274  0.0007
  100MOL    C3931917   5.480   7.087   8.321  0.0385  0.6583 -0.2228
  100MOL    C4031918   5.566   6.850   8.326 -0.6987  0.3067  0.1546
  100MOL    C4131919   5.673   6.760   8.333 -0.4148  0.1692 -1.0254
  100MOL    H4231920   6.014   6.754   8.307  1.9206 -2.0588  0.2942
  100MOL    H4331921   5.922   6.646   8.416  0.3030 -1.5299 -0.4916
  100MOL    H4431922   5.932   6.968   8.341 -0.2555  0.6376  1.7069
  100MOL    H4531923   5.747   7.144   8.333  1.5607  0.1997 -1.3497
  100MOL    H4631924   5.513   7.151   8.239 -0.8452  0.6154 -0.6259
  100MOL    H4731925   5.388   7.039   8.289 -0.4171 -0.6301  2.8467
  100MOL    H4831926   5.464   6.816   8.317 -1.1596  1.3329  1.4888
  100MOL    H4931927   5.652   6.655   8.319  0.4545 -0.1216 -0.2238
  100MOL    C5031928   5.473   7.172   8.446 -0.2323 -0.0140  0.5221
  100MOL    C5131929   5.361   7.274   8.429 -0.7737 -0.6277 -0.6872
  100MOL    C5231930   5.380   7.376   8.337 -0.1402 -1.0750  1.1231
  100MOL    C5331931   5.285   7.476   8.317  0.1031 -0.4615  0.2911
  100MOL    C5431932   5.172   7.484   8.399 -0.3835 -0.4380  0.2115
  100MOL    C5531933   5.072   7.594   8.372  0.3255  0.1819 -0.1259
  100MOL    C5631934   5.156   7.388   8.496  0.3161  0.1215 -0.7039
  100MOL    C5731935   5.245   7.275   8.509 -0.2175 -0.1560 -0.8362
  100MOL    H5831936   5.573   7.207   8.470 -1.2787  1.7333  2.5636
  100MOL    H5931937   5.441   7.112   8.531 -0.4870  1.2548  1.3521
  100MOL    H6031938   5.465   7.370   8.270 -0.5901  0.2702  0.4000
  100MOL    H6131939   5.309   7.549   8.242  0.1447  1.7035  2.3579
  100MOL    H6231940   5.126   7.687   8.351  1.3218 -0.3169  0.1720
  100MOL    H6331941   5.008   7.576   8.286  0.7493 -0.3162 -0.3407
  100MOL    H6431942   5.075   7.382   8.567  1.7227 -1.0487  0.8366
  100MOL    H6531943   5.237   7.194   8.580  0.6981  0.2577 -0.2475
  100MOL    C6631944   4.981   7.619   8.496 -0.0102  0.1679  0.0473
  100MOL    C6731945   4.873   7.724   8.479  0.1773 -0.5153 -0.6925
  100MOL    C6831946   4.902   7.865   8.489 -0.0411  0.8559 -1.1869
  100MOL    C6931947   4.795   7.956   8.487  0.2017  0.1236 -0.6120
  100MOL    C7031948   4.664   7.918   8.458 -0.1163 -0.3901 -0.0297
  100MOL    C7131949   4.561   8.018   8.438  0.0756 -0.6662 -0.5226
  100MOL    C7231950   4.641   7.785   8.439  0.3192 -0.8631 -0.0437
  100MOL    C7331951   4.740   7.687   8.467  0.2200  0.7186  0.1127
  100MOL    H7431952   5.045   7.646   8.581  1.7837  1.6477 -1.7265
  100MOL    H7531953   4.932   7.529   8.533  0.3180  1.0239  2.7060
  100MOL    H7631954   5.002   7.900   8.505  0.3945 -1.7977  2.2019
  100MOL    H7731955   4.819   8.060   8.505  1.1533  0.0261 -1.3239
  100MOL    H7831956   4.468   7.961   8.436  0.4320 -1.3177  0.9523
  100MOL    H7931957   4.570   8.080   8.349 -0.2647  1.0712  0.6286
  100MOL    H8031958   4.541   7.749   8.419  0.3786 -2.5592  2.4383
  100MOL    H8131959   4.704   7.585   8.460 -2.3134  1.6314 -0.5777
  100MOL    C8231960   4.538   8.112   8.554 -0.0655 -0.1025 -0.2732
  100MOL    C8331961   4.415   8.200   8.525  0.3485 -1.0635 -0.2720
  100MOL    C8431962   4.282   8.150   8.515 -0.1307 -0.0131 -0.1611
  100MOL    C8531963   4.173   8.241   8.491  0.0806 -0.1805  0.0106
  100MOL    C8631964   4.199   8.387   8.476 -0.2248  0.4168 -0.0220
  100MOL    C8731965   4.087   8.484   8.450 -0.3416 -0.2769  0.0394
  100MOL    C8831966   4.332   8.432   8.485  0.6520  0.2772  0.1026
  100MOL    C8931967   4.436   8.341   8.516 -0.2447 -0.0640  0.2977
  100MOL    H9031968   4.627   8.170   8.577 -1.3319  1.1676  1.4857
  100MOL    H9131969   4.515   8.033   8.626 -0.5737  0.0896 -0.2252
  100MOL    H9231970   4.266   8.044   8.524 -0.7998  0.0327 -0.8040
  100MOL    H9331971   4.071   8.207   8.494 -0.1162  0.2468 -1.3743
  100MOL    H9431972   4.028   8.457   8.363 -1.7479 -0.8930  1.1667
  100MOL    H9531973   4.129   8.582   8.425 -1.9518  0.4397  0.0717
  100MOL    H9631974   4.361   8.535   8.475 -1.3614  0.9401  0.8186
  100MOL    H9731975   4.539   8.374   8.526 -0.2875 -0.2608  1.4198
  100MOL    C9831976   3.997   8.488   8.560  0.5692  0.2495  0.0474
  100MOL    C9931977   3.867   8.558   8.528  0.3105  0.4255 -0.1020
  100MOL   C10031978   3.857   8.696   8.510 -0.8876 -0.1997  0.6297
  100MOL   C10131979   3.736   8.758   8.476  0.1709 -0.5651  0.0811
  100MOL   C10231980   3.616   8.692   8.492 -0.1714  0.7478  0.6173
  100MOL   C10331981   3.492   8.755   8.474  0.2349 -0.0282  0.7270
  100MOL   C10431982   3.622   8.551   8.517 -0.8124  0.2711  0.0711
  100MOL   C10531983   3.749   8.477   8.530  0.6159 -0.3608 -0.1991
  100MOL   H10631984   4.038   8.531   8.652 -0.8780 -0.7473  1.1708
  100MOL   H10731985   3.978   8.384   8.584 -1.1886  0.7622  0.9487
  100MOL   H10831986   3.949   8.753   8.506 -0.6722 -0.6600 -2.7186
  100MOL   H10931987   3.727   8.863   8.452 -1.5181 -0.5436  0.7609
  100MOL   H11031988   3.505   8.861   8.451  1.0023  0.4676  3.2938
  100MOL   H11131989   3.445   8.701   8.392  1.6185 -0.6533  0.3493
  100MOL   H11231990   3.529   8.496   8.522 -0.3163 -0.4371  2.4179
  100MOL   H11331991   3.755   8.370   8.538 -1.6221 -0.6281 -1.6636
  100MOL   C11431992   3.413   8.760   8.604  0.2210  0.9010 -0.4581
  100MOL   C11531993   3.278   8.819   8.597 -0.3067 -0.4594  0.4743
  100MOL   C11631994   3.167   8.742   8.581  0.5181  0.0880 -0.0250
  100MOL   C11731995   3.035   8.791   8.574 -0.0123  0.3408 -0.1907
  100MOL   C11831996   3.013   8.925   8.563 -0.3051  0.5988 -0.1855
  100MOL   C11931997   2.878   8.987   8.542  0.0653  0.1295 -0.2257
  100MOL   C12031998   3.130   9.008   8.572  0.2791 -0.4706 -0.1690
  100MOL   C12131999   3.262   8.960   8.594 -0.8922 -0.2293  0.0525
  100MOL   H12232000   3.475   8.814   8.676 -1.3730 -1.1118  2.5008
  100MOL   H12332001   3.418   8.663   8.653 -1.1120  0.5547 -1.0068
  100MOL   H12432002   3.178   8.634   8.582  1.5678  0.1755 -1.1590
  100MOL   H12532003   2.953   8.722   8.566 -0.8473  1.2429  0.5598
  100MOL   H12632004   2.908   9.091   8.529  1.6002 -0.3222 -0.4298
  100MOL   H12732005   2.826   8.930   8.466 -1.6735  2.0390 -0.5099
  100MOL   H12832006   3.121   9.116   8.565 -0.2064 -0.4889  0.1195
  100MOL   H12932007   3.346   9.025   8.614 -0.0864 -1.2679  0.0550
  100MOL   C13032008   2.789   8.973   8.669  1.0059  0.7809 -0.0344
  100MOL   C13132009   2.653   9.040   8.656 -0.1938  0.0128  0.5044
  100MOL   C13232010   2.653   9.182   8.642 -0.5109 -0.7882  0.7738
  100MOL   C13332011   2.528   9.252   8.642  0.0068 -0.0769  1.3851
  100MOL   C13432012   2.410   9.180   8.651  0.2215 -0.0214 -0.1819
  100MOL   C13532013   2.269   9.241   8.653 -0.4079 -0.0218 -0.0581
  100MOL   C13632014   2.408   9.039   8.662  0.2648  0.1396  0.5467
  100MOL   C13732015   2.530   8.970   8.666 -0.5039  0.5087  0.0961
  100MOL   H13832016   2.844   9.003   8.759  0.2241  0.6731  0.4848
  100MOL   H13932017   2.767   8.871   8.700  1.3691  0.8432  0.4401
  100MOL   H14032018   2.752   9.224   8.637 -0.1885 -1.6503 -0.2529
  100MOL   H14132019   2.531   9.358   8.618 -0.5742 -0.2764  0.3836
  100MOL   H14232020   2.265   9.345   8.619  0.5952  0.4235  1.1564
  100MOL   H14332021   2.214   9.187   8.576 -1.6153  1.2856 -0.1417
  100MOL   H14432022   2.316   8.984   8.655 -0.5444  1.7378 -1.9197
  100MOL   H14532023   2.529   8.862   8.670 -1.6017  0.5242  0.2641
  100MOL   C14632024   2.191   9.248   8.790 -0.1987  1.2092 -0.0474
  100MOL   C14732025   2.048   9.303   8.769 -0.1882 -0.4348 -0.6238
  100MOL   C14832026   2.034   9.442   8.758 -0.1668 -0.2106  0.4723
  100MOL   C14932027   1.901   9.498   8.764  0.5387  0.9017 -0.0595
  100MOL   C15032028   1.787   9.401   8.750  1.0056  0.1255 -0.3033
  100MOL   C15132029   1.640   9.450   8.746 -0.0866  0.2907  0.3415
  100MOL   C15232030   1.809   9.264   8.756 -0.8722 -0.3256 -0.1411
  100MOL   C15332031   1.940   9.220   8.769  0.4948  0.6150  0.4608
  100MOL   H15432032   2.237   9.307   8.870  2.1178  2.6002 -2.3028
  100MOL   H15532033   2.186   9.143   8.821 -1.3229  0.3312 -3.0124
  100MOL   H15632034   2.124   9.496   8.783 -1.0794  0.9204  1.3732
  100MOL   H15732035   1.888   9.603   8.743 -1.3247  0.2816 -2.1624
  100MOL   H15832036   1.662   9.549   8.708 -0.2951  0.4623  0.6617
  100MOL   H15932037   1.586   9.400   8.665 -0.8190 -1.1154  1.6567
  100MOL   H16032038   1.739   9.184   8.743 -1.3538 -0.1651  1.3205
  100MOL   H16132039   1.946   9.113   8.785  0.2661  0.5053 -0.2056
  100MOL   C16232040   1.572   9.448   8.885  0.2539 -0.4967  0.4951
  100MOL   C16332041   1.434   9.503   8.863  0.2329 -0.3159  0.4712
  100MOL   C16432042   1.414   9.641   8.843 -1.1549 -0.1459 -0.3309
  100MOL   C16532043   1.282   9.692   8.855 -0.2866  0.4573  0.4317
  100MOL   C16632044   1.173   9.602   8.873 -0.0337 -0.0155  0.1262
  100MOL   C16732045   1.029   9.654   8.877  0.6443 -0.1486 -0.9306
  100MOL   C16832046   1.194   9.465   8.892 -0.3637 -0.1940 -0.4921
  100MOL   C16932047   1.326   9.413   8.886 -0.7000 -0.0520 -0.1046
  100MOL   H17032048   1.632   9.503   8.959 -0.1727 -1.7437  1.7898
  100MOL   H17132049   1.565   9.343   8.913  0.6790 -0.4308  0.8617
  100MOL   H17232050   1.495   9.708   8.821 -0.6280 -1.0656 -1.2241
  100MOL   H17332051   1.262   9.797   8.841 -0.6972  0.4660  1.0484
  100MOL   H17432052   1.014   9.742   8.814 -0.7238  1.6354  1.7576
  100MOL   H17532053   0.960   9.582   8.836 -0.1368  0.6745 -1.0724
  100MOL   H17632054   1.107   9.401   8.903 -0.6182 -0.3784 -3.2128
  100MOL   H17732055   1.339   9.310   8.915 -0.2947 -0.3963 -1.4614
  100MOL   C17832056   0.984   9.683   9.024 -0.6986 -0.3659 -0.0432
  100MOL   C17932057   0.834   9.714   9.031 -0.1208  0.2340 -0.3835
  100MOL   C18032058   0.787   9.844   9.012  0.0946 -0.6419 -0.0428
  100MOL   C18132059   0.650   9.872   9.015  0.3965  1.5281  0.2391
  100MOL   C18232060   0.558   9.768   9.039  0.2234 -0.2645  0.4081
  100MOL   C18332061   0.407   9.801   9.039  0.0512  0.1983 -0.7302
  100MOL   C18432062   0.603   9.638   9.059  0.1917 -0.0886 -0.8639
  100MOL   C18532063   0.745   9.612   9.049  0.0172 -0.0157 -0.2704
  100MOL   H18632064   1.049   9.763   9.059 -1.8079  1.4023 -1.9046
  100MOL   H18732065   0.987   9.593   9.087  3.8495 -0.3750 -0.1306
  100MOL   H18832066   0.858   9.925   9.015  0.5037 -0.9947 -0.2448
  100MOL   H18932067   0.620   9.976   9.008 -2.3453  0.6916 -0.8697
  100MOL   H19032068   0.388   9.867   8.954  0.0437  1.1221 -0.0220
  100MOL   H19132069   0.349   9.710   9.025 -1.6007  1.5459 -3.0049
  100MOL   H19232070   0.539   9.553   9.079  3.1976 -2.6696 -1.6966
  100MOL   H19332071   0.759   9.511   9.085 -1.1630  0.2888  1.1314
  100MOL   C19432072   0.371   9.878   9.166  0.2356 -0.3755  0.2570
  100MOL   C19532073   0.222   9.922   9.166  0.2249 -0.3040  0.1152
  100MOL   C19632074   0.115   9.828   9.192 -0.1732  0.3984 -0.1166
  100MOL   C19732075  -0.019   9.863   9.187 -0.0225  0.3953  0.2584
  100MOL   C19832076  -0.048   9.999   9.160  0.2491  0.9939 -0.6349
  100MOL   C19932077  -0.196  10.030   9.159  0.5054 -0.3284 -0.1237
  100MOL   C20032078   0.050  10.098   9.127  0.5161  0.8172  0.0465
  100MOL   C20132079   0.186  10.055   9.130  0.2324  0.8540 -0.2609
  100MOL   H20232080   0.442   9.960   9.175 -1.0347  0.8019 -0.1768
  100MOL   H20332081   0.380   9.810   9.250  2.4769  1.8671  1.9061
  100MOL   H20432082   0.140   9.725   9.213  0.1815  0.2136 -1.3699
  100MOL   H20532083  -0.091   9.785   9.208  1.5390 -1.9171 -2.6667
  100MOL   H20632084  -0.213  10.115   9.092 -3.0775  0.0963  1.2525
  100MOL   H20732085  -0.251   9.953   9.106 -0.9776  0.1618  0.6861
  100MOL   H20832086   0.019  10.197   9.095 -0.0863  0.7728  0.4958
  100MOL   H20932087   0.265  10.122   9.099  1.4844 -0.0588  0.9034
  100MOL   C21032088  -0.263  10.040   9.298  0.2212  0.2526  0.1457
  100MOL   C21132089  -0.411  10.087   9.295  0.0926  0.2444 -0.5316
  100MOL   C21232090  -0.511  10.008   9.359  0.2996 -0.4038 -0.6085
  100MOL   C21332091  -0.646  10.054   9.361  0.3152 -0.8528 -0.4356
  100MOL   C21432092  -0.686  10.166   9.278 -0.0521 -0.6675 -0.6450
  100MOL   C21532093  -0.836  10.199   9.262 -0.3972 -0.0945  0.1411
  100MOL   C21632094  -0.588  10.246   9.223 -0.0238 -0.1237  0.4779
  100MOL   C21732095  -0.448  10.208   9.233 -0.0566 -0.5216 -0.3349
  100MOL   H21832096  -0.217  10.116   9.362  1.3504  0.0609 -0.4226
  100MOL   H21932097  -0.270   9.944   9.350  0.1359  1.0878  1.7226
  100MOL   H22032098  -0.481   9.919   9.412  1.8635 -0.7107 -1.9701
  100MOL   H22132099  -0.713   9.986   9.412 -1.0045  3.0939  3.4013
  100MOL   H22232100  -0.859  10.254   9.171  0.0146 -0.5234 -0.2246
  100MOL   H22332101  -0.894  10.109   9.242 -0.8607  0.4103 -0.7892
  100MOL   H22432102  -0.621  10.331   9.165 -0.6836 -2.3890 -2.5597
  100MOL   H22532103  -0.365  10.271   9.206 -0.6224  0.1098 -0.6101
  100MOL   C22632104  -0.882  10.279   9.381 -0.3256 -0.6533 -0.1670
  100MOL   C22732105  -1.030  10.331   9.368 -0.1590 -0.3262  0.7351
  100MOL   C22832106  -1.059  10.444   9.288 -0.0709 -0.4152  0.1968
  100MOL   C22932107  -1.198  10.496   9.288 -0.1662  0.3757 -0.1354
  100MOL   C23032108  -1.299  10.416   9.354 -0.7155  0.0924  1.0509
  100MOL   C23132109  -1.439  10.473   9.351  0.6447  0.1327  0.4069
  100MOL   C23232110  -1.267  10.306   9.432 -0.3779 -0.4543  0.8274
  100MOL   C23332111  -1.131  10.264   9.440 -0.3574 -0.6697 -0.4596
  100MOL   H23432112  -0.818  10.367   9.388  0.3664 -1.1889  0.3459
  100MOL   H23532113  -0.860  10.216   9.467 -0.4005 -0.7998 -0.2562
  100MOL   H23632114  -0.987  10.485   9.220 -1.3970  1.9650  0.1759
  100MOL   H23732115  -1.230  10.585   9.235  1.5461  0.7147 -0.6453
  100MOL   H23832116  -1.487  10.420   9.433 -1.1763 -0.8688 -1.2726
  100MOL   H23932117  -1.414  10.577   9.372  1.4204 -0.0396  0.3818
  100MOL   H24032118  -1.345  10.251   9.481 -1.8376  0.1456 -0.7638
  100MOL   H24132119  -1.099  10.184   9.505  1.0705 -2.3163 -3.0899
  100MOL   C24232120  -1.512  10.464   9.226  0.1331 -0.3835 -0.1186
  100MOL   C24332121  -1.639  10.540   9.230 -0.6177 -1.6109 -0.3660
  100MOL   C24432122  -1.651  10.684   9.238  0.2813  0.3717  0.2874
  100MOL   C24532123  -1.776  10.742   9.233 -1.2732  0.4545  0.2643
  100MOL   C24632124  -1.890  10.665   9.236 -0.5427 -0.6491 -0.2954
  100MOL   C24732125  -2.031  10.721   9.231  0.3564 -0.6891 -0.1669
  100MOL   C24832126  -1.884  10.525   9.238 -0.1063 -0.3150 -0.1826
  100MOL   C24932127  -1.756  10.461   9.238  0.4215 -0.0985 -0.2632
  100MOL   H25032128  -1.450  10.516   9.154  0.0592 -0.6443 -0.3677
  100MOL   H25132129  -1.541  10.362   9.201  1.0540 -1.1011  1.6328
  100MOL   H25232130  -1.560  10.742   9.244  1.0827 -0.5316 -2.4783
  100MOL   H25332131  -1.792  10.848   9.242 -2.4396  0.2181  1.0536
  100MOL   H25432132  -2.024  10.785   9.143 -0.9052  0.7509  0.7511
  100MOL   H25532133  -2.110  10.648   9.210 -0.9179  0.7518 -0.5188
  100MOL   H25632134  -1.959  10.451   9.217 -0.5630  0.5961 -1.8376
  100MOL   H25732135  -1.753  10.353   9.233 -2.4538 -0.3575  2.1531
  100MOL   C25832136  -2.070  10.805   9.351 -0.3877  0.6061  0.0242
  100MOL   C25932137  -2.211  10.847   9.347  0.0866  0.1881 -0.6108
  100MOL   C26032138  -2.259  10.920   9.238 -0.0228 -0.1158  0.6523
  100MOL   C26132139  -2.395  10.964   9.238 -0.5130 -0.8237  0.2808
  100MOL   C26232140  -2.483  10.927   9.339 -0.2418  0.1528  0.0094
  100MOL   C26332141  -2.633  10.958   9.331  0.9288  0.0191  0.1545
  100MOL   C26432142  -2.439  10.848   9.444  0.0275  0.1146 -0.4875
  100MOL   C26532143  -2.302  10.817   9.456 -0.0904  0.0945  0.2114
  100MOL   H26632144  -2.007  10.894   9.359 -0.2364  0.5381 -0.4241
  100MOL   H26732145  -2.033  10.757   9.441  2.2533 -2.2746 -2.4936
  100MOL   H26832146  -2.196  10.937   9.152 -0.9273 -0.5606 -0.1077
  100MOL   H26932147  -2.433  11.023   9.156 -0.4464 -2.4222 -0.9094
  100MOL   H27032148  -2.679  10.931   9.426 -0.7885  1.5741 -0.1962
  100MOL   H27132149  -2.655  11.065   9.321  0.2082 -0.1046  0.3764
  100MOL   H27232150  -2.505  10.817   9.523  0.3967 -0.9077 -0.5706
  100MOL   H27332151  -2.273  10.764   9.546 -1.6969 -0.7339  0.2502
  100MOL   C27432152  -2.703  10.891   9.204  0.0698 -0.0107 -0.9987
  100MOL   C27532153  -2.853  10.918   9.195  0.3941  0.1445 -1.1111
  100MOL   C27632154  -2.883  11.024   9.107  0.2226  0.1756 -0.0220
  100MOL   C27732155  -3.015  11.074   9.104  0.0801 -0.4175 -1.1202
  100MOL   C27832156  -3.118  11.012   9.178  0.5063  1.1075  0.1477
  100MOL   C27932157  -3.259  11.071   9.163  0.5388 -0.0054  0.7693
  100MOL   C28032158  -3.095  10.892   9.247  0.3352 -0.2517 -0.0669
  100MOL   C28132159  -2.963  10.850   9.260  0.3222 -0.0269  0.2884
  100MOL   H28232160  -2.656  10.931   9.114  0.8432  1.9393  0.2582
  100MOL   H28332161  -2.671  10.787   9.191 -2.3629 -0.9154  0.0525
  100MOL   H28432162  -2.806  11.081   9.059  0.7323 -0.7741 -0.3531
  100MOL   H28532163  -3.045  11.156   9.040  1.2362 -0.3030 -1.5298
  100MOL   H28632164  -3.274  11.084   9.056 -2.7166  0.9710  1.2714
  100MOL   H28732165  -3.323  10.990   9.200 -1.5660  1.8469  1.2804
  100MOL   H28832166  -3.171  10.830   9.293 -0.7366  0.8525 -0.3011
  100MOL   H28932167  -2.942  10.761   9.318 -0.2132 -0.9543 -0.9160
  100MOL   C29032168  -3.293  11.185   9.252 -0.2412  0.4516 -0.8020
  100MOL   C29132169  -3.444  11.219   9.263  0.1033 -0.5120  0.0436
  100MOL   C29232170  -3.548  11.130   9.301 -0.5323  1.0748 -0.0252
  100MOL   C29332171  -3.672  11.184   9.334 -0.5120 -0.0814  0.0227
  100MOL   C29432172  -3.712  11.312   9.297 -0.4324  0.2387 -0.2149
  100MOL   C29532173  -3.854  11.361   9.322  0.0192 -0.0225 -0.0460
  100MOL   C29632174  -3.613  11.393   9.243 -0.0461  0.5286 -0.4491
  100MOL   C29732175  -3.479  11.350   9.234 -0.4261 -0.6058 -0.3290
  100MOL   H29832176  -3.225  11.259   9.211  0.4360  1.5022  2.1262
  100MOL   H29932177  -3.270  11.151   9.353  1.5238 -0.1015 -1.3796
  100MOL   H30032178  -3.525  11.025   9.306  0.2137  1.2376  0.0332
  100MOL   H30132179  -3.746  11.128   9.390 -1.0425  0.4616 -0.1253
  100MOL   H30232180  -3.865  11.459   9.275  1.4419 -0.8625 -2.2405
  100MOL   H30332181  -3.928  11.287   9.291 -1.5425  0.2384  2.9209
  100MOL   H30432182  -3.634  11.497   9.225 -0.1377  0.8993  1.6467
  100MOL   H30532183  -3.405  11.425   9.212 -0.3369 -0.6778 -0.2721
  100MOL   C30632184  -3.881  11.395   9.469 -0.2529 -0.3124 -0.0751
  100MOL   C30732185  -4.012  11.463   9.489  0.2065  0.1340 -0.6220
  100MOL   C30832186  -4.015  11.603   9.480  0.5626 -0.1632 -0.0908
  100MOL   C30932187  -4.138  11.672   9.499 -0.1111  0.0263  0.3675
  100MOL   C31032188  -4.259  11.606   9.522 -0.4236 -0.7875 -0.6029
  100MOL   C31132189  -4.392  11.673   9.554 -0.2236 -0.3788 -0.2062
  100MOL   C31232190  -4.260  11.465   9.529  0.0146  0.1499 -0.4186
  100MOL   C31332191  -4.136  11.394   9.510 -0.2318  0.1209 -0.3807
  100MOL   H31432192  -3.800  11.455   9.512  0.4898 -1.0746 -0.4075
  100MOL   H31532193  -3.886  11.304   9.529  1.2523 -1.1646 -1.2111
  100MOL   H31632194  -3.925  11.661   9.474  1.4599 -1.6455 -1.3292
  100MOL   H31732195  -4.129  11.780   9.503 -1.2798  0.1513  0.1014
  100MOL   H31832196  -4.462  11.615   9.495 -2.4406  2.1933 -0.2561
  100MOL   H31932197  -4.422  11.666   9.659 -1.0705 -1.1886 -0.4976
  100MOL   H32032198  -4.353  11.412   9.537  0.0489  0.1828  0.1998
  100MOL   H32132199  -4.130  11.287   9.505 -0.1473  0.1455 -0.7922
  100MOL   H32232200  -4.396  11.776   9.518  0.5522  0.2191  1.3676
  101MOL     C132201   6.664   4.035   0.158 -0.3061  0.5357 -0.2921
  101MOL     C232202   6.797   3.973   0.127  0.7234 -0.0728  0.1949
  101MOL     C332203   6.885   3.918   0.225  0.2783 -0.2817  0.5238
  101MOL     C432204   7.015   3.868   0.189 -0.5661 -0.0160  0.2443
  101MOL     C532205   7.051   3.854   0.052  0.2525 -0.1676  0.2954
  101MOL     C632206   7.177   3.782  -0.001  0.9109  0.6200  0.0062
  101MOL     C732207   6.962   3.901  -0.050 -0.7401 -0.6827  0.1379
  101MOL     C832208   6.840   3.960  -0.010  0.2491 -0.7323 -0.3268
  101MOL     H932209   6.586   3.980   0.105  0.4248 -0.1000 -0.7228
  101MOL    H1032210   6.651   4.033   0.266 -1.2959  1.2669 -0.3952
  101MOL    H1132211   6.859   3.925   0.329 -0.6523  1.3648  0.2083
  101MOL    H1232212   7.071   3.840   0.276 -1.4108 -0.2146  0.7254
  101MOL    H1332213   7.197   3.705   0.074 -0.3813  1.3610  1.1544
  101MOL    H1432214   7.146   3.724  -0.087  2.1869  1.8229 -1.2889
  101MOL    H1532215   6.987   3.895  -0.155 -0.3910 -1.1600  0.2494
  101MOL    H1632216   6.783   3.990  -0.097 -0.1753  0.3381  0.3097
  101MOL    H1732217   6.667   4.139   0.128  0.5123  1.2690  2.2035
  101MOL    C1832218   7.293   3.879  -0.021  0.2080  0.1192 -0.0069
  101MOL    C1932219   7.419   3.813  -0.066  0.6988 -0.4308 -0.7748
  101MOL    C2032220   7.440   3.776  -0.200 -0.3763 -0.3051 -0.3543
  101MOL    C2132221   7.569   3.724  -0.238 -0.0829 -0.0461 -0.3105
  101MOL    C2232222   7.665   3.691  -0.139 -1.2518  0.0605 -0.1916
  101MOL    C2332223   7.789   3.618  -0.173  0.6407  0.3849  0.1011
  101MOL    C2432224   7.642   3.729  -0.003 -0.2022  0.3785  0.1396
  101MOL    C2532225   7.521   3.791   0.026  0.3629  0.3604  0.2408
  101MOL    H2632226   7.267   3.939  -0.108 -0.9243  0.0287  0.2636
  101MOL    H2732227   7.311   3.940   0.068  0.7487  1.1273 -0.7894
  101MOL    H2832228   7.361   3.777  -0.275  0.1603 -0.8855 -0.9405
  101MOL    H2932229   7.578   3.692  -0.341 -0.8515 -0.9941 -0.0960
  101MOL    H3032230   7.770   3.547  -0.253 -0.5039  0.4543  0.3061
  101MOL    H3132231   7.836   3.563  -0.091 -0.7762  0.4932  1.0074
  101MOL    H3232232   7.717   3.715   0.073  1.4969 -2.9543 -2.0299
  101MOL    H3332233   7.503   3.828   0.126 -0.9716 -0.0187  0.1598
  101MOL    C3432234   7.905   3.710  -0.206  0.0913  0.1306 -0.4263
  101MOL    C3532235   8.029   3.635  -0.238 -0.8403  0.9713  0.3516
  101MOL    C3632236   8.116   3.602  -0.135  0.0458  0.3183  0.0511
  101MOL    C3732237   8.240   3.550  -0.165  0.2103  0.4617  0.6330
  101MOL    C3832238   8.268   3.497  -0.290 -0.2651  0.1759  0.7389
  101MOL    C3932239   8.397   3.424  -0.318  0.5188 -0.1281 -0.1417
  101MOL    C4032240   8.178   3.526  -0.398  0.2980  0.0013 -0.2509
  101MOL    C4132241   8.050   3.587  -0.373 -0.3229 -0.1990 -0.0703
  101MOL    H4232242   7.925   3.793  -0.138 -1.0436  0.2214 -0.1852
  101MOL    H4332243   7.872   3.764  -0.294 -1.2251  0.3506  0.1870
  101MOL    H4432244   8.092   3.640  -0.036  2.3297 -0.4969  0.9458
  101MOL    H4532245   8.311   3.549  -0.084 -0.8536 -1.1523  1.5857
  101MOL    H4632246   8.443   3.400  -0.222  2.5443 -0.1899 -1.1019
  101MOL    H4732247   8.390   3.325  -0.363 -0.0275  0.7972 -2.1318
  101MOL    H4832248   8.198   3.483  -0.495 -1.0796  1.1283 -1.0469
  101MOL    H4932249   7.980   3.602  -0.454 -0.7556 -0.3382  0.2825
  101MOL    C5032250   8.496   3.519  -0.381 -0.5634 -0.4624 -0.1355
  101MOL    C5132251   8.640   3.466  -0.393 -0.1392  0.7554 -0.0878
  101MOL    C5232252   8.692   3.449  -0.519  0.5088  1.0380  0.1326
  101MOL    C5332253   8.832   3.428  -0.530 -0.2896  0.1033  0.5694
  101MOL    C5432254   8.913   3.407  -0.412  0.0933 -0.0001 -0.1926
  101MOL    C5532255   9.065   3.394  -0.423  0.4665  0.1102  0.6130
  101MOL    C5632256   8.853   3.419  -0.283  0.4107  0.7447 -0.1806
  101MOL    C5732257   8.713   3.441  -0.271 -0.0165  0.1258 -0.0238
  101MOL    H5832258   8.507   3.608  -0.318  1.6978 -1.0012  0.2727
  101MOL    H5932259   8.447   3.544  -0.476 -0.2603 -0.7051 -0.3555
  101MOL    H6032260   8.646   3.480  -0.612 -0.1258  2.6202  0.9554
  101MOL    H6132261   8.874   3.420  -0.629 -0.9695 -0.1299  0.2969
  101MOL    H6232262   9.106   3.466  -0.494 -0.7175  0.6740  0.4869
  101MOL    H6332263   9.116   3.424  -0.331 -0.5291 -1.1296  1.5914
  101MOL    H6432264   8.917   3.387  -0.203  0.4261 -0.1016 -0.5217
  101MOL    H6532265   8.666   3.463  -0.177 -3.4006 -2.4156 -1.0196
  101MOL    C6632266   9.105   3.254  -0.476 -0.5154  0.8622 -0.4113
  101MOL    C6732267   9.252   3.234  -0.504 -0.6858 -0.3725  0.0749
  101MOL    C6832268   9.353   3.241  -0.400 -0.0418 -1.0821 -0.0560
  101MOL    C6932269   9.483   3.233  -0.436 -0.3855  0.7316 -0.2618
  101MOL    C7032270   9.526   3.204  -0.565 -0.4228 -0.5507  0.2621
  101MOL    C7132271   9.679   3.198  -0.590 -0.0870 -0.2234  0.9811
  101MOL    C7232272   9.426   3.191  -0.668 -0.8887  0.2714  0.5809
  101MOL    C7332273   9.292   3.208  -0.634  0.0513 -0.2868 -0.7759
  101MOL    H7432274   9.046   3.251  -0.567 -2.1182  2.0815  0.5510
  101MOL    H7532275   9.079   3.177  -0.403 -0.8297  1.2621 -0.0932
  101MOL    H7632276   9.320   3.267  -0.301 -0.8390 -1.3881 -0.2319
  101MOL    H7732277   9.559   3.247  -0.361 -0.4680  2.3385 -0.4589
  101MOL    H7832278   9.724   3.217  -0.492 -0.0143  0.2062  0.8622
  101MOL    H7932279   9.722   3.272  -0.656  1.1722 -0.8932  1.0347
  101MOL    H8032280   9.455   3.168  -0.769 -0.8045  2.0836  0.1884
  101MOL    H8132281   9.213   3.208  -0.708  0.6811 -0.5569 -1.4621
  101MOL    C8232282   9.724   3.058  -0.632  0.0479  0.5405 -0.0411
  101MOL    C8332283   9.872   3.054  -0.660  0.5216  0.4867  0.2712
  101MOL    C8432284   9.962   3.050  -0.555  0.0155  0.5398  0.5939
  101MOL    C8532285  10.099   3.038  -0.576  0.6911  0.5772  0.1275
  101MOL    C8632286  10.143   3.033  -0.708 -0.7078  1.0091  0.3510
  101MOL    C8732287  10.290   3.020  -0.731  0.1531  0.4218 -0.0161
  101MOL    C8832288  10.058   3.060  -0.815  0.3429  1.1794  0.2133
  101MOL    C8932289   9.923   3.066  -0.790  0.7506 -0.2062 -0.3609
  101MOL    H9032290   9.667   3.019  -0.716  0.3853  0.2544 -0.1373
  101MOL    H9132291   9.697   2.984  -0.557  0.6821  1.8929  1.5468
  101MOL    H9232292   9.931   3.041  -0.451  1.7717 -1.5747  0.9717
  101MOL    H9332293  10.172   3.019  -0.499  1.7367  2.0908 -0.4728
  101MOL    H9432294  10.338   3.096  -0.670  2.0250  0.7182 -1.7737
  101MOL    H9532295  10.316   3.043  -0.835 -2.1352  0.1075 -0.6900
  101MOL    H9632296  10.094   3.051  -0.917  1.3705  0.2114  0.6404
  101MOL    H9732297   9.859   3.068  -0.877 -0.0107  0.0538  0.2039
  101MOL    C9832298  10.352   2.881  -0.678  0.2758 -0.2777 -0.3244
  101MOL    C9932299  10.502   2.862  -0.701  0.4295 -0.5075  0.0083
  101MOL   C10032300  10.601   2.945  -0.645 -0.0882 -0.3594 -0.3659
  101MOL   C10132301  10.736   2.930  -0.670  0.2954  0.1828 -0.0225
  101MOL   C10232302  10.782   2.829  -0.749 -0.4793  0.4165 -0.0011
  101MOL   C10332303  10.925   2.811  -0.764 -0.3760  0.0567  0.4756
  101MOL   C10432304  10.688   2.738  -0.808 -0.3317 -0.4038  0.4478
  101MOL   C10532305  10.549   2.758  -0.782 -0.5382 -0.2422 -0.4336
  101MOL   H10632306  10.292   2.802  -0.722 -0.1545 -0.9359  1.4043
  101MOL   H10732307  10.326   2.876  -0.572 -1.1459 -2.6810 -0.7502
  101MOL   H10832308  10.563   3.025  -0.584 -1.3978 -0.2795 -1.2634
  101MOL   H10932309  10.801   3.010  -0.641 -2.5351  1.3616  3.4028
  101MOL   H11032310  10.957   2.712  -0.733  1.2164 -0.2035 -1.8597
  101MOL   H11132311  10.944   2.826  -0.870 -4.2958 -0.7710 -0.4117
  101MOL   H11232312  10.721   2.652  -0.865  2.5907  0.6830  0.4186
  101MOL   H11332313  10.482   2.691  -0.833 -0.1503 -1.4129  0.5830
  101MOL   C11432314  11.020   2.896  -0.683 -0.5372 -0.1161 -0.1851
  101MOL   C11532315  11.167   2.869  -0.717 -0.6343  0.3853 -0.0114
  101MOL   C11632316  11.222   2.901  -0.844 -0.5144  0.3600 -0.5618
  101MOL   C11732317  11.362   2.895  -0.862  0.1666 -0.7270 -1.1489
  101MOL   C11832318  11.447   2.837  -0.759 -0.0164  0.2534 -0.8365
  101MOL   C11932319  11.583   2.789  -0.789 -0.5457  0.4842  0.4747
  101MOL   C12032320  11.390   2.803  -0.639 -0.2113  0.2175  0.0147
  101MOL   C12132321  11.252   2.828  -0.611 -0.3635 -0.5632 -0.8768
  101MOL   H12232322  11.007   2.885  -0.575 -0.0955 -1.5764 -0.2621
  101MOL   H12332323  11.003   3.000  -0.709 -1.4106 -0.6468 -1.8214
  101MOL   H12432324  11.152   2.946  -0.913 -0.1795  0.2691 -0.9646
  101MOL   H12532325  11.409   2.914  -0.958  3.6777 -2.2887  0.1806
  101MOL   H12632326  11.619   2.717  -0.715 -0.7544 -0.8896 -0.7552
  101MOL   H12732327  11.591   2.743  -0.888 -0.1435  0.1646  0.6514
  101MOL   H12832328  11.457   2.762  -0.565 -0.9227 -1.4160 -0.2285
  101MOL   H12932329  11.222   2.792  -0.514  1.7178 -2.0820 -0.7578
  101MOL   C13032330  11.699   2.892  -0.798  0.5233 -0.6822 -0.6924
  101MOL   C13132331  11.838   2.837  -0.826 -0.3171  0.5042 -0.1300
  101MOL   C13232332  11.901   2.765  -0.725  0.5609 -0.1820 -0.5664
  101MOL   C13332333  12.022   2.690  -0.753  0.3030 -0.1486  0.0772
  101MOL   C13432334  12.080   2.701  -0.883 -0.5101 -0.4204  0.2419
  101MOL   C13532335  12.215   2.633  -0.911  0.0656  0.1878  0.2772
  101MOL   C13632336  12.017   2.789  -0.975 -0.0208 -0.5191  0.4495
  101MOL   C13732337  11.889   2.845  -0.957  0.0224 -0.2418  0.1161
  101MOL   H13832338  11.724   2.950  -0.709 -0.7348 -2.9201  1.1871
  101MOL   H13932339  11.665   2.958  -0.877  0.5931 -0.4696 -0.5466
  101MOL   H14032340  11.851   2.770  -0.629 -1.3538 -3.5085 -1.2971
  101MOL   H14132341  12.083   2.637  -0.681  2.4390  1.4089 -0.5296
  101MOL   H14232342  12.248   2.578  -0.822  0.3568  2.3699  1.5383
  101MOL   H14332343  12.192   2.566  -0.994  0.5625 -0.0494  0.3282
  101MOL   H14432344  12.057   2.809  -1.074 -2.3552  0.3497 -0.3619
  101MOL   H14532345  11.834   2.894  -1.036 -0.0065  0.5029  0.5961
  101MOL   C14632346  12.323   2.730  -0.954  0.1236  0.0448 -0.4092
  101MOL   C14732347  12.455   2.657  -0.982  0.6650 -0.1045 -0.5807
  101MOL   C14832348  12.537   2.625  -0.874  0.6199  0.5473 -0.3159
  101MOL   C14932349  12.667   2.578  -0.899 -0.5422 -0.0331 -0.0871
  101MOL   C15032350  12.700   2.539  -1.031  0.5275 -0.2073 -0.0402
  101MOL   C15132351  12.835   2.472  -1.065  0.2470 -0.1764  0.0550
  101MOL   C15232352  12.605   2.556  -1.137 -0.1132 -0.4707 -0.3721
  101MOL   C15332353  12.487   2.620  -1.113 -0.3993  0.1971 -0.2915
  101MOL   H15432354  12.329   2.807  -0.877 -1.5693  2.3906 -2.5414
  101MOL   H15532355  12.296   2.787  -1.043  1.5675 -1.2764 -1.7329
  101MOL   H15632356  12.501   2.656  -0.778  0.9662  0.5602 -0.1891
  101MOL   H15732357  12.733   2.553  -0.817 -0.2326 -0.4974 -0.4792
  101MOL   H15832358  12.853   2.393  -0.992  0.5407 -0.7109 -0.5840
  101MOL   H15932359  12.832   2.423  -1.163 -1.7818  2.4761 -1.2730
  101MOL   H16032360  12.632   2.540  -1.240 -0.0306  0.5021 -0.5051
  101MOL   H16132361  12.439   2.663  -1.199 -1.8550 -0.2899  0.2726
  101MOL   C16232362  12.953   2.568  -1.066  0.0296 -0.5688 -0.1642
  101MOL   C16332363  13.079   2.487  -1.106 -1.0837 -0.3877  0.0922
  101MOL   C16432364  13.109   2.464  -1.238  0.7422  0.2255  0.7008
  101MOL   C16532365  13.221   2.384  -1.275  0.7273  0.3899  0.3065
  101MOL   C16632366  13.315   2.348  -1.176 -0.3983  0.3305  0.2212
  101MOL   C16732367  13.448   2.282  -1.212 -0.6327  0.2724  0.0158
  101MOL   C16832368  13.282   2.370  -1.039  0.3013 -0.2868  0.0968
  101MOL   C16932369  13.159   2.432  -1.006 -0.0258 -0.3953  0.7079
  101MOL   H17032370  12.973   2.615  -0.969  0.9390 -0.6604 -0.3000
  101MOL   H17132371  12.940   2.647  -1.139  0.1252 -0.0284  0.4042
  101MOL   H17232372  13.048   2.494  -1.322 -1.0021 -1.2746  1.4065
  101MOL   H17332373  13.239   2.367  -1.381  1.7210  1.0901  0.3549
  101MOL   H17432374  13.463   2.213  -1.129  2.5811  0.6480 -0.1861
  101MOL   H17532375  13.449   2.231  -1.308 -0.0405  1.2117 -0.4847
  101MOL   H17632376  13.351   2.331  -0.966 -0.1194  0.9398  1.1685
  101MOL   H17732377  13.116   2.454  -0.910 -3.5604 -0.4167 -0.7908
  101MOL   C17832378  13.560   2.384  -1.205  0.0048  0.0280  0.1821
  101MOL   C17932379  13.695   2.323  -1.227 -0.7391  0.7652 -1.6105
  101MOL   C18032380  13.756   2.325  -1.350 -0.3549 -0.0298  0.2296
  101MOL   C18132381  13.884   2.269  -1.368 -0.3577  0.8033 -0.4847
  101MOL   C18232382  13.948   2.191  -1.266 -0.0912  0.4313 -0.1504
  101MOL   C18332383  14.084   2.123  -1.287  0.5087  0.1457 -0.1544
  101MOL   C18432384  13.878   2.178  -1.139 -0.2314  0.4966  0.3907
  101MOL   C18532385  13.752   2.246  -1.121 -0.5562  0.0540 -0.6478
  101MOL   H18632386  13.567   2.436  -1.110 -0.3484  0.5050 -0.0518
  101MOL   H18732387  13.542   2.459  -1.281  3.0409  0.5104 -0.1337
  101MOL   H18832388  13.717   2.383  -1.432  2.1363  0.0928 -0.9203
  101MOL   H18932389  13.941   2.283  -1.459  1.3134  0.7609  0.5206
  101MOL   H19032390  14.078   2.027  -1.235 -0.5415 -0.0949 -0.6959
  101MOL   H19132391  14.111   2.102  -1.391 -0.1798 -0.2322 -0.2603
  101MOL   H19232392  13.916   2.114  -1.061 -2.0399 -0.2820  0.6665
  101MOL   H19332393  13.698   2.223  -1.030  1.5245  1.3180  0.9646
  101MOL   C19432394  14.195   2.206  -1.230 -1.1677  0.1030  0.1023
  101MOL   C19532395  14.333   2.150  -1.263 -0.3201  0.3291 -0.3791
  101MOL   C19632396  14.375   2.015  -1.236  0.1425  0.2981  0.2955
  101MOL   C19732397  14.507   1.976  -1.266  0.0235  1.4505 -0.3817
  101MOL   C19832398  14.601   2.070  -1.320 -0.3149  0.4921 -0.5522
  101MOL   C19932399  14.745   2.031  -1.349 -0.6847  0.8692 -0.3288
  101MOL   C20032400  14.559   2.203  -1.343  0.1279  0.2647  0.5952
  101MOL   C20132401  14.426   2.243  -1.310 -0.4426 -0.3886 -0.2351
  101MOL   H20232402  14.202   2.223  -1.122 -1.2109 -0.2065  0.1550
  101MOL   H20332403  14.187   2.306  -1.272  4.6181  1.0070  0.7601
  101MOL   H20432404  14.303   1.946  -1.193  1.4635 -1.2728  0.0479
  101MOL   H20532405  14.534   1.872  -1.252 -0.6864  1.1518 -1.2026
  101MOL   H20632406  14.754   1.950  -1.277 -0.9192 -0.4339 -1.7383
  101MOL   H20732407  14.747   1.983  -1.447 -0.6661  0.0450  0.0672
  101MOL   H20832408  14.630   2.278  -1.373 -2.1462  2.3912  0.4131
  101MOL   H20932409  14.403   2.348  -1.322  1.0326  0.0941  1.0299
  101MOL   C21032410  14.857   2.129  -1.312  1.0279 -0.4327 -0.5844
  101MOL   C21132411  14.996   2.068  -1.331 -0.8305  0.3104 -0.2738
  101MOL   C21232412  15.019   1.924  -1.334  0.0638 -0.0050  0.3745
  101MOL   C21332413  15.153   1.877  -1.351  0.3311 -0.6851 -0.1134
  101MOL   C21432414  15.257   1.963  -1.345 -0.1070 -1.0789 -0.3706
  101MOL   C21532415  15.396   1.913  -1.345  0.7422 -0.4669  0.3314
  101MOL   C21632416  15.236   2.102  -1.325 -0.8995 -0.1753 -0.9314
  101MOL   C21732417  15.110   2.158  -1.317  0.2310  0.5251  0.2094
  101MOL   H21832418  14.838   2.175  -1.215  0.6721  0.6368 -1.1504
  101MOL   H21932419  14.841   2.220  -1.370  0.8453 -0.7782 -1.0819
  101MOL   H22032420  14.938   1.854  -1.348  1.5598 -1.6618 -0.2064
  101MOL   H22132421  15.176   1.773  -1.363  2.6275 -0.7509  3.9430
  101MOL   H22232422  15.448   1.987  -1.285  0.4488  0.6263 -0.7514
  101MOL   H22332423  15.413   1.814  -1.302  1.3230 -0.2791  0.5420
  101MOL   H22432424  15.325   2.163  -1.319  1.1356 -3.2094  2.0642
  101MOL   H22532425  15.091   2.264  -1.311 -1.4419  0.2670 -0.3841
  101MOL   C22632426  15.456   1.922  -1.486  0.0125  0.3533  0.1290
  101MOL   C22732427  15.599   1.880  -1.487 -0.5139  0.1695  0.2202
  101MOL   C22832428  15.625   1.744  -1.511  0.6419 -0.2038 -0.1135
  101MOL   C22932429  15.757   1.694  -1.515  0.1233  0.1878 -0.4841
  101MOL   C23032430  15.861   1.781  -1.467  0.4044  0.5813  0.6761
  101MOL   C23132431  15.996   1.724  -1.462  0.0314  0.5259  0.5413
  101MOL   C23232432  15.832   1.919  -1.452 -0.4298 -1.1177 -0.0056
  101MOL   C23332433  15.704   1.972  -1.466 -0.1906 -0.1200  0.5454
  101MOL   H23432434  15.458   2.021  -1.532  1.6050 -0.0434 -0.6896
  101MOL   H23532435  15.396   1.856  -1.548 -0.1537  1.3232 -0.7773
  101MOL   H23632436  15.547   1.672  -1.531  1.0386 -0.4689 -0.7336
  101MOL   H23732437  15.779   1.588  -1.525 -4.1222 -1.1821  2.9495
  101MOL   H23832438  16.042   1.785  -1.384 -1.3404  0.8717  1.0931
  101MOL   H23932439  15.990   1.622  -1.423 -0.5157  0.3273 -0.0525
  101MOL   H24032440  15.915   1.980  -1.420 -1.9483  0.0779  1.7319
  101MOL   H24132441  15.678   2.075  -1.448 -0.4599 -0.1173  0.1684
  101MOL   C24232442  16.061   1.740  -1.600  0.5393 -0.0269  0.3087
  101MOL   C24332443  16.200   1.688  -1.610  0.0130 -0.4835  0.5196
  101MOL   C24432444  16.229   1.553  -1.659  1.6105 -0.4046 -0.2473
  101MOL   C24532445  16.359   1.505  -1.673  0.2057  0.5655  0.0037
  101MOL   C24632446  16.459   1.600  -1.644  0.0753  0.1265  0.5175
  101MOL   C24732447  16.604   1.556  -1.667  0.1289 -0.3025  0.0590
  101MOL   C24832448  16.436   1.727  -1.594  0.0713 -0.5751 -0.2088
  101MOL   C24932449  16.309   1.775  -1.578 -0.4224 -0.2436 -0.0450
  101MOL   H25032450  15.990   1.693  -1.669  0.6233  0.2932  0.0018
  101MOL   H25132451  16.071   1.848  -1.615  1.2249 -0.3379 -1.5560
  101MOL   H25232452  16.142   1.493  -1.679  0.9815  0.6370 -0.6880
  101MOL   H25332453  16.380   1.408  -1.715 -0.3481 -0.2429  1.5864
  101MOL   H25432454  16.663   1.624  -1.605 -0.5091  0.1130  0.2152
  101MOL   H25532455  16.608   1.453  -1.631 -0.1131  0.0819  1.2036
  101MOL   H25632456  16.520   1.793  -1.577 -0.7850  0.5135 -0.1060
  101MOL   H25732457  16.292   1.875  -1.542 -1.8103  0.0915 -1.5389
  101MOL   C25832458  16.652   1.568  -1.815 -0.7149  0.1155  0.3147
  101MOL   C25932459  16.800   1.525  -1.834  0.6440 -1.0093  0.0078
  101MOL   C26032460  16.864   1.437  -1.741 -0.1149  0.3496  0.0048
  101MOL   C26132461  17.003   1.410  -1.752 -0.1896 -0.2227  0.6224
  101MOL   C26232462  17.075   1.479  -1.856 -0.2786  0.5503  0.6264
  101MOL   C26332463  17.224   1.446  -1.869  0.1501  0.1336 -0.0924
  101MOL   C26432464  17.009   1.562  -1.955  0.6064  0.5182  0.5869
  101MOL   C26532465  16.874   1.592  -1.934  0.0058 -0.5695 -0.2463
  101MOL   H26632466  16.657   1.675  -1.839 -0.6315  0.2238  0.8070
  101MOL   H26732467  16.591   1.517  -1.889 -0.4802  1.0504 -0.5492
  101MOL   H26832468  16.800   1.393  -1.665  0.9308 -0.8971  0.1741
  101MOL   H26932469  17.052   1.337  -1.688 -2.0358 -0.6399  1.5822
  101MOL   H27032470  17.284   1.538  -1.871 -2.9124  2.3811  4.0906
  101MOL   H27132471  17.257   1.402  -1.775 -0.8655 -0.4025  0.0159
  101MOL   H27232472  17.062   1.604  -2.040  1.6403 -0.5669  0.6878
  101MOL   H27332473  16.829   1.658  -2.007 -1.4108 -1.9756 -0.6515
  101MOL   C27432474  17.263   1.352  -1.988  0.2013  0.7412 -0.4294
  101MOL   C27532475  17.412   1.334  -1.999 -0.1554 -0.3093  0.1061
  101MOL   C27632476  17.491   1.414  -2.083 -0.0411 -0.6097  0.0737
  101MOL   C27732477  17.629   1.403  -2.077 -0.2276  0.4837 -0.0286
  101MOL   C27832478  17.697   1.302  -1.998  0.4323  0.1376 -0.3025
  101MOL   C27932479  17.844   1.287  -2.000 -0.1077 -0.6588  0.0978
  101MOL   C28032480  17.614   1.219  -1.920  0.0131 -0.2470 -0.2487
  101MOL   C28132481  17.473   1.239  -1.918 -0.4374  0.1527 -0.8055
  101MOL   H28232482  17.210   1.258  -1.974  0.6543  0.1409 -2.5878
  101MOL   H28332483  17.221   1.384  -2.084  0.9882  0.5194 -0.8462
  101MOL   H28432484  17.442   1.495  -2.134 -3.3850 -1.0278  2.4228
  101MOL   H28532485  17.691   1.463  -2.143  0.7712  1.0346  1.3941
  101MOL   H28632486  17.892   1.385  -2.003  0.4121 -0.8719  1.2300
  101MOL   H28732487  17.875   1.256  -1.900  2.3755 -0.1315 -0.4590
  101MOL   H28832488  17.652   1.135  -1.863  0.3242 -0.5678 -0.9203
  101MOL   H28932489  17.416   1.177  -1.851 -0.3167  0.0304 -0.8148
  101MOL   C29032490  17.890   1.189  -2.107  0.4495  1.0280  0.6035
  101MOL   C29132491  18.042   1.155  -2.109  0.7906  0.2166 -0.0497
  101MOL   C29232492  18.118   1.222  -2.208  0.2158  0.8308  0.1476
  101MOL   C29332493  18.253   1.205  -2.217 -0.7037  0.4072 -0.4679
  101MOL   C29432494  18.319   1.118  -2.124  0.2862 -0.7827  0.1485
  101MOL   C29532495  18.473   1.121  -2.129 -0.7413  0.9426 -0.0156
  101MOL   C29632496  18.248   1.052  -2.026 -0.2815  0.3251 -0.3612
  101MOL   C29732497  18.103   1.070  -2.016  0.0972 -0.4610 -0.1786
  101MOL   H29832498  17.857   1.220  -2.206  1.9361 -1.1308 -0.6262
  101MOL   H29932499  17.831   1.099  -2.096  0.8859  0.8373  1.4235
  101MOL   H30032500  18.077   1.296  -2.275  0.9581  1.1521  0.0479
  101MOL   H30132501  18.314   1.257  -2.289 -1.6111 -0.0938 -1.6142
  101MOL   H30232502  18.508   1.212  -2.178  2.2102 -0.6329 -0.9336
  101MOL   H30332503  18.513   1.140  -2.030  1.2151  0.1984 -0.6491
  101MOL   H30432504  18.305   0.995  -1.954  0.0816 -0.1147 -1.0024
  101MOL   H30532505  18.050   1.030  -1.931  2.9195 -0.7522  1.5175
  101MOL   C30632506  18.532   0.999  -2.207 -0.5484 -0.2196 -0.1023
  101MOL   C30732507  18.686   0.984  -2.204 -0.2113 -0.2679 -1.0306
  101MOL   C30832508  18.747   0.876  -2.139 -0.3446 -0.2229  0.5184
  101MOL   C30932509  18.892   0.866  -2.137  0.3921 -0.6011  0.6378
  101MOL   C31032510  18.972   0.960  -2.205 -0.2413  0.0357 -0.0305
  101MOL   C31132511  19.122   0.946  -2.222 -0.6485  0.1810  0.4876
  101MOL   C31232512  18.907   1.054  -2.278  0.1817 -0.2132 -0.4318
  101MOL   C31332513  18.768   1.077  -2.263 -0.4767 -0.2721  0.4757
  101MOL   H31432514  18.503   1.010  -2.312 -1.5781  0.7206  0.2838
  101MOL   H31532515  18.491   0.907  -2.166 -1.3970 -0.1846 -0.8649
  101MOL   H31632516  18.699   0.797  -2.082 -0.4406  0.4694  1.4030
  101MOL   H31732517  18.929   0.786  -2.074  0.9937 -0.1058  0.9143
  101MOL   H31832518  19.159   0.978  -2.319 -0.3365 -2.5629 -0.3173
  101MOL   H31932519  19.168   1.018  -2.153 -2.1040  2.5857 -0.9562
  101MOL   H32032520  18.959   1.135  -2.328 -0.4658  0.9470  0.7602
  101MOL   H32132521  18.722   1.158  -2.318 -0.0855  0.0661  0.6405
  101MOL   H32232522  19.141   0.841  -2.200  3.4056  0.7418  0.0277
  102MOL     C132523   6.252   3.084   0.991  0.3439 -0.1205  0.0012
  102MOL     C232524   6.108   3.142   0.978  0.4528 -0.2645 -0.4478
  102MOL     C332525   6.018   3.125   1.086  0.8291  0.2969 -0.3178
  102MOL     C432526   5.898   3.197   1.080 -0.7888  0.2560 -0.0819
  102MOL     C532527   5.871   3.288   0.976 -0.2661  0.0544 -0.0994
  102MOL     C632528   5.746   3.373   0.985  0.5540 -0.1842  0.4816
  102MOL     C732529   5.956   3.300   0.865  0.2052 -0.0781 -0.0433
  102MOL     C832530   6.073   3.223   0.866 -0.0949  0.3803  0.1174
  102MOL     H932531   6.252   2.976   0.997  0.7427 -0.1434 -0.3818
  102MOL    H1032532   6.303   3.111   0.898  0.4377  1.2631  0.4323
  102MOL    H1132533   6.028   3.061   1.172 -2.3426  0.2377  0.0692
  102MOL    H1232534   5.829   3.193   1.163 -1.2490  0.3677 -0.4541
  102MOL    H1332535   5.775   3.439   1.067  1.0415 -0.3126  0.4155
  102MOL    H1432536   5.718   3.421   0.891 -1.9734 -1.4513  0.5375
  102MOL    H1532537   5.942   3.372   0.786  1.6595 -0.6842 -0.8714
  102MOL    H1632538   6.150   3.226   0.791  0.9658  0.9839  1.2057
  102MOL    H1732539   6.320   3.132   1.061  1.1407  0.5620 -1.2031
  102MOL    C1832540   5.624   3.286   1.014 -0.0610  0.1213  0.2922
  102MOL    C1932541   5.509   3.372   1.064  0.3061 -0.4190 -0.1780
  102MOL    C2032542   5.519   3.429   1.190  0.3928 -0.2916  0.0677
  102MOL    C2132543   5.408   3.493   1.248 -0.2658  0.1893 -0.7151
  102MOL    C2232544   5.287   3.503   1.180  0.6452  0.1478 -0.3964
  102MOL    C2332545   5.167   3.576   1.238 -0.0709 -0.5180 -0.3114
  102MOL    C2432546   5.277   3.445   1.055 -0.0702  0.7297  0.0223
  102MOL    C2532547   5.387   3.382   0.995 -0.0713  0.1704 -0.7229
  102MOL    H2632548   5.588   3.232   0.927  2.8813 -0.9152 -0.3540
  102MOL    H2732549   5.635   3.210   1.092 -0.3379 -1.5932 -1.3271
  102MOL    H2832550   5.608   3.425   1.251  0.8358  2.0463 -0.3683
  102MOL    H2932551   5.411   3.543   1.344 -0.7926 -0.3616 -0.4035
  102MOL    H3032552   5.148   3.658   1.169 -0.3615 -3.4347 -3.8723
  102MOL    H3132553   5.196   3.626   1.331 -0.6233 -0.7751  0.0029
  102MOL    H3232554   5.181   3.450   1.006 -0.9406  1.9612  1.8308
  102MOL    H3332555   5.376   3.330   0.902  0.8127 -1.2631 -0.0423
  102MOL    C3432556   5.043   3.487   1.251  0.3669  0.0748  0.3812
  102MOL    C3532557   4.925   3.576   1.270 -0.2126 -0.0383 -0.3983
  102MOL    C3632558   4.874   3.593   1.400 -0.4110 -0.8371 -0.7698
  102MOL    C3732559   4.762   3.671   1.420  0.4139  0.1098 -0.3494
  102MOL    C3832560   4.697   3.733   1.308  0.2530  0.0124  0.1975
  102MOL    C3932561   4.573   3.815   1.339  0.3078  0.5174 -0.0931
  102MOL    C4032562   4.748   3.717   1.175 -0.3234  0.2047  0.6415
  102MOL    C4132563   4.866   3.643   1.163  0.1044 -0.5701  0.7864
  102MOL    H4232564   5.063   3.422   1.336 -1.0636  0.0648  0.7238
  102MOL    H4332565   5.030   3.408   1.176  0.6898  0.9630 -0.6363
  102MOL    H4432566   4.915   3.535   1.481 -0.4986  2.5534  1.7635
  102MOL    H4532567   4.718   3.686   1.518 -2.5391  0.9183 -1.7517
  102MOL    H4632568   4.500   3.813   1.258  1.3797  0.7112 -1.0889
  102MOL    H4732569   4.523   3.770   1.424  0.3236  0.5634 -0.0595
  102MOL    H4832570   4.706   3.767   1.088  0.5759 -1.5095 -0.8204
  102MOL    H4932571   4.912   3.630   1.066 -1.2922 -0.1108  0.0534
  102MOL    C5032572   4.597   3.963   1.376 -0.2207 -0.4621 -1.1151
  102MOL    C5132573   4.470   4.046   1.391  0.2349  0.2504 -0.4888
  102MOL    C5232574   4.433   4.095   1.522  0.1490 -0.7398  0.6073
  102MOL    C5332575   4.312   4.170   1.529 -0.4683  0.0373 -0.2658
  102MOL    C5432576   4.237   4.203   1.409  0.6300 -0.0475 -0.2692
  102MOL    C5532577   4.104   4.278   1.421 -0.6097  0.4664 -0.1089
  102MOL    C5632578   4.285   4.165   1.286 -0.2108  0.1742 -0.7477
  102MOL    C5732579   4.395   4.082   1.279 -0.1689  0.4188  0.3378
  102MOL    H5832580   4.662   4.008   1.300 -0.1500  0.9635 -0.2310
  102MOL    H5932581   4.665   3.964   1.461  0.0957 -1.5067 -1.3531
  102MOL    H6032582   4.490   4.059   1.607  1.6786  0.1960 -0.0065
  102MOL    H6132583   4.273   4.212   1.621  1.5131  1.6699 -0.1284
  102MOL    H6232584   4.061   4.277   1.320  0.0808 -1.6392 -0.4065
  102MOL    H6332585   4.039   4.217   1.484  2.2665 -2.1555  0.4520
  102MOL    H6432586   4.230   4.190   1.196 -0.3647  0.7907 -0.4866
  102MOL    H6532587   4.434   4.048   1.184  0.1631 -2.3805  1.4236
  102MOL    C6632588   4.113   4.418   1.477  0.1301  0.4041  0.3475
  102MOL    C6732589   3.990   4.503   1.451  0.0581 -0.1643 -0.1817
  102MOL    C6832590   4.002   4.607   1.355 -0.6642  0.0557 -0.0685
  102MOL    C6932591   3.880   4.666   1.320 -1.2655 -0.2990  0.4336
  102MOL    C7032592   3.757   4.641   1.384 -0.4799 -0.4641  0.0942
  102MOL    C7132593   3.633   4.726   1.359 -0.4244  0.5408 -0.1437
  102MOL    C7232594   3.747   4.535   1.479 -0.0807  0.6171  0.8752
  102MOL    C7332595   3.866   4.469   1.511 -0.3573 -0.0856  0.5750
  102MOL    H7432596   4.201   4.472   1.442  1.1476 -0.4555  1.5229
  102MOL    H7532597   4.131   4.400   1.583  2.1126 -0.1120 -0.0513
  102MOL    H7632598   4.100   4.633   1.317 -0.5058  1.2848  1.1285
  102MOL    H7732599   3.879   4.742   1.243  0.6798 -0.6667  0.0066
  102MOL    H7832600   3.646   4.798   1.278 -2.1862 -0.2136 -1.1141
  102MOL    H7932601   3.614   4.769   1.457  1.5785 -0.0113  0.5248
  102MOL    H8032602   3.650   4.517   1.523 -0.3579  0.0075  0.0298
  102MOL    H8132603   3.868   4.393   1.589 -0.2775 -0.8001 -0.1138
  102MOL    C8232604   3.522   4.636   1.296 -0.1581  0.6159 -0.1649
  102MOL    C8332605   3.393   4.706   1.267  0.0340  0.1449 -0.1993
  102MOL    C8432606   3.334   4.778   1.368  0.6303 -0.1745 -0.5353
  102MOL    C8532607   3.216   4.847   1.359 -0.3202  0.0493 -0.2394
  102MOL    C8632608   3.150   4.855   1.231  0.3004  0.3908  0.1376
  102MOL    C8732609   3.022   4.931   1.214  0.7687  0.6767  0.2730
  102MOL    C8832610   3.214   4.793   1.122 -0.3810 -0.1313  0.0228
  102MOL    C8932611   3.341   4.726   1.138 -0.0707 -0.1484 -0.5414
  102MOL    H9032612   3.508   4.547   1.358 -0.3844  3.1412  3.5498
  102MOL    H9132613   3.568   4.600   1.204  0.5532 -0.3901  0.5592
  102MOL    H9232614   3.391   4.774   1.460  0.0085 -0.9923 -0.1750
  102MOL    H9332615   3.182   4.903   1.445  1.0982  1.2266 -0.4342
  102MOL    H9432616   2.991   4.939   1.109  0.2129 -0.9505  0.2963
  102MOL    H9532617   3.043   5.034   1.244  3.0993  0.5832 -0.9649
  102MOL    H9632618   3.168   4.793   1.024  0.3467 -2.0823 -0.3418
  102MOL    H9732619   3.398   4.686   1.056 -1.2215 -0.0982 -1.3836
  102MOL    C9832620   2.909   4.881   1.303 -0.1463 -0.0747  0.1796
  102MOL    C9932621   2.773   4.950   1.281 -0.5645 -0.2411  1.1225
  102MOL   C10032622   2.664   4.879   1.221  0.3949 -0.1761  0.7059
  102MOL   C10132623   2.549   4.951   1.179 -0.1804  0.2454  0.1155
  102MOL   C10232624   2.536   5.090   1.203  0.2022 -0.2044 -0.0765
  102MOL   C10332625   2.419   5.164   1.134  0.4789  0.4537  0.4425
  102MOL   C10432626   2.636   5.157   1.283 -0.3255  0.6555  0.1240
  102MOL   C10532627   2.754   5.086   1.323  0.6613  0.3762 -0.4848
  102MOL   H10632628   2.934   4.902   1.407 -1.8436  2.7842  0.0441
  102MOL   H10732629   2.888   4.775   1.284 -0.2215  0.2178 -1.4711
  102MOL   H10832630   2.678   4.777   1.189  0.2282 -0.0563  0.2470
  102MOL   H10932631   2.476   4.887   1.132  1.6009  0.1129 -2.6169
  102MOL   H11032632   2.374   5.093   1.064  1.3034  0.8035 -0.4563
  102MOL   H11132633   2.348   5.197   1.210  0.2931  1.7226 -0.2687
  102MOL   H11232634   2.626   5.261   1.310  1.7795  0.8053  0.3750
  102MOL   H11332635   2.833   5.145   1.367 -1.4073  2.9287 -0.1045
  102MOL   C11432636   2.474   5.284   1.045 -0.0317  0.1302  0.2050
  102MOL   C11532637   2.600   5.254   0.965 -0.3996  0.0456  0.4567
  102MOL   C11632638   2.720   5.326   0.985  0.5237  0.2008  0.0796
  102MOL   C11732639   2.835   5.293   0.914 -0.0628 -0.0465  0.8308
  102MOL   C11832640   2.840   5.181   0.825 -1.0206  0.4882  0.4626
  102MOL   C11932641   2.972   5.144   0.753 -0.0573  0.1045 -0.7815
  102MOL   C12032642   2.719   5.103   0.810 -0.1009 -0.6437  1.1532
  102MOL   C12132643   2.597   5.146   0.873 -0.4616  0.2493  0.2101
  102MOL   H12232644   2.501   5.370   1.107 -2.3382  0.6400  0.5551
  102MOL   H12332645   2.404   5.314   0.967 -0.8653  0.7765  1.1912
  102MOL   H12432646   2.725   5.408   1.055  0.4143  0.3331 -0.0683
  102MOL   H12532647   2.925   5.349   0.932  0.7831 -1.1842  0.2137
  102MOL   H12632648   2.968   5.084   0.663  1.2742  0.2702 -0.9651
  102MOL   H12732649   3.028   5.233   0.726  1.1090 -0.0433  0.9819
  102MOL   H12832650   2.728   5.014   0.750  2.5251  0.4202 -0.0955
  102MOL   H12932651   2.513   5.079   0.874 -1.1499  1.0959 -1.0091
  102MOL   C13032652   3.058   5.065   0.852  0.1969  0.1107  0.2720
  102MOL   C13132653   3.193   5.030   0.791 -0.0065  0.0877  0.7184
  102MOL   C13232654   3.312   5.083   0.845  0.3241  0.0323  0.0721
  102MOL   C13332655   3.432   5.062   0.777  0.3143 -0.0417 -0.1215
  102MOL   C13432656   3.444   4.989   0.660  0.3923 -0.1195  0.8422
  102MOL   C13532657   3.577   4.959   0.603 -0.0766  0.3853 -0.5538
  102MOL   C13632658   3.327   4.929   0.602 -0.1172  0.0725 -0.8723
  102MOL   C13732659   3.204   4.957   0.671 -0.1725  0.0041  0.3039
  102MOL   H13832660   3.006   4.974   0.883 -1.2704  0.6093 -0.7054
  102MOL   H13932661   3.067   5.120   0.946 -0.8318  0.9405 -0.0962
  102MOL   H14032662   3.323   5.138   0.937  1.6201 -1.2460  0.7080
  102MOL   H14132663   3.521   5.102   0.824  1.2844 -0.6540 -1.3914
  102MOL   H14232664   3.581   4.992   0.499  2.3949  1.9215 -0.0134
  102MOL   H14332665   3.654   5.023   0.647 -2.3923  0.9017  2.8918
  102MOL   H14432666   3.331   4.876   0.507  1.0435  2.1394 -2.0087
  102MOL   H14532667   3.113   4.927   0.622 -0.3804  1.4473 -0.2028
  102MOL   C14632668   3.624   4.814   0.608  0.4203  0.2588 -0.3015
  102MOL   C14732669   3.772   4.799   0.586  0.3910  0.2180  0.7719
  102MOL   C14832670   3.824   4.818   0.458  0.0557  0.2544  0.1665
  102MOL   C14932671   3.963   4.823   0.428  0.6105 -0.6916 -0.3583
  102MOL   C15032672   4.052   4.815   0.533 -0.0246 -0.0374 -0.1382
  102MOL   C15132673   4.203   4.807   0.522 -0.3934 -0.2200  0.5053
  102MOL   C15232674   4.006   4.801   0.667  0.0048 -0.1966  0.3251
  102MOL   C15332675   3.868   4.788   0.689  0.3111 -0.0356 -0.1013
  102MOL   H15432676   3.574   4.760   0.528 -1.8008  1.2875  0.3494
  102MOL   H15532677   3.590   4.777   0.704 -0.3354  1.8349  0.0568
  102MOL   H15632678   3.758   4.827   0.373  0.4201  1.7481  0.0254
  102MOL   H15732679   3.991   4.840   0.325  0.3611 -2.0771 -0.6653
  102MOL   H15832680   4.217   4.817   0.414  0.2111 -3.3197  0.2563
  102MOL   H15932681   4.245   4.892   0.575 -0.8238 -0.4677  1.2557
  102MOL   H16032682   4.072   4.786   0.751  0.9062  4.8730  0.6735
  102MOL   H16132683   3.833   4.769   0.789  2.8376  0.6866  0.9336
  102MOL   C16232684   4.260   4.672   0.566  0.1386 -0.8248  0.2706
  102MOL   C16332685   4.407   4.664   0.518  0.7951 -0.1028  0.1796
  102MOL   C16432686   4.510   4.734   0.579 -0.2542 -1.2973 -0.5810
  102MOL   C16532687   4.643   4.734   0.528 -0.5466  0.4105  0.9049
  102MOL   C16632688   4.667   4.680   0.398  0.9762 -0.1553  0.0392
  102MOL   C16732689   4.814   4.659   0.351  0.0045 -0.2563  0.1162
  102MOL   C16832690   4.559   4.621   0.323 -0.1791  0.2203 -0.3469
  102MOL   C16932691   4.434   4.613   0.386 -0.3827 -0.2316  0.0616
  102MOL   H17032692   4.213   4.580   0.531  0.1451 -0.6464 -0.2095
  102MOL   H17132693   4.238   4.669   0.672 -0.2595 -2.5909  0.1524
  102MOL   H17232694   4.498   4.773   0.679 -2.1705 -2.2547 -0.4140
  102MOL   H17332695   4.733   4.769   0.577  0.2416 -1.4997  0.8685
  102MOL   H17432696   4.844   4.747   0.293  1.7851 -0.5641  0.5411
  102MOL   H17532697   4.880   4.650   0.437  0.6065  1.1888 -0.1629
  102MOL   H17632698   4.577   4.589   0.222  0.3449  0.2978 -0.2792
  102MOL   H17732699   4.351   4.578   0.326 -0.0132 -0.2601 -0.4338
  102MOL   C17832700   4.827   4.533   0.269  0.0368  0.5943 -1.1613
  102MOL   C17932701   4.970   4.492   0.247 -0.1732  0.3448  0.0637
  102MOL   C18032702   5.043   4.572   0.158 -0.0503  0.2719 -0.2676
  102MOL   C18132703   5.183   4.545   0.148  0.1781 -0.0460 -0.3623
  102MOL   C18232704   5.241   4.442   0.223 -0.7877 -0.8909  0.7918
  102MOL   C18332705   5.385   4.425   0.212 -0.6456 -0.5857 -0.1680
  102MOL   C18432706   5.166   4.371   0.312 -0.6263  0.3888  0.1747
  102MOL   C18532707   5.024   4.381   0.315  1.0419  0.0043  0.0259
  102MOL   H18632708   4.785   4.554   0.171 -1.2614  0.3735 -0.6604
  102MOL   H18732709   4.781   4.440   0.305 -2.2035  1.6273 -1.2512
  102MOL   H18832710   4.998   4.652   0.102 -1.2853  0.7903  1.4259
  102MOL   H18932711   5.243   4.594   0.072  2.2329 -1.0218  0.5885
  102MOL   H19032712   5.397   4.317   0.225 -2.4422 -0.8961 -0.8963
  102MOL   H19132713   5.417   4.442   0.109  0.2685 -0.3786  0.1417
  102MOL   H19232714   5.213   4.289   0.365  0.8338  0.3003 -1.2296
  102MOL   H19332715   4.957   4.329   0.382  0.0020 -1.4245 -2.0650
  102MOL   C19432716   5.468   4.518   0.305  0.1232  0.3177 -0.2318
  102MOL   C19532717   5.612   4.535   0.267 -0.4717  0.0006 -0.5107
  102MOL   C19632718   5.693   4.417   0.262 -0.6503 -0.2112  0.8032
  102MOL   C19732719   5.830   4.431   0.233 -0.0458  0.3165  0.2924
  102MOL   C19832720   5.884   4.559   0.199  0.0497 -0.0243  0.0472
  102MOL   C19932721   6.032   4.560   0.162  0.7635 -0.3004 -0.2029
  102MOL   C20032722   5.809   4.677   0.220 -0.0412  0.3281  0.1631
  102MOL   C20132723   5.674   4.660   0.253 -0.2980 -0.3450  0.1930
  102MOL   H20232724   5.462   4.499   0.412 -2.9154  0.8040 -0.2674
  102MOL   H20332725   5.428   4.618   0.291 -0.8592 -0.0304  0.0250
  102MOL   H20432726   5.647   4.319   0.256 -0.7419 -0.0987 -0.3777
  102MOL   H20532727   5.891   4.342   0.232  0.5416  0.6153  3.3602
  102MOL   H20632728   6.044   4.463   0.112  1.1644  0.3420 -1.3711
  102MOL   H20732729   6.050   4.639   0.090  0.3531 -0.2159 -0.2124
  102MOL   H20832730   5.858   4.772   0.213  0.3311  0.1438  0.2512
  102MOL   H20932731   5.621   4.752   0.277  0.6435  0.5100 -0.9391
  102MOL   C21032732   6.136   4.562   0.273 -0.1381  0.3168  0.3408
  102MOL   C21132733   6.277   4.527   0.216 -0.0591 -0.6758 -0.0640
  102MOL   C21232734   6.358   4.636   0.161 -0.2974  0.1863  0.2146
  102MOL   C21332735   6.480   4.600   0.094  0.2314 -0.0756 -1.1967
  102MOL   C21432736   6.528   4.468   0.095 -0.0007  0.0458  0.9108
  102MOL   C21532737   6.652   4.436   0.021 -0.3719  0.1632 -0.2889
  102MOL   C21632738   6.451   4.369   0.149 -0.1393 -0.2145  0.4777
  102MOL   C21732739   6.329   4.395   0.213 -0.1870 -0.6485 -0.3584
  102MOL   H21832740   6.115   4.487   0.348 -1.3594 -0.4898 -0.7792
  102MOL   H21932741   6.134   4.659   0.323  0.7873 -0.0290  1.0650
  102MOL   H22032742   6.314   4.734   0.162  2.1614  1.2952  1.4016
  102MOL   H22132743   6.534   4.684   0.052  1.5526  1.5106  3.3653
  102MOL   H22232744   6.668   4.329   0.010  0.7042  0.0569  2.1063
  102MOL   H22332745   6.646   4.482  -0.077 -0.4752 -0.6373 -0.6659
  102MOL   H22432746   6.482   4.267   0.165  1.4629 -0.0965 -1.6527
  102MOL   H22532747   6.271   4.311   0.246 -1.0385 -0.0190 -0.2308
  102MOL   C22632748   6.779   4.484   0.091  0.7902  0.2559  0.1238
  102MOL   C22732749   6.899   4.438   0.014 -0.0284 -0.2627 -0.0518
  102MOL   C22832750   6.931   4.497  -0.115  0.5316  0.8172 -0.2847
  102MOL   C22932751   7.044   4.444  -0.181 -0.7671 -0.6930 -0.1532
  102MOL   C23032752   7.108   4.330  -0.134 -0.3572 -1.4337 -0.2364
  102MOL   C23132753   7.239   4.276  -0.190  0.8482  0.0416  0.0581
  102MOL   C23232754   7.055   4.262  -0.026  0.0894 -0.0638  0.2975
  102MOL   C23332755   6.969   4.326   0.061 -0.9392 -0.2978  0.1151
  102MOL   H23432756   6.786   4.439   0.190 -0.4092 -0.1358  0.0309
  102MOL   H23532757   6.765   4.592   0.101 -2.6402 -0.3437  2.2848
  102MOL   H23632758   6.867   4.576  -0.152 -0.5258  0.0653 -0.1033
  102MOL   H23732759   7.072   4.491  -0.274  1.5317  1.0132  1.3636
  102MOL   H23832760   7.240   4.168  -0.179  1.9825  0.1130  0.7350
  102MOL   H23932761   7.249   4.312  -0.292  1.7212  1.1895  0.5283
  102MOL   H24032762   7.100   4.166  -0.005  2.6905  1.1338  0.3323
  102MOL   H24132763   6.945   4.276   0.153 -2.6869 -0.3747 -0.3702
  102MOL   C24232764   7.363   4.335  -0.124 -0.2982 -0.1629  0.3181
  102MOL   C24332765   7.488   4.280  -0.183  0.0596  0.3858  0.1567
  102MOL   C24432766   7.553   4.354  -0.283  0.3665 -0.5726 -0.4134
  102MOL   C24532767   7.672   4.310  -0.336 -0.6856  0.0079 -0.5814
  102MOL   C24632768   7.727   4.188  -0.300 -0.1516  0.3349 -0.6609
  102MOL   C24732769   7.860   4.142  -0.356 -0.2968  0.5431 -0.5081
  102MOL   C24832770   7.660   4.108  -0.204 -0.0193  0.1131 -0.8267
  102MOL   C24932771   7.537   4.150  -0.147  0.7637 -0.1801  0.2251
  102MOL   H25032772   7.353   4.443  -0.120 -0.9355 -0.2399  0.7784
  102MOL   H25132773   7.367   4.312  -0.018  1.5312  1.2520  0.5787
  102MOL   H25232774   7.514   4.452  -0.307 -0.5651 -1.1052 -1.0882
  102MOL   H25332775   7.730   4.375  -0.400  0.2372  0.4634  0.7045
  102MOL   H25432776   7.850   4.035  -0.372  1.0029  0.6309 -2.0339
  102MOL   H25532777   7.888   4.192  -0.449 -1.3876 -0.4334 -1.3738
  102MOL   H25632778   7.708   4.013  -0.186 -2.1844 -1.1255 -1.4591
  102MOL   H25732779   7.477   4.091  -0.080  1.4740 -1.7550 -0.4990
  102MOL   C25832780   7.978   4.160  -0.259  0.0094  0.1950  0.7914
  102MOL   C25932781   8.109   4.109  -0.319  0.9712  0.4971  0.5163
  102MOL   C26032782   8.211   4.188  -0.370  0.1310 -0.7261 -0.9043
  102MOL   C26132783   8.328   4.127  -0.421 -0.4345 -0.9623  0.0961
  102MOL   C26232784   8.342   3.989  -0.428  0.5183 -0.8204  0.4942
  102MOL   C26332785   8.473   3.927  -0.474  1.0830 -0.3854  0.0609
  102MOL   C26432786   8.235   3.903  -0.381  0.4807 -1.0662 -0.5564
  102MOL   C26532787   8.123   3.972  -0.329 -0.2994 -0.1014  1.1015
  102MOL   H26632788   7.969   4.101  -0.167 -1.4232 -0.9344 -0.0493
  102MOL   H26732789   8.009   4.260  -0.232 -0.2477  0.7529 -0.9197
  102MOL   H26832790   8.203   4.296  -0.371  0.8034 -0.6806 -1.9506
  102MOL   H26932791   8.410   4.186  -0.457 -1.7483  0.5215 -0.4930
  102MOL   H27032792   8.467   3.819  -0.478  0.1885 -0.2944 -1.3083
  102MOL   H27132793   8.486   3.974  -0.572 -0.8079 -0.6017 -0.2934
  102MOL   H27232794   8.235   3.795  -0.390 -0.2118 -1.2683  1.4391
  102MOL   H27332795   8.038   3.918  -0.289 -0.4993 -2.0022 -1.6899
  102MOL   C27432796   8.590   3.963  -0.381  0.0700 -0.5848 -0.6916
  102MOL   C27532797   8.724   3.925  -0.447 -0.6660  0.2165  0.3755
  102MOL   C27632798   8.791   4.011  -0.537 -0.3380  0.1978  0.8967
  102MOL   C27732799   8.917   3.978  -0.593 -0.4365  0.1623  0.3322
  102MOL   C27832800   8.976   3.854  -0.561  0.1011  0.4057  0.1960
  102MOL   C27932801   9.110   3.820  -0.622  0.0681 -0.4652  0.4533
  102MOL   C28032802   8.913   3.763  -0.476 -0.6194 -0.1460 -0.0477
  102MOL   C28132803   8.787   3.799  -0.419 -0.0290 -0.4723 -0.1677
  102MOL   H28232804   8.586   4.069  -0.353 -0.6075 -0.1747 -2.3336
  102MOL   H28332805   8.572   3.908  -0.288 -1.1457  1.8137  0.5384
  102MOL   H28432806   8.752   4.107  -0.566  1.5772  0.7990  0.2647
  102MOL   H28532807   8.965   4.054  -0.653 -1.8602 -0.1555 -1.2431
  102MOL   H28632808   9.104   3.716  -0.651  0.4377 -0.6645  1.0861
  102MOL   H28732809   9.126   3.881  -0.711  0.9235 -1.8829 -0.3754
  102MOL   H28832810   8.959   3.669  -0.453  0.4777  0.2776 -0.4969
  102MOL   H28932811   8.750   3.732  -0.342 -1.0870 -0.7833 -0.9232
  102MOL   C29032812   9.233   3.845  -0.528 -0.0254 -0.4903 -0.1584
  102MOL   C29132813   9.358   3.790  -0.580 -0.1447  0.8928 -0.3573
  102MOL   C29232814   9.456   3.867  -0.640  0.4112 -0.8535  0.1410
  102MOL   C29332815   9.570   3.801  -0.688  0.0253 -0.1701 -0.3562
  102MOL   C29432816   9.592   3.667  -0.676 -0.2823  0.9524 -1.0231
  102MOL   C29532817   9.715   3.592  -0.733  0.8078 -0.2896 -0.8263
  102MOL   C29632818   9.500   3.587  -0.610  0.0447  1.0765  0.3244
  102MOL   C29732819   9.382   3.650  -0.570 -0.3535 -0.2324 -0.3628
  102MOL   H29832820   9.212   3.795  -0.434  0.6198 -0.3647  0.0556
  102MOL   H29932821   9.263   3.950  -0.518 -0.2209 -0.3818 -0.7085
  102MOL   H30032822   9.439   3.973  -0.655  0.8500 -0.9425 -1.0553
  102MOL   H30132823   9.651   3.857  -0.732 -2.6268  2.7190 -1.7514
  102MOL   H30232824   9.678   3.495  -0.769  0.2298 -0.2231 -0.4274
  102MOL   H30332825   9.743   3.640  -0.827  0.2743  0.3423 -0.6688
  102MOL   H30432826   9.523   3.482  -0.618 -0.6266  1.0092 -0.8178
  102MOL   H30532827   9.309   3.587  -0.521 -1.6825  1.3733 -0.2471
  102MOL   C30632828   9.840   3.592  -0.636 -0.4337 -0.0150 -0.2072
  102MOL   C30732829   9.968   3.575  -0.716  0.5077 -0.3063 -0.5781
  102MOL   C30832830  10.047   3.456  -0.698  1.0132  0.2055  0.1030
  102MOL   C30932831  10.170   3.436  -0.774 -0.0372 -0.0933  0.0037
  102MOL   C31032832  10.219   3.540  -0.854 -0.0111  0.0988 -0.6611
  102MOL   C31132833  10.354   3.527  -0.929 -0.1054  0.3051 -0.0938
  102MOL   C31232834  10.144   3.661  -0.865 -0.3584 -0.4834 -0.2357
  102MOL   C31332835  10.020   3.672  -0.804 -0.0065 -1.0200 -0.2801
  102MOL   H31432836   9.817   3.511  -0.566 -1.8991  1.0935  0.6045
  102MOL   H31532837   9.850   3.684  -0.579 -1.5152  0.3025 -0.5169
  102MOL   H31632838  10.012   3.384  -0.626  2.5659  0.3425  1.0312
  102MOL   H31732839  10.224   3.345  -0.752 -1.3671  0.0173  4.0247
  102MOL   H31832840  10.445   3.541  -0.871 -0.1908  1.1093 -0.1353
  102MOL   H31932841  10.353   3.435  -0.986 -2.6323  1.4199 -1.9575
  102MOL   H32032842  10.179   3.739  -0.931  1.8684 -1.6660 -0.5224
  102MOL   H32132843   9.961   3.762  -0.811  0.6620 -0.5416  0.2291
  102MOL   H32232844  10.365   3.591  -1.017  0.8640 -0.7510 -0.7580
  103MOL     C132845   3.148   0.944   4.472  0.3754 -0.0542  0.6403
  103MOL     C232846   3.008   0.999   4.454 -0.0765  0.5345  0.1091
  103MOL     C332847   2.921   1.051   4.556  0.8174 -0.0901 -1.0415
  103MOL     C432848   2.791   1.095   4.521  0.4812 -0.0382  0.1882
  103MOL     C532849   2.747   1.083   4.384 -0.3189 -0.3831 -0.2093
  103MOL     C632850   2.599   1.104   4.355 -0.5955 -0.4522 -0.3998
  103MOL     C732851   2.837   1.037   4.282 -0.8346 -0.1782 -0.0867
  103MOL     C832852   2.962   1.002   4.318  0.1247  0.6243 -0.0723
  103MOL     H932853   3.184   0.959   4.574  1.3237 -1.7687  0.5691
  103MOL    H1032854   3.155   0.836   4.461 -1.6539 -0.2541  1.2394
  103MOL    H1132855   2.957   1.079   4.654 -0.5397  0.2058 -0.6149
  103MOL    H1232856   2.725   1.118   4.603  0.5576  0.1952  0.1852
  103MOL    H1332857   2.566   1.017   4.299 -0.1482 -1.3993  0.7846
  103MOL    H1432858   2.538   1.105   4.445 -1.5048  0.1333 -1.0176
  103MOL    H1532859   2.806   1.036   4.178 -1.7280 -0.8149  0.1788
  103MOL    H1632860   3.030   0.969   4.240  0.0147  1.4120 -0.5028
  103MOL    H1732861   3.218   0.997   4.407  0.7405  0.4372  1.4199
  103MOL    C1832862   2.562   1.235   4.288 -0.1216 -0.1477 -0.1608
  103MOL    C1932863   2.417   1.256   4.256  0.2122  0.4209 -0.5154
  103MOL    C2032864   2.345   1.168   4.173  0.0795 -0.5454  0.3072
  103MOL    C2132865   2.208   1.191   4.156 -0.2109 -0.1614 -0.2033
  103MOL    C2232866   2.130   1.286   4.226  0.9265 -0.4849 -0.4442
  103MOL    C2332867   1.978   1.292   4.200  0.1407 -0.0689 -0.1042
  103MOL    C2432868   2.196   1.364   4.317 -0.2281  0.3737  0.6514
  103MOL    C2532869   2.338   1.350   4.327 -0.0326 -0.0945  0.6110
  103MOL    H2632870   2.598   1.321   4.344 -0.9647 -0.3208  0.6544
  103MOL    H2732871   2.619   1.240   4.194 -0.3823 -0.9101 -0.3621
  103MOL    H2832872   2.396   1.089   4.120  1.3097 -0.5944  1.5406
  103MOL    H2932873   2.164   1.123   4.084 -0.4938 -1.7852  1.4563
  103MOL    H3032874   1.973   1.322   4.096 -0.1808 -0.7305 -0.2818
  103MOL    H3132875   1.922   1.372   4.248 -1.2647 -0.1314 -1.6360
  103MOL    H3232876   2.136   1.441   4.363 -2.5792 -0.2498 -1.2584
  103MOL    H3332877   2.386   1.412   4.403 -0.5230 -0.9882  1.6632
  103MOL    C3432878   1.911   1.160   4.226  0.5785 -0.8347  0.0485
  103MOL    C3532879   1.765   1.170   4.182  0.1605  0.1392 -0.0433
  103MOL    C3632880   1.660   1.163   4.278  0.1423 -0.2631 -0.7054
  103MOL    C3732881   1.527   1.195   4.246  0.4095  0.0391  0.6302
  103MOL    C3832882   1.501   1.229   4.115  0.3584  0.5472  0.9686
  103MOL    C3932883   1.361   1.283   4.081 -0.2697  0.1464  0.4726
  103MOL    C4032884   1.601   1.218   4.015  0.0777  0.2961 -0.2959
  103MOL    C4132885   1.729   1.176   4.049 -0.7607  0.0798 -0.2757
  103MOL    H4232886   1.917   1.136   4.332 -1.3545 -2.4186 -0.1500
  103MOL    H4332887   1.956   1.080   4.168 -0.1787 -0.0534 -1.6572
  103MOL    H4432888   1.679   1.158   4.384 -1.9337 -0.0250 -0.3123
  103MOL    H4532889   1.450   1.199   4.321 -0.5489 -1.0034 -0.2835
  103MOL    H4632890   1.332   1.231   3.990  0.3784 -0.4994  0.6301
  103MOL    H4732891   1.294   1.254   4.162 -1.2039  0.0973 -0.2963
  103MOL    H4832892   1.576   1.230   3.911 -1.0934  0.7180  0.0244
  103MOL    H4932893   1.809   1.170   3.976 -0.5199  0.8640 -0.0735
  103MOL    C5032894   1.355   1.434   4.070 -0.2212 -0.8241  0.4892
  103MOL    C5132895   1.219   1.484   4.070 -0.2513  0.3387  0.0859
  103MOL    C5232896   1.141   1.458   4.191  0.3485  0.0681  0.5598
  103MOL    C5332897   1.010   1.499   4.192  0.8961 -0.3025 -0.1107
  103MOL    C5432898   0.945   1.547   4.082  0.0690 -0.0986  0.2517
  103MOL    C5532899   0.796   1.587   4.087 -0.1272 -0.0751  0.0279
  103MOL    C5632900   1.013   1.564   3.964 -0.7756  0.1113  0.4777
  103MOL    C5732901   1.150   1.542   3.958 -0.4948 -0.3052 -0.2461
  103MOL    H5832902   1.391   1.465   3.972  0.2979 -1.1145  0.5899
  103MOL    H5932903   1.411   1.489   4.146  0.6127 -0.8008 -0.1386
  103MOL    H6032904   1.188   1.402   4.270  0.7904  1.2209  1.1219
  103MOL    H6132905   0.954   1.493   4.284  0.8550  0.9966 -0.0352
  103MOL    H6232906   0.752   1.571   3.989 -0.2008 -1.3325  0.2548
  103MOL    H6332907   0.750   1.522   4.162  1.3696  0.9146  1.8246
  103MOL    H6432908   0.950   1.590   3.880 -1.7981  0.5463  1.3701
  103MOL    H6532909   1.197   1.580   3.869 -1.7294  0.8757 -0.4087
  103MOL    C6632910   0.774   1.724   4.136  0.0427 -0.0255 -0.2868
  103MOL    C6732911   0.632   1.759   4.167  0.3998  0.1109  0.0080
  103MOL    C6832912   0.567   1.689   4.269  0.6709 -0.2830 -0.1223
  103MOL    C6932913   0.430   1.704   4.289  0.0185 -0.0343 -0.3105
  103MOL    C7032914   0.354   1.794   4.201  0.1635  0.0099 -0.1238
  103MOL    C7132915   0.208   1.810   4.218 -0.4535  0.3861 -0.2704
  103MOL    C7232916   0.423   1.869   4.103  0.7306 -0.1579 -0.1308
  103MOL    C7332917   0.559   1.844   4.081 -0.0944  0.2704  0.3492
  103MOL    H7432918   0.798   1.787   4.050  1.1487 -1.4146 -1.0279
  103MOL    H7532919   0.833   1.756   4.222 -2.9046  0.0089  1.8100
  103MOL    H7632920   0.624   1.620   4.329 -0.2309 -0.5683  0.4182
  103MOL    H7732921   0.382   1.641   4.362 -0.7602 -1.8188 -2.2964
  103MOL    H7832922   0.178   1.888   4.148  1.6182 -0.2066 -1.8641
  103MOL    H7932923   0.183   1.846   4.318  0.2165  1.1345 -0.3632
  103MOL    H8032924   0.385   1.940   4.031  1.8994 -0.3740 -0.9787
  103MOL    H8132925   0.605   1.895   3.998 -1.7207  1.1509 -0.0465
  103MOL    C8232926   0.126   1.690   4.171 -0.0706  0.2635 -0.4875
  103MOL    C8332927  -0.023   1.717   4.166  0.4569  0.2386 -0.3603
  103MOL    C8432928  -0.098   1.682   4.058 -0.0484 -0.3394  0.3091
  103MOL    C8532929  -0.240   1.701   4.063  0.5558  0.6285 -0.5039
  103MOL    C8632930  -0.297   1.738   4.181  0.0707 -0.4486  0.7383
  103MOL    C8732931  -0.450   1.749   4.182 -0.5480  0.3274 -0.1569
  103MOL    C8832932  -0.223   1.765   4.291 -0.3105  0.4383 -0.0646
  103MOL    C8932933  -0.089   1.754   4.284  0.6406 -0.4158 -0.2794
  103MOL    H9032934   0.147   1.610   4.242 -1.0060 -0.2856 -0.8269
  103MOL    H9132935   0.169   1.657   4.076 -0.1633  1.1139 -0.8351
  103MOL    H9232936  -0.064   1.648   3.962 -1.1197 -2.1401  0.5485
  103MOL    H9332937  -0.290   1.679   3.970  2.5706 -2.0478 -1.0176
  103MOL    H9432938  -0.480   1.740   4.286 -0.2489 -1.6256 -0.2221
  103MOL    H9532939  -0.496   1.662   4.136  0.3311  0.3467 -1.1011
  103MOL    H9632940  -0.258   1.797   4.388  0.5940 -1.1261  0.8032
  103MOL    H9732941  -0.039   1.767   4.379  2.6212  0.5292 -1.4340
  103MOL    C9832942  -0.503   1.864   4.099  0.1873  0.3703  0.1366
  103MOL    C9932943  -0.656   1.871   4.117 -0.2001  0.6198 -0.8537
  103MOL   C10032944  -0.740   1.832   4.011  0.1917 -0.2974 -0.0870
  103MOL   C10132945  -0.876   1.846   4.023  0.3554 -0.5898 -0.6696
  103MOL   C10232946  -0.937   1.893   4.144 -0.1199 -0.4090 -0.9764
  103MOL   C10332947  -1.087   1.907   4.153  0.4837 -0.3017 -0.4355
  103MOL   C10432948  -0.855   1.925   4.252  0.1833 -0.8527 -0.1122
  103MOL   C10532949  -0.713   1.912   4.241 -0.3408  0.2317 -0.1443
  103MOL   H10632950  -0.475   1.859   3.994 -2.7671  1.3420 -0.7388
  103MOL   H10732951  -0.445   1.949   4.135  1.2146  0.5459 -1.8303
  103MOL   H10832952  -0.706   1.788   3.919  0.5882  0.9209 -0.5285
  103MOL   H10932953  -0.940   1.811   3.944  0.6763 -0.1725 -1.1135
  103MOL   H11032954  -1.143   1.820   4.120 -1.3164  0.6340  0.1093
  103MOL   H11132955  -1.116   1.921   4.257  2.7003  0.3813  0.1255
  103MOL   H11232956  -0.892   1.962   4.346 -0.9765 -2.0096 -0.0928
  103MOL   H11332957  -0.657   1.946   4.326 -0.3283  0.1842 -0.1337
  103MOL   C11432958  -1.120   2.035   4.090  0.8741  0.4067  0.1321
  103MOL   C11532959  -1.268   2.064   4.115 -0.2509  0.8571  0.3546
  103MOL   C11632960  -1.364   2.032   4.027  0.5672 -0.7159  0.3255
  103MOL   C11732961  -1.503   2.040   4.049 -0.9540 -0.3017  0.8331
  103MOL   C11832962  -1.545   2.099   4.170 -0.0583 -0.7831  0.1558
  103MOL   C11932963  -1.692   2.118   4.196  0.5490 -0.3175 -0.3684
  103MOL   C12032964  -1.450   2.134   4.268  0.6760  0.4605  0.6170
  103MOL   C12132965  -1.315   2.121   4.236 -0.2229  0.5442  0.2354
  103MOL   H12232966  -1.105   2.040   3.983  1.2331  0.5871  0.1901
  103MOL   H12332967  -1.059   2.112   4.138 -0.3834  1.8544 -0.5490
  103MOL   H12432968  -1.331   1.986   3.935 -0.5294  0.2724 -0.5839
  103MOL   H12532969  -1.583   2.024   3.978  0.3880 -0.7530 -0.5936
  103MOL   H12632970  -1.753   2.074   4.117 -0.0363 -0.5705  0.2260
  103MOL   H12732971  -1.717   2.055   4.281 -0.4501  0.6663  0.0875
  103MOL   H12832972  -1.474   2.181   4.363  1.2412  0.1103  0.9393
  103MOL   H12932973  -1.245   2.154   4.312 -0.4543  1.6624 -0.0194
  103MOL   C13032974  -1.731   2.265   4.232  0.0606  0.4800 -0.6878
  103MOL   C13132975  -1.881   2.284   4.248  0.0719 -0.1917  0.0338
  103MOL   C13232976  -1.928   2.312   4.377  0.1161  0.3610  0.5190
  103MOL   C13332977  -2.074   2.322   4.392  0.4937 -0.5547 -1.0038
  103MOL   C13432978  -2.162   2.315   4.280  0.3913 -0.3288  0.1140
  103MOL   C13532979  -2.308   2.331   4.309  0.1676  0.2905  0.1502
  103MOL   C13632980  -2.107   2.290   4.155  0.0897 -0.0277  0.6760
  103MOL   C13732981  -1.969   2.277   4.137  0.1338 -0.7457  0.1066
  103MOL   H13832982  -1.703   2.333   4.151 -1.3488  0.5368 -1.1275
  103MOL   H13932983  -1.679   2.291   4.324  1.0343  0.6028 -1.2645
  103MOL   H14032984  -1.855   2.331   4.454 -0.0853 -0.4280  0.9090
  103MOL   H14132985  -2.106   2.342   4.493 -0.0228 -1.0419 -1.0704
  103MOL   H14232986  -2.354   2.241   4.270 -1.3649  1.3220 -0.4784
  103MOL   H14332987  -2.320   2.326   4.417  1.2817  1.8091  0.3677
  103MOL   H14432988  -2.171   2.286   4.068  0.1393  0.5965  0.6096
  103MOL   H14532989  -1.928   2.268   4.038  1.2118 -1.0481  0.5659
  103MOL   C14632990  -2.366   2.455   4.238  0.4790  0.1697 -0.5078
  103MOL   C14732991  -2.509   2.480   4.287  0.0149  0.2371 -0.9890
  103MOL   C14832992  -2.527   2.523   4.417  0.2727 -0.3122 -0.3189
  103MOL   C14932993  -2.655   2.561   4.455  0.2455 -1.0394 -0.0507
  103MOL   C15032994  -2.764   2.554   4.363 -0.3076 -0.8779 -0.3353
  103MOL   C15132995  -2.894   2.590   4.407  0.2783 -0.3397 -0.0546
  103MOL   C15232996  -2.742   2.508   4.232 -0.2878  0.2457 -0.8738
  103MOL   C15332997  -2.612   2.470   4.196 -0.2871  0.3881 -0.4129
  103MOL   H15432998  -2.377   2.446   4.130  0.4269 -1.0785 -0.4161
  103MOL   H15532999  -2.318   2.550   4.261 -1.7742  1.5594 -1.4219
  103MOL   H15633000  -2.441   2.521   4.483 -1.3290 -0.2817  1.8151
  103MOL   H15733001  -2.676   2.590   4.557 -4.0503 -2.6034 -0.3942
  103MOL   H15833002  -2.964   2.513   4.373  1.7775 -0.8260 -2.1573
  103MOL   H15933003  -2.896   2.616   4.513 -1.3654  1.4446 -0.4969
  103MOL   H16033004  -2.814   2.497   4.152 -1.5514 -0.0995  0.2910
  103MOL   H16133005  -2.591   2.443   4.094  0.4318  1.8210 -0.6540
  103MOL   C16233006  -2.932   2.722   4.354  0.4550 -0.1913  0.2380
  103MOL   C16333007  -3.028   2.794   4.445 -0.2172  0.2938  0.0655
  103MOL   C16433008  -3.167   2.765   4.442  0.3942  0.2212  0.0564
  103MOL   C16533009  -3.255   2.831   4.530 -0.6893 -0.0922 -0.2956
  103MOL   C16633010  -3.200   2.922   4.622 -0.1682 -0.5672 -0.7951
  103MOL   C16733011  -3.295   2.990   4.721 -0.5521  0.0637 -0.5037
  103MOL   C16833012  -3.062   2.949   4.627  0.3066  0.4599  0.0792
  103MOL   C16933013  -2.979   2.889   4.539  0.5918  0.6238  0.2293
  103MOL   H17033014  -2.957   2.721   4.248 -0.5213 -1.5594  0.4648
  103MOL   H17133015  -2.849   2.793   4.354  1.1793 -1.0216  1.8544
  103MOL   H17233016  -3.201   2.705   4.359  1.5057  1.4486 -1.3038
  103MOL   H17333017  -3.363   2.823   4.526 -0.8247  0.4091  1.5399
  103MOL   H17433018  -3.286   3.099   4.718 -2.0492  0.2404  1.1136
  103MOL   H17533019  -3.395   2.969   4.684 -0.4261 -1.1381 -0.1740
  103MOL   H17633020  -3.030   3.013   4.708 -2.4110  0.2570  1.3792
  103MOL   H17733021  -2.873   2.898   4.553  0.4826  1.5677  0.4627
  103MOL   C17833022  -3.272   2.945   4.867  0.0237  0.4089  0.9146
  103MOL   C17933023  -3.201   3.039   4.960 -0.0869  0.3649  0.0568
  103MOL   C18033024  -3.091   2.991   5.032 -0.2680 -0.3014 -0.2137
  103MOL   C18133025  -3.021   3.073   5.121  0.0363 -0.1216  0.0699
  103MOL   C18233026  -3.060   3.210   5.137  0.3011 -0.5514  0.1850
  103MOL   C18333027  -2.993   3.306   5.230  0.7247 -0.6038 -0.2500
  103MOL   C18433028  -3.170   3.267   5.061 -0.2230  0.6253  0.3385
  103MOL   C18533029  -3.243   3.171   4.980  0.4028  0.7427 -0.3962
  103MOL   H18633030  -3.233   2.843   4.862  1.2509  0.8119  2.2200
  103MOL   H18733031  -3.369   2.923   4.912 -1.1322 -0.2761 -1.7853
  103MOL   H18833032  -3.058   2.890   5.014  0.8330 -0.1188  0.7500
  103MOL   H18933033  -2.936   3.034   5.174 -1.4353  0.0397  2.6180
  103MOL   H19033034  -3.072   3.378   5.253 -1.2758 -3.0888  0.9114
  103MOL   H19133035  -2.961   3.255   5.321  0.7541  0.8558  0.5632
  103MOL   H19233036  -3.197   3.372   5.063  2.0458  1.2485 -0.2347
  103MOL   H19333037  -3.320   3.220   4.922 -0.8052 -0.7307 -0.0428
  103MOL   C19433038  -2.866   3.365   5.173 -0.3575 -0.6638  0.3554
  103MOL   C19533039  -2.756   3.267   5.144  0.2663 -0.1609  0.4630
  103MOL   C19633040  -2.705   3.252   5.015 -0.3273 -0.3666  0.7735
  103MOL   C19733041  -2.597   3.172   4.995 -0.6738  0.2851  0.1731
  103MOL   C19833042  -2.530   3.111   5.095 -0.3875 -0.6520 -0.5014
  103MOL   C19933043  -2.406   3.038   5.057 -0.3206 -0.4840 -0.1685
  103MOL   C20033044  -2.588   3.113   5.226 -1.5974  0.0728  0.1459
  103MOL   C20133045  -2.702   3.191   5.250 -0.1279 -0.2564 -0.2900
  103MOL   H20233046  -2.822   3.433   5.246  1.8345 -0.3309 -1.2321
  103MOL   H20333047  -2.882   3.427   5.085  3.0032 -1.7683 -1.1122
  103MOL   H20433048  -2.747   3.313   4.936 -0.7241  0.3203  1.5085
  103MOL   H20533049  -2.545   3.173   4.900 -0.0854  0.9584  0.5047
  103MOL   H20633050  -2.423   2.942   5.106 -0.5972  0.1391  0.9651
  103MOL   H20733051  -2.383   3.029   4.950  0.6743 -1.0766  0.0836
  103MOL   H20833052  -2.537   3.059   5.305 -0.8847 -1.1500 -1.1333
  103MOL   H20933053  -2.739   3.193   5.351 -0.6386 -0.5510 -0.4669
  103MOL   C21033054  -2.286   3.104   5.121 -0.2967 -0.1153  0.4261
  103MOL   C21133055  -2.153   3.034   5.104  0.5463  0.1880  0.8870
  103MOL   C21233056  -2.073   3.002   5.212  0.4881 -0.3786  0.2698
  103MOL   C21333057  -1.951   2.934   5.196 -0.2055 -0.7636  0.1017
  103MOL   C21433058  -1.911   2.904   5.066 -0.7368  0.1243  0.2210
  103MOL   C21533059  -1.776   2.827   5.038 -0.2841  0.1623 -0.8015
  103MOL   C21633060  -1.984   2.956   4.954  0.3986 -0.9148  0.2230
  103MOL   C21733061  -2.109   3.015   4.973  0.5976  1.1205  0.4324
  103MOL   H21833062  -2.299   3.114   5.229  3.0052 -1.0096  0.9617
  103MOL   H21933063  -2.274   3.206   5.084  0.1303  0.1610  1.3130
  103MOL   H22033064  -2.111   3.024   5.311  0.6743  1.0024  0.0417
  103MOL   H22133065  -1.897   2.894   5.281 -0.8591 -1.2224  0.3092
  103MOL   H22233066  -1.781   2.745   5.110 -3.0109 -1.7622 -3.0620
  103MOL   H22333067  -1.782   2.768   4.947 -2.6151 -0.9998  0.0740
  103MOL   H22433068  -1.954   2.946   4.851  0.3880 -1.7852  0.2937
  103MOL   H22533069  -2.163   3.059   4.891  2.0783  0.6830 -0.8052
  103MOL   C22633070  -1.659   2.913   5.027 -0.3712 -0.1496 -0.2790
  103MOL   C22733071  -1.526   2.848   4.995  0.3549 -0.5662  0.3668
  103MOL   C22833072  -1.461   2.888   4.877  0.0807  0.5418  0.2408
  103MOL   C22933073  -1.335   2.827   4.849 -0.5389 -0.7080 -0.2016
  103MOL   C23033074  -1.284   2.725   4.932  0.5743 -0.6671 -0.9694
  103MOL   C23133075  -1.156   2.659   4.892 -0.1301 -0.5018 -0.3195
  103MOL   C23233076  -1.353   2.689   5.053  0.0084 -0.3244 -0.6902
  103MOL   C23333077  -1.477   2.747   5.079 -0.1450 -0.3341 -0.2775
  103MOL   H23433078  -1.643   2.969   5.119 -2.2021  1.3704 -0.8217
  103MOL   H23533079  -1.670   2.984   4.945  0.4226  1.2724  0.8208
  103MOL   H23633080  -1.508   2.954   4.807 -1.0520 -1.4213 -0.8901
  103MOL   H23733081  -1.281   2.846   4.758 -0.6959  0.9954  0.0436
  103MOL   H23833082  -1.153   2.559   4.936 -1.1742 -1.4363 -2.3029
  103MOL   H23933083  -1.155   2.644   4.784 -2.1256 -2.0339 -0.1528
  103MOL   H24033084  -1.313   2.629   5.133  1.6441  0.6881 -0.7269
  103MOL   H24133085  -1.530   2.718   5.169  0.4135  0.2279  0.2317
  103MOL   C24233086  -1.032   2.738   4.938  0.0132 -0.4704 -0.2712
  103MOL   C24333087  -0.898   2.676   4.905 -0.0193  0.3114 -0.7970
  103MOL   C24433088  -0.853   2.564   4.976  0.1497 -0.3752  0.4366
  103MOL   C24533089  -0.727   2.501   4.945 -0.2790 -0.1250  0.2310
  103MOL   C24633090  -0.645   2.557   4.842 -0.1984 -0.3733  0.8700
  103MOL   C24733091  -0.507   2.482   4.821 -0.1886 -0.0171  0.5313
  103MOL   C24833092  -0.695   2.664   4.772  0.4928 -0.4240  0.3109
  103MOL   C24933093  -0.822   2.723   4.802 -0.7299  0.3746  0.3792
  103MOL   H25033094  -1.032   2.841   4.899 -0.8370 -0.4669 -0.2654
  103MOL   H25133095  -1.048   2.760   5.043  0.5950  1.8658 -0.6437
  103MOL   H25233096  -0.896   2.516   5.063 -0.1151 -0.3440  0.3229
  103MOL   H25333097  -0.695   2.414   5.000  0.6898  0.7786  1.1167
  103MOL   H25433098  -0.474   2.427   4.909  1.4977  0.7867  0.4118
  103MOL   H25533099  -0.525   2.408   4.743 -2.3182  2.1234 -1.1101
  103MOL   H25633100  -0.645   2.709   4.687 -0.3367  1.5609  0.8395
  103MOL   H25733101  -0.870   2.803   4.748  2.1341  0.6683 -1.8466
  103MOL   C25833102  -0.398   2.592   4.798  0.4560 -0.0897 -0.2280
  103MOL   C25933103  -0.262   2.542   4.777 -0.0786 -0.4250  0.8504
  103MOL   C26033104  -0.202   2.436   4.847  0.6234 -0.8115 -0.3967
  103MOL   C26133105  -0.067   2.398   4.827  0.2450  0.0574 -0.0481
  103MOL   C26233106   0.006   2.458   4.727  0.5197  0.1186  0.2322
  103MOL   C26333107   0.148   2.412   4.687  0.2807  0.4403 -0.3479
  103MOL   C26433108  -0.053   2.570   4.656 -0.0139 -0.1279 -0.7339
  103MOL   C26533109  -0.183   2.607   4.680  0.3679 -0.7792  0.2362
  103MOL   H26633110  -0.396   2.655   4.886 -1.1309  1.4082 -1.2250
  103MOL   H26733111  -0.431   2.646   4.709  0.1947 -0.9054 -0.6385
  103MOL   H26833112  -0.252   2.375   4.920  0.9725 -0.8176 -0.1607
  103MOL   H26933113  -0.031   2.324   4.897 -0.5327 -0.7423 -0.4801
  103MOL   H27033114   0.176   2.324   4.746  0.2655 -0.1781 -1.2605
  103MOL   H27133115   0.131   2.378   4.585 -0.1405 -1.2990  0.2783
  103MOL   H27233116   0.002   2.616   4.575  1.9277 -1.2050 -0.0721
  103MOL   H27333117  -0.231   2.690   4.630 -0.6848  0.5220  3.2526
  103MOL   C27433118   0.264   2.510   4.705 -0.2680  0.0315  0.1664
  103MOL   C27533119   0.405   2.449   4.699  0.2088 -0.0781  0.1691
  103MOL   C27633120   0.498   2.465   4.799  0.3967 -0.4049 -0.4720
  103MOL   C27733121   0.626   2.404   4.791  0.9041 -0.1036 -0.2754
  103MOL   C27833122   0.662   2.318   4.687  0.3129  0.1564  0.0282
  103MOL   C27933123   0.782   2.235   4.706 -0.1711 -0.6035  0.1901
  103MOL   C28033124   0.562   2.296   4.588 -0.4232 -0.3185 -0.1223
  103MOL   C28133125   0.437   2.360   4.596  0.5619  0.5523 -0.1632
  103MOL   H28233126   0.270   2.587   4.628 -1.3691 -0.3993 -0.3625
  103MOL   H28333127   0.257   2.560   4.801 -1.6273  0.7401 -0.2873
  103MOL   H28433128   0.477   2.536   4.878  1.3649 -0.3975 -0.2189
  103MOL   H28533129   0.693   2.418   4.876 -0.5077  0.1022  0.8211
  103MOL   H28633130   0.801   2.200   4.807 -2.1864  0.7307  1.0476
  103MOL   H28733131   0.762   2.147   4.644  0.2885 -0.9613  0.5507
  103MOL   H28833132   0.572   2.220   4.512  1.6431 -0.1074 -0.0810
  103MOL   H28933133   0.356   2.331   4.531 -0.2268 -0.3245  1.1817
  103MOL   C29033134   0.894   2.296   4.646  0.2681 -1.0393  0.1674
  103MOL   C29133135   1.023   2.219   4.683  0.1039 -0.6148 -0.0318
  103MOL   C29233136   1.078   2.121   4.596  0.3781  0.0678 -0.1109
  103MOL   C29333137   1.198   2.060   4.634 -0.2859 -0.8627  0.1677
  103MOL   C29433138   1.268   2.097   4.754 -0.4701 -0.0884  0.0212
  103MOL   C29533139   1.393   2.027   4.792  0.1074  0.1788  0.3997
  103MOL   C29633140   1.214   2.194   4.835 -0.5858  0.4304 -0.9398
  103MOL   C29733141   1.094   2.255   4.799 -0.5304 -0.2240  0.4546
  103MOL   H29833142   0.901   2.398   4.683  0.7687 -0.9033 -0.2865
  103MOL   H29933143   0.882   2.313   4.539  0.6906 -2.7925 -0.1800
  103MOL   H30033144   1.023   2.081   4.512  1.2491 -1.1549 -0.1133
  103MOL   H30133145   1.240   1.977   4.579  0.7117 -0.1118 -0.2348
  103MOL   H30233146   1.415   2.064   4.892  0.6368 -1.0275  0.7385
  103MOL   H30333147   1.375   1.921   4.813  0.3509  0.6514  3.1494
  103MOL   H30433148   1.261   2.235   4.923 -1.2310 -0.4864 -0.1542
  103MOL   H30533149   1.064   2.345   4.851  0.1576 -0.3016  0.9859
  103MOL   C30633150   1.514   2.064   4.699 -0.4820  0.7570  0.5409
  103MOL   C30733151   1.656   2.026   4.755 -0.3395  0.2557 -0.5524
  103MOL   C30833152   1.676   1.892   4.800 -0.2574  0.1171  0.7672
  103MOL   C30933153   1.804   1.852   4.843  0.5716 -0.2556  0.0901
  103MOL   C31033154   1.901   1.948   4.856 -0.3222 -0.3870  0.0945
  103MOL   C31133155   2.032   1.898   4.910 -0.1947  0.0034  0.0717
  103MOL   C31233156   1.880   2.080   4.816 -0.3173 -0.5425  0.1335
  103MOL   C31333157   1.752   2.123   4.767  0.0119 -0.0701  0.2839
  103MOL   H31433158   1.518   2.173   4.702  0.7324  0.7709 -1.1201
  103MOL   H31533159   1.501   2.044   4.593  2.3778  1.8535 -0.0751
  103MOL   H31633160   1.596   1.820   4.789  0.1531 -0.0650 -1.3153
  103MOL   H31733161   1.825   1.752   4.877 -0.4517  0.4639  2.9964
  103MOL   H31833162   2.079   1.850   4.824 -0.1118  1.2176 -0.5789
  103MOL   H31933163   2.090   1.975   4.960 -0.1196 -1.2259  1.9054
  103MOL   H32033164   1.966   2.146   4.811  0.1628 -1.2442 -1.1751
  103MOL   H32133165   1.740   2.227   4.739  0.1847  0.4469  2.0192
  103MOL   H32233166   2.023   1.813   4.977 -0.6415 -0.6835 -0.8566
  104MOL     C133167   4.597   5.037   0.198  0.3619  0.7633 -0.1940
  104MOL     C233168   4.486   5.126   0.249  0.2366  0.8886  0.2053
  104MOL     C333169   4.390   5.075   0.340 -0.2591  0.3971  0.2259
  104MOL     C433170   4.283   5.157   0.382 -0.0784  0.3763  0.0325
  104MOL     C533171   4.272   5.288   0.338  0.0432 -0.3102  0.3233
  104MOL     C633172   4.162   5.371   0.403  0.7263 -0.5583  0.2015
  104MOL     C733173   4.376   5.341   0.253  0.2707  0.0221 -0.3519
  104MOL     C833174   4.484   5.263   0.210 -0.0034  0.7196  0.7965
  104MOL     H933175   4.655   5.082   0.117  0.1903  1.0135 -0.1788
  104MOL    H1033176   4.674   5.033   0.275  1.6841  0.1813 -1.5379
  104MOL    H1133177   4.396   4.973   0.374  0.4519  0.1470 -0.6385
  104MOL    H1233178   4.228   5.113   0.464  2.8442 -1.9740  0.8237
  104MOL    H1333179   4.075   5.305   0.395 -0.0071  0.1713  1.9317
  104MOL    H1433180   4.174   5.387   0.510 -1.2981  0.9944  0.2211
  104MOL    H1533181   4.351   5.436   0.210 -0.4685 -0.1507 -0.3168
  104MOL    H1633182   4.566   5.294   0.148  0.4142 -1.3363  0.2846
  104MOL    H1733183   4.570   4.933   0.176  0.9498  0.7192 -0.7199
  104MOL    C1833184   4.122   5.503   0.329 -0.2562  0.1928 -0.3588
  104MOL    C1933185   4.014   5.573   0.403  0.5375 -0.8190  0.5859
  104MOL    C2033186   3.886   5.516   0.394 -0.0413  0.8062 -0.0642
  104MOL    C2133187   3.776   5.582   0.462  0.2348  0.3083  0.5728
  104MOL    C2233188   3.792   5.702   0.529  0.3834  0.7502  0.2844
  104MOL    C2333189   3.685   5.767   0.604  0.5944  0.6869  0.3012
  104MOL    C2433190   3.918   5.761   0.531 -0.0788 -0.7080  0.7552
  104MOL    C2533191   4.029   5.701   0.469 -0.1985 -0.3732 -0.6198
  104MOL    H2633192   4.200   5.579   0.333 -0.8156  0.7281  0.4902
  104MOL    H2733193   4.093   5.488   0.226 -1.7598  1.0811 -0.0732
  104MOL    H2833194   3.869   5.423   0.343  0.6224  1.0036 -0.6540
  104MOL    H2933195   3.678   5.536   0.453  0.6299 -0.7164  1.4492
  104MOL    H3033196   3.742   5.822   0.679  1.7815  0.4713 -0.4241
  104MOL    H3133197   3.634   5.693   0.665  0.1919  0.3144 -0.4844
  104MOL    H3233198   3.932   5.860   0.573  0.9617 -0.0925 -1.0033
  104MOL    H3333199   4.128   5.743   0.480 -0.2895  0.4872 -2.7214
  104MOL    C3433200   3.571   5.845   0.533  0.6038  0.2045  0.1204
  104MOL    C3533201   3.472   5.910   0.624 -0.4702  0.1483 -0.3099
  104MOL    C3633202   3.481   6.047   0.662 -0.4013  0.8581  0.0255
  104MOL    C3733203   3.382   6.110   0.735  0.0968  0.2791 -0.0265
  104MOL    C3833204   3.275   6.035   0.788 -0.4782  0.5270 -0.2906
  104MOL    C3933205   3.164   6.103   0.874  0.1075  0.1362 -0.1600
  104MOL    C4033206   3.266   5.900   0.753  0.0968  1.0079 -0.1989
  104MOL    C4133207   3.369   5.835   0.677 -0.1848  0.7672 -0.3165
  104MOL    H4233208   3.523   5.768   0.471 -0.2906  0.3306  0.6468
  104MOL    H4333209   3.606   5.930   0.475  2.4728 -0.9789 -0.5400
  104MOL    H4433210   3.571   6.095   0.626 -1.3408  1.4446 -1.6278
  104MOL    H4533211   3.397   6.212   0.764 -0.3724  1.2001 -2.8701
  104MOL    H4633212   3.074   6.076   0.819  0.6045  2.3923 -2.1462
  104MOL    H4733213   3.157   6.063   0.975  2.8376  0.1097  0.0535
  104MOL    H4833214   3.170   5.858   0.777  1.1966 -1.9685 -0.7439
  104MOL    H4933215   3.371   5.728   0.659  0.3064  0.9640 -1.4911
  104MOL    C5033216   3.167   6.259   0.881 -0.1149  0.8123  0.7727
  104MOL    C5133217   3.041   6.318   0.939 -0.2162  0.4637  0.3273
  104MOL    C5233218   3.053   6.381   1.065 -0.2185  0.2095  0.2671
  104MOL    C5333219   2.947   6.444   1.127 -0.1141  0.8177  0.0550
  104MOL    C5433220   2.822   6.427   1.060 -0.2885 -0.1457  0.3404
  104MOL    C5533221   2.702   6.484   1.125 -0.5389 -0.6444  0.4440
  104MOL    C5633222   2.805   6.361   0.942  0.0052 -0.0169  0.4050
  104MOL    C5733223   2.916   6.306   0.875  0.5394  0.4039 -0.1542
  104MOL    H5833224   3.182   6.299   0.781  0.3697  0.4438  0.6944
  104MOL    H5933225   3.260   6.282   0.935  1.1121 -1.6965 -0.2052
  104MOL    H6033226   3.145   6.399   1.119  0.1293  0.8839 -0.5310
  104MOL    H6133227   2.965   6.509   1.210  1.3685  0.7666 -0.2162
  104MOL    H6233228   2.622   6.411   1.111 -0.6068 -0.6633  0.9128
  104MOL    H6333229   2.719   6.500   1.231 -0.2420 -1.9960  0.6131
  104MOL    H6433230   2.704   6.350   0.905  0.6843 -0.3948 -1.3828
  104MOL    H6533231   2.907   6.239   0.791  2.8461  2.6521 -2.3189
  104MOL    C6633232   2.650   6.613   1.064 -0.1601 -0.1591 -0.5063
  104MOL    C6733233   2.511   6.649   1.089  1.0785 -0.2689  0.2547
  104MOL    C6833234   2.412   6.582   1.007 -0.3438 -0.6516  0.0198
  104MOL    C6933235   2.278   6.590   1.051  0.0259  0.2485 -0.3274
  104MOL    C7033236   2.239   6.658   1.171  0.2573  0.4386 -0.4946
  104MOL    C7133237   2.094   6.665   1.224 -0.0548 -0.1435 -0.1226
  104MOL    C7233238   2.343   6.727   1.244  0.0620  0.1381  0.0946
  104MOL    C7333239   2.475   6.725   1.206 -0.0854 -0.0895 -0.2149
  104MOL    H7433240   2.665   6.608   0.957  0.6623  0.6987 -0.4416
  104MOL    H7533241   2.714   6.701   1.074  0.0771 -0.2194 -1.4830
  104MOL    H7633242   2.431   6.524   0.918  2.9968  0.9678 -0.4153
  104MOL    H7733243   2.202   6.543   0.990  0.9659 -1.9372  0.1221
  104MOL    H7833244   2.101   6.695   1.328 -0.4635 -1.6350  0.3459
  104MOL    H7933245   2.041   6.571   1.208  0.8138 -0.6966  0.2052
  104MOL    H8033246   2.315   6.776   1.336  0.3019  3.1834 -1.3644
  104MOL    H8133247   2.541   6.763   1.283 -0.3225  0.3646 -0.2322
  104MOL    C8233248   2.025   6.780   1.143  0.0483 -0.7393  0.2552
  104MOL    C8333249   1.875   6.796   1.157 -0.2916  0.8683 -0.2202
  104MOL    C8433250   1.813   6.825   1.278  0.4635 -0.8620  0.2925
  104MOL    C8533251   1.673   6.836   1.287 -0.3616 -0.5352 -0.6865
  104MOL    C8633252   1.597   6.822   1.166  0.2756  0.0461  0.6458
  104MOL    C8733253   1.443   6.832   1.158 -0.7600 -0.0702  0.0966
  104MOL    C8833254   1.658   6.777   1.048 -0.2195 -0.5151  0.6285
  104MOL    C8933255   1.796   6.758   1.050 -0.7036  0.1587  0.4169
  104MOL    H9033256   2.047   6.757   1.039 -3.1056 -3.4976  0.1479
  104MOL    H9133257   2.069   6.876   1.172  0.8075 -1.1800  0.5690
  104MOL    H9233258   1.872   6.845   1.367  1.7163 -0.4256 -0.6155
  104MOL    H9333259   1.618   6.851   1.378  0.0546  0.0449 -0.5275
  104MOL    H9433260   1.425   6.884   1.063 -2.3609  0.7761  0.8451
  104MOL    H9533261   1.403   6.903   1.230 -0.4197 -0.3109  0.5278
  104MOL    H9633262   1.599   6.747   0.962  0.4555  0.8755 -0.3423
  104MOL    H9733263   1.845   6.710   0.967 -0.3110  1.2034  0.0268
  104MOL    C9833264   1.371   6.693   1.168  0.0429 -0.6045  0.2278
  104MOL    C9933265   1.217   6.711   1.166  0.2687 -0.7087  0.4197
  104MOL   C10033266   1.151   6.708   1.038  0.0085 -0.2309 -0.6237
  104MOL   C10133267   1.012   6.735   1.028 -0.4404  0.4236  0.1262
  104MOL   C10233268   0.932   6.759   1.139  0.4746 -1.1036 -0.1623
  104MOL   C10333269   0.779   6.787   1.131  0.4820  0.7450 -0.1747
  104MOL   C10433270   1.000   6.763   1.266  0.3750 -1.3879  0.0397
  104MOL   C10533271   1.141   6.735   1.283 -0.2540  0.7371 -0.1796
  104MOL   H10633272   1.411   6.629   1.247 -0.7293 -2.2371 -0.6791
  104MOL   H10733273   1.393   6.639   1.076  0.7697 -0.8766  0.5541
  104MOL   H10833274   1.207   6.682   0.950  0.9634  1.5944 -0.5563
  104MOL   H10933275   0.953   6.726   0.938  0.1816  0.5116 -0.2970
  104MOL   H11033276   0.733   6.699   1.087  1.2374 -0.0837  0.6580
  104MOL   H11133277   0.748   6.794   1.236  1.1009 -1.1175  0.1475
  104MOL   H11233278   0.946   6.797   1.354  1.1103  0.9576 -0.3968
  104MOL   H11333279   1.184   6.742   1.382 -1.8361  1.1117  0.4963
  104MOL   C11433280   0.747   6.913   1.049  0.3852  0.5024  0.9781
  104MOL   C11533281   0.597   6.940   1.051  0.0404 -0.0843  0.1927
  104MOL   C11633282   0.544   7.011   1.158  0.1526  0.3335 -0.2753
  104MOL   C11733283   0.405   7.028   1.162  0.3413 -0.1018 -1.1160
  104MOL   C11833284   0.323   6.998   1.051  0.4596  0.0128  0.4200
  104MOL   C11933285   0.177   7.022   1.061  0.5282  1.2253 -0.1241
  104MOL   C12033286   0.385   6.927   0.941 -0.4420 -0.1829  0.1236
  104MOL   C12133287   0.521   6.896   0.939 -0.0810 -0.2752  0.0018
  104MOL   H12233288   0.780   6.898   0.947 -1.7030  1.7785  0.0833
  104MOL   H12333289   0.802   7.003   1.077 -0.4558  1.1607  0.5389
  104MOL   H12433290   0.611   7.040   1.238 -0.9100  0.8893  0.4213
  104MOL   H12533291   0.363   7.073   1.251  1.6538  0.3726 -0.7131
  104MOL   H12633292   0.139   6.946   0.992 -0.6626  0.1317  1.6934
  104MOL   H12733293   0.132   6.994   1.156 -1.7784 -1.9981 -2.0753
  104MOL   H12833294   0.323   6.898   0.857  0.1171  1.8937 -1.0541
  104MOL   H12933295   0.558   6.836   0.858  1.8489  0.9340 -0.0422
  104MOL   C13033296   0.127   7.165   1.014  0.2308 -0.2887 -0.6174
  104MOL   C13133297  -0.025   7.195   1.026 -0.2315 -0.0424 -0.1140
  104MOL   C13233298  -0.108   7.218   0.912  0.8907 -0.2151  0.6125
  104MOL   C13333299  -0.244   7.247   0.923 -0.1076 -0.4259 -0.1368
  104MOL   C13433300  -0.308   7.259   1.048  0.5559  0.2061  0.9606
  104MOL   C13533301  -0.452   7.304   1.052 -0.2641  0.3631 -0.3604
  104MOL   C13633302  -0.227   7.239   1.165 -0.2708  0.0104  0.0902
  104MOL   C13733303  -0.089   7.207   1.153 -0.3071  0.1581 -0.6137
  104MOL   H13833304   0.156   7.184   0.911  1.9280  1.2553  0.1145
  104MOL   H13933305   0.188   7.228   1.079 -1.6938  1.8060 -0.7975
  104MOL   H14033306  -0.056   7.220   0.817  0.8063 -1.0083  0.5476
  104MOL   H14133307  -0.287   7.283   0.830 -0.1879 -0.9272 -0.3000
  104MOL   H14233308  -0.506   7.221   1.005  1.2402 -0.5963 -0.4470
  104MOL   H14333309  -0.489   7.309   1.154 -1.3201  2.4263 -0.8216
  104MOL   H14433310  -0.273   7.242   1.263 -1.8058  0.5983 -0.6313
  104MOL   H14533311  -0.032   7.173   1.239 -3.2702 -4.3026 -0.2493
  104MOL   C14633312  -0.491   7.440   0.991 -0.6665 -0.2236 -0.1493
  104MOL   C14733313  -0.639   7.452   0.970 -0.2743  0.2234 -0.0710
  104MOL   C14833314  -0.725   7.482   1.077 -0.0203 -0.2652  0.2967
  104MOL   C14933315  -0.863   7.500   1.054 -0.4223 -0.1935  0.0062
  104MOL   C15033316  -0.913   7.476   0.925 -0.1023 -0.0627 -0.5341
  104MOL   C15133317  -1.064   7.471   0.900 -0.2255  0.5955  0.1063
  104MOL   C15233318  -0.828   7.457   0.815  0.4374 -0.1571  0.0218
  104MOL   C15333319  -0.690   7.448   0.837  0.3182  0.2415  0.0654
  104MOL   H15433320  -0.434   7.455   0.899 -1.7281  0.3822 -0.7110
  104MOL   H15533321  -0.461   7.522   1.056 -1.3523  1.0943 -1.4536
  104MOL   H15633322  -0.696   7.479   1.181  0.3360  0.0006  0.2042
  104MOL   H15733323  -0.931   7.521   1.135 -0.5002  0.1743 -0.1533
  104MOL   H15833324  -1.087   7.400   0.821  0.0626 -0.7988  1.2496
  104MOL   H15933325  -1.106   7.418   0.986 -0.1195 -0.6452 -0.5921
  104MOL   H16033326  -0.863   7.434   0.716  0.4107 -0.1207  0.0228
  104MOL   H16133327  -0.624   7.440   0.752 -0.4305  1.4519 -0.6457
  104MOL   C16233328  -1.125   7.606   0.885  0.6717 -0.8279  0.0706
  104MOL   C16333329  -1.079   7.718   0.986  0.4712 -0.2882 -0.7355
  104MOL   C16433330  -0.969   7.799   0.964  0.6377 -0.0986  0.6305
  104MOL   C16533331  -0.930   7.895   1.051 -0.0506 -0.2615 -0.2445
  104MOL   C16633332  -1.009   7.920   1.164  0.1900  0.1817  0.5444
  104MOL   C16733333  -0.974   8.040   1.251 -0.3509 -0.1876 -0.9163
  104MOL   C16833334  -1.126   7.845   1.187 -0.2995  0.6004 -0.3489
  104MOL   C16933335  -1.159   7.745   1.095 -0.1411 -0.0548 -0.3761
  104MOL   H17033336  -1.232   7.599   0.866  0.7471 -1.0279 -0.2847
  104MOL   H17133337  -1.091   7.649   0.791 -1.8238  1.7559  0.2740
  104MOL   H17233338  -0.906   7.797   0.876  1.2191  1.6919  0.9861
  104MOL   H17333339  -0.847   7.961   1.030 -0.7118 -0.2894 -3.0891
  104MOL   H17433340  -0.929   8.125   1.199 -0.8281  1.0124  0.5572
  104MOL   H17533341  -1.061   8.098   1.282  1.0959  0.5643  1.9477
  104MOL   H17633342  -1.194   7.852   1.270  0.7086 -0.3055  0.5632
  104MOL   H17733343  -1.241   7.681   1.128  1.0674 -1.7563 -0.5918
  104MOL   C17833344  -0.890   8.002   1.377 -0.1270  0.0454 -0.6442
  104MOL   C17933345  -0.742   7.947   1.353 -0.0498 -0.3354  0.5072
  104MOL   C18033346  -0.715   7.816   1.333 -0.7827 -0.0471 -1.3970
  104MOL   C18133347  -0.586   7.773   1.291  0.6961 -0.0014 -0.8815
  104MOL   C18233348  -0.476   7.866   1.286  0.1674 -0.0922  0.0679
  104MOL   C18333349  -0.332   7.827   1.253 -0.2591  0.5074 -0.3825
  104MOL   C18433350  -0.505   8.001   1.317 -0.0784  0.4905  0.5861
  104MOL   C18533351  -0.640   8.037   1.348 -0.2689 -0.5190  0.0303
  104MOL   H18633352  -0.942   7.916   1.420 -0.6956  1.3161  1.2754
  104MOL   H18733353  -0.882   8.086   1.446 -3.7223  0.6751 -0.9338
  104MOL   H18833354  -0.787   7.735   1.333  0.0152 -0.7569 -0.3571
  104MOL   H18933355  -0.558   7.670   1.281  1.6381  0.0019  1.3030
  104MOL   H19033356  -0.337   7.782   1.154 -3.2194  0.7800 -0.3945
  104MOL   H19133357  -0.281   7.922   1.238 -2.2792  1.8138  0.7228
  104MOL   H19233358  -0.434   8.082   1.321  1.4426 -0.8113  0.5345
  104MOL   H19333359  -0.671   8.140   1.360  1.0301  0.0197 -1.0881
  104MOL   C19433360  -0.266   7.724   1.349  0.6742  0.3024 -0.2229
  104MOL   C19533361  -0.121   7.695   1.302 -0.1334  0.2132 -0.1300
  104MOL   C19633362  -0.008   7.750   1.365  0.1989 -0.2605  0.0688
  104MOL   C19733363   0.123   7.703   1.326 -0.4828  0.0450  0.1466
  104MOL   C19833364   0.138   7.620   1.215  1.1856  1.1808 -0.1002
  104MOL   C19933365   0.278   7.583   1.168  0.5856 -1.4446 -0.1454
  104MOL   C20033366   0.024   7.578   1.144 -0.2184  0.2745 -0.0324
  104MOL   C20133367  -0.100   7.612   1.194  0.1555 -0.4523 -0.7208
  104MOL   H20233368  -0.324   7.632   1.349  1.7296 -0.3815 -0.1100
  104MOL   H20333369  -0.268   7.767   1.449 -2.9758  0.9973 -0.5343
  104MOL   H20433370  -0.022   7.821   1.445 -0.8922  0.2887 -0.5868
  104MOL   H20533371   0.213   7.733   1.377  0.9448 -0.9337 -1.7266
  104MOL   H20633372   0.257   7.551   1.066  1.2247  1.3615 -1.2136
  104MOL   H20733373   0.342   7.671   1.155 -0.1757 -0.5061  2.1360
  104MOL   H20833374   0.018   7.525   1.051 -1.8589 -0.3567  0.4176
  104MOL   H20933375  -0.188   7.580   1.140 -1.1380  0.5664  0.7110
  104MOL   C21033376   0.345   7.470   1.246  0.6756 -0.6021 -0.6019
  104MOL   C21133377   0.491   7.447   1.212  0.7992  0.5405  0.0231
  104MOL   C21233378   0.598   7.519   1.269  0.1542 -0.5667  0.8468
  104MOL   C21333379   0.729   7.495   1.227 -0.7509  0.1978 -0.3869
  104MOL   C21433380   0.760   7.393   1.134  0.0126 -0.1566 -0.1687
  104MOL   C21533381   0.904   7.376   1.089  0.6561  0.0231 -0.4564
  104MOL   C21633382   0.655   7.324   1.078  0.4976  0.4083 -0.1950
  104MOL   C21733383   0.519   7.348   1.116  0.2403  0.7537 -0.4324
  104MOL   H21833384   0.273   7.387   1.239 -1.2795  0.8768  1.3711
  104MOL   H21933385   0.345   7.501   1.350  1.3364 -2.3982 -0.0392
  104MOL   H22033386   0.584   7.596   1.343 -0.1489 -0.2996  0.5169
  104MOL   H22133387   0.813   7.555   1.261 -2.8905  1.5072  2.8203
  104MOL   H22233388   0.921   7.334   0.990 -0.9028  0.7743 -1.0493
  104MOL   H22333389   0.951   7.474   1.081  0.8157  0.0178  0.4375
  104MOL   H22433390   0.688   7.245   1.011 -1.0913 -0.9055  0.5206
  104MOL   H22533391   0.427   7.305   1.079  0.7732  0.0978 -0.9874
  104MOL   C22633392   0.987   7.301   1.197  0.4375  0.4513  0.4165
  104MOL   C22733393   1.132   7.301   1.154  0.1027  0.2561  0.1622
  104MOL   C22833394   1.205   7.423   1.161  0.0139  0.2304 -0.0348
  104MOL   C22933395   1.344   7.427   1.137  0.0986  0.3489  0.6578
  104MOL   C23033396   1.415   7.318   1.091  0.4734 -0.2399  0.1295
  104MOL   C23133397   1.565   7.317   1.059 -0.1179  0.0797  0.5768
  104MOL   C23233398   1.344   7.190   1.082  0.3818  0.2408  0.5112
  104MOL   C23333399   1.205   7.183   1.116 -0.2403 -0.1153 -0.2922
  104MOL   H23433400   0.963   7.200   1.232  0.5694  0.3316  0.1589
  104MOL   H23533401   0.984   7.349   1.295 -0.9382  0.0096  0.6069
  104MOL   H23633402   1.162   7.511   1.207 -1.2652 -0.6372  0.4480
  104MOL   H23733403   1.396   7.521   1.154 -0.3059  1.0307 -1.7577
  104MOL   H23833404   1.581   7.256   0.970  1.0611  0.0256  0.8142
  104MOL   H23933405   1.601   7.416   1.032 -0.7398 -0.1083 -1.0114
  104MOL   H24033406   1.403   7.104   1.053  1.1731  0.5594  1.1503
  104MOL   H24133407   1.142   7.095   1.123 -2.0373  1.2434  1.6992
  104MOL   C24233408   1.648   7.266   1.174  0.5432  0.2834  0.1872
  104MOL   C24333409   1.790   7.247   1.129 -0.0432 -0.4879  0.9872
  104MOL   C24433410   1.896   7.333   1.166  0.0528  0.3301  0.7579
  104MOL   C24533411   2.033   7.303   1.124 -0.1049  0.6564  0.2160
  104MOL   C24633412   2.054   7.200   1.032 -0.1520 -0.2278 -0.3142
  104MOL   C24733413   2.199   7.179   0.979  0.0905  0.1100  0.5369
  104MOL   C24833414   1.951   7.121   0.987 -0.1345  0.1883  0.6007
  104MOL   C24933415   1.823   7.142   1.036  0.0578 -0.5091  0.3948
  104MOL   H25033416   1.653   7.335   1.257  1.8012  0.9784 -0.4635
  104MOL   H25133417   1.614   7.167   1.206 -1.2357  1.0334  0.7143
  104MOL   H25233418   1.876   7.401   1.247 -0.9848  0.2852  0.5476
  104MOL   H25333419   2.121   7.355   1.159  1.4241 -0.9673 -1.0873
  104MOL   H25433420   2.194   7.109   0.895 -1.5574  0.2701  0.4697
  104MOL   H25533421   2.255   7.270   0.961  1.7569 -0.9091  0.4935
  104MOL   H25633422   1.970   7.052   0.907  3.0345 -0.1611  1.5942
  104MOL   H25733423   1.735   7.089   1.001 -2.4753  1.9359  2.8017
  104MOL   C25833424   2.275   7.103   1.086 -1.0114 -0.0283  0.0072
  104MOL   C25933425   2.426   7.101   1.057 -0.4024 -0.5165 -0.0152
  104MOL   C26033426   2.477   7.006   0.969 -0.2099  0.4383 -0.0811
  104MOL   C26133427   2.612   6.972   0.959 -0.5934  0.0354 -0.2396
  104MOL   C26233428   2.698   7.053   1.035  0.4899 -0.3340 -0.2425
  104MOL   C26333429   2.846   7.020   1.023 -0.4785 -0.2829  0.1041
  104MOL   C26433430   2.650   7.160   1.110 -0.0923 -0.6134 -0.8502
  104MOL   C26533431   2.512   7.184   1.125 -0.5991 -0.0792 -0.7961
  104MOL   H26633432   2.233   7.003   1.095 -2.5188  0.4607 -1.3250
  104MOL   H26733433   2.260   7.141   1.187 -3.1198 -0.0492 -0.2756
  104MOL   H26833434   2.415   6.932   0.920  1.8749 -0.4688 -1.4581
  104MOL   H26933435   2.646   6.896   0.891  0.0078 -0.9448  1.1338
  104MOL   H27033436   2.861   6.931   0.961  1.1193  1.4210 -1.9958
  104MOL   H27133437   2.898   7.096   0.965 -0.4801 -0.4830 -0.1642
  104MOL   H27233438   2.720   7.223   1.163 -0.2713  0.3405 -1.7203
  104MOL   H27333439   2.470   7.264   1.185 -1.2481 -3.6318  3.7924
  104MOL   C27433440   2.908   6.969   1.156 -0.5095 -0.7893  1.1073
  104MOL   C27533441   3.057   6.950   1.132  0.8946  0.3008  0.6718
  104MOL   C27633442   3.107   6.827   1.076 -0.9024 -0.6336 -0.6261
  104MOL   C27733443   3.249   6.804   1.057  0.2511  0.1863 -0.0932
  104MOL   C27833444   3.340   6.902   1.096  0.3956 -0.4041 -0.2245
  104MOL   C27933445   3.494   6.890   1.085  0.0516  0.6131 -0.2246
  104MOL   C28033446   3.297   7.025   1.149  0.3737 -0.3045  0.3143
  104MOL   C28133447   3.160   7.045   1.169 -1.0258 -0.2138  0.0937
  104MOL   H28233448   2.904   7.054   1.225 -0.1629 -0.4714  0.7381
  104MOL   H28333449   2.859   6.884   1.204  0.9664 -0.9829  2.3248
  104MOL   H28433450   3.050   6.739   1.050 -1.1245 -0.4613 -0.7192
  104MOL   H28533451   3.288   6.711   1.019  1.5595  0.6882  0.0040
  104MOL   H28633452   3.527   6.972   1.021 -0.0055 -0.1760 -1.2741
  104MOL   H28733453   3.546   6.908   1.179 -2.2150 -1.9461  1.5965
  104MOL   H28833454   3.356   7.111   1.175  0.5656  0.0228 -1.1690
  104MOL   H28933455   3.138   7.146   1.200  0.2747  0.0309  0.2475
  104MOL   C29033456   3.549   6.763   1.017 -0.4344 -0.0018  0.2102
  104MOL   C29133457   3.702   6.768   0.996 -0.3156 -0.1998 -0.3232
  104MOL   C29233458   3.788   6.715   1.092  0.4706 -0.1155  0.1725
  104MOL   C29333459   3.931   6.721   1.074  0.1889  0.3648  0.5037
  104MOL   C29433460   3.989   6.804   0.976  0.0627 -0.3110  0.2031
  104MOL   C29533461   4.143   6.820   0.959  0.3477 -0.0245  0.0211
  104MOL   C29633462   3.896   6.868   0.888 -0.2987 -0.6860  0.3444
  104MOL   C29733463   3.759   6.837   0.888 -0.3872  0.0848  0.0433
  104MOL   H29833464   3.502   6.767   0.919  2.6173 -1.7539 -1.3826
  104MOL   H29933465   3.507   6.678   1.073 -1.6263  0.2108 -0.3439
  104MOL   H30033466   3.754   6.659   1.178  0.1493 -1.6366 -0.9120
  104MOL   H30133467   3.993   6.673   1.148 -1.4145 -0.5257  1.2836
  104MOL   H30233468   4.197   6.728   0.941 -0.1216 -0.2758 -0.0967
  104MOL   H30333469   4.150   6.878   0.866 -2.2800 -2.1829 -1.6164
  104MOL   H30433470   3.920   6.935   0.807 -2.6260  0.1972  0.3422
  104MOL   H30533471   3.689   6.890   0.824 -1.2469  0.3979  1.2180
  104MOL   C30633472   4.207   6.908   1.067 -0.5162 -0.4661 -0.9262
  104MOL   C30733473   4.346   6.947   1.035  0.3400 -0.4014  0.6170
  104MOL   C30833474   4.449   6.891   1.109 -0.3097 -0.5604  0.6882
  104MOL   C30933475   4.585   6.922   1.087 -0.5061 -0.5344  0.1488
  104MOL   C31033476   4.613   7.021   0.997  0.1916  0.4547 -0.3368
  104MOL   C31133477   4.753   7.064   0.968  0.9126  0.5083 -0.2595
  104MOL   C31233478   4.513   7.079   0.912  0.0848  0.3505 -0.2370
  104MOL   C31333479   4.378   7.041   0.934 -0.4128 -0.8849  0.2790
  104MOL   H31433480   4.210   6.850   1.160  1.2085 -1.5538 -1.6386
  104MOL   H31533481   4.154   7.001   1.085  0.2820 -0.4118  1.3757
  104MOL   H31633482   4.424   6.811   1.177 -0.9726 -1.1123 -0.2036
  104MOL   H31733483   4.671   6.880   1.136  1.9416  0.8855 -2.6848
  104MOL   H31833484   4.772   7.169   0.988  0.4244  0.7030 -0.7771
  104MOL   H31933485   4.811   6.997   1.031 -0.8328  0.1218  0.9790
  104MOL   H32033486   4.548   7.133   0.825 -0.5418 -0.8197 -1.2360
  104MOL   H32133487   4.307   7.081   0.863  2.1437  0.6191 -1.5502
  104MOL   H32233488   4.781   7.039   0.865 -1.4758  2.0420 -1.3397
  105MOL     C133489   0.576   7.753   4.433  0.7721 -0.8838  0.2607
  105MOL     C233490   0.438   7.815   4.462 -0.2560  1.0739  0.1037
  105MOL     C333491   0.416   7.949   4.483  0.6526 -0.6463 -0.3097
  105MOL     C433492   0.286   8.000   4.500 -0.9605  1.2279 -0.8570
  105MOL     C533493   0.175   7.910   4.489  0.0559 -0.9217  0.5347
  105MOL     C633494   0.036   7.978   4.476  0.4527  0.1985 -0.2686
  105MOL     C733495   0.199   7.778   4.470 -0.3076 -0.0652  0.3816
  105MOL     C833496   0.323   7.728   4.461 -0.2053 -0.3389 -0.0841
  105MOL     H933497   0.571   7.644   4.424  0.7591 -0.9706  1.3101
  105MOL    H1033498   0.633   7.781   4.344  0.5593 -1.6996 -0.1422
  105MOL    H1133499   0.503   8.014   4.479  0.2418 -0.2005 -2.4913
  105MOL    H1233500   0.277   8.107   4.513  1.1879  1.2657  0.6997
  105MOL    H1333501   0.041   8.083   4.448 -0.5199  1.0023  2.4816
  105MOL    H1433502  -0.020   7.938   4.391 -0.6833  1.9720 -0.3950
  105MOL    H1533503   0.113   7.712   4.464  0.6003 -1.1807 -0.5124
  105MOL    H1633504   0.340   7.623   4.438  2.0001 -0.0392  0.0519
  105MOL    H1733505   0.634   7.775   4.522  1.0254 -0.2053 -0.0639
  105MOL    C1833506  -0.052   7.965   4.604 -0.1386 -0.1908 -0.0197
  105MOL    C1933507  -0.196   8.010   4.583 -0.3722  0.5865 -1.3347
  105MOL    C2033508  -0.296   7.916   4.545 -0.6891  0.3749  0.5649
  105MOL    C2133509  -0.428   7.957   4.529  0.4633 -0.7253  0.0752
  105MOL    C2233510  -0.457   8.093   4.533  0.1760 -0.0508 -0.5891
  105MOL    C2333511  -0.593   8.147   4.489 -0.3929  0.3567  0.0814
  105MOL    C2433512  -0.356   8.189   4.565  0.6148  0.2526  0.6870
  105MOL    C2533513  -0.237   8.146   4.607  0.4064 -0.3663 -0.1122
  105MOL    H2633514  -0.045   7.862   4.638  2.1957 -0.4460 -1.1276
  105MOL    H2733515   0.003   8.016   4.683 -0.2069  0.2261 -0.2392
  105MOL    H2833516  -0.258   7.816   4.526  2.8955  1.7931 -0.1091
  105MOL    H2933517  -0.506   7.884   4.512  0.0579 -0.7472  1.9668
  105MOL    H3033518  -0.654   8.074   4.437  0.2696  0.1592 -0.4187
  105MOL    H3133519  -0.583   8.225   4.414  1.4609  0.7738  0.7327
  105MOL    H3233520  -0.388   8.290   4.583 -0.6025  0.0476 -0.2316
  105MOL    H3333521  -0.162   8.221   4.629 -1.4752  0.9378  2.0546
  105MOL    C3433522  -0.674   8.192   4.622  0.0651 -0.0525  0.3907
  105MOL    C3533523  -0.800   8.270   4.583  0.6432 -0.8772 -0.6206
  105MOL    C3633524  -0.892   8.221   4.488  0.8653  1.0433  0.2549
  105MOL    C3733525  -1.010   8.297   4.456 -0.3444  0.4849 -0.2800
  105MOL    C3833526  -1.022   8.427   4.516  0.4521 -0.2861  0.1701
  105MOL    C3933527  -1.142   8.514   4.491 -0.4848  0.3750 -0.1361
  105MOL    C4033528  -0.931   8.470   4.608  0.3207 -0.3314 -0.2967
  105MOL    C4133529  -0.819   8.397   4.649  0.0192 -0.6547 -0.3450
  105MOL    H4233530  -0.612   8.256   4.684 -0.2892  2.9482 -2.2625
  105MOL    H4333531  -0.708   8.103   4.676  2.3382 -0.8537  0.5333
  105MOL    H4433532  -0.880   8.128   4.434  1.5509  2.1095 -1.4745
  105MOL    H4533533  -1.075   8.260   4.378  1.0887 -1.4020 -0.6269
  105MOL    H4633534  -1.135   8.615   4.533  2.3476 -0.8061  2.3942
  105MOL    H4733535  -1.161   8.529   4.385 -2.9534 -0.4053  0.1680
  105MOL    H4833536  -0.944   8.560   4.667  0.4344 -0.2469 -0.3983
  105MOL    H4933537  -0.752   8.429   4.727 -2.4839 -1.2968  2.1226
  105MOL    C5033538  -1.270   8.460   4.564  0.6762 -0.5649 -0.6029
  105MOL    C5133539  -1.383   8.548   4.557 -0.0438 -0.2728 -0.7139
  105MOL    C5233540  -1.420   8.635   4.667 -0.4241 -0.2888  0.2726
  105MOL    C5333541  -1.539   8.716   4.662 -0.4177  1.0983 -0.1188
  105MOL    C5433542  -1.624   8.708   4.555 -0.3918  0.4603 -0.2400
  105MOL    C5533543  -1.750   8.785   4.557 -0.0802 -0.0112 -0.4957
  105MOL    C5633544  -1.600   8.612   4.451  0.6477 -0.2695  0.3755
  105MOL    C5733545  -1.482   8.536   4.449 -0.6503  0.3197  0.0828
  105MOL    H5833546  -1.239   8.429   4.664  1.8051  1.0755 -0.4287
  105MOL    H5933547  -1.293   8.369   4.508 -1.2080 -1.3367  1.3421
  105MOL    H6033548  -1.371   8.645   4.763 -1.7195  3.3508  0.6379
  105MOL    H6133549  -1.556   8.773   4.752 -1.0559  1.2505 -0.3316
  105MOL    H6233550  -1.725   8.887   4.585 -0.8605 -0.3906  1.7792
  105MOL    H6333551  -1.773   8.799   4.452 -0.2269 -1.1675 -0.6311
  105MOL    H6433552  -1.684   8.588   4.387 -0.0611  0.5240  0.9826
  105MOL    H6533553  -1.469   8.462   4.372  1.0837  1.5011 -0.7871
  105MOL    C6633554  -1.864   8.715   4.643 -0.8109  0.1079  0.0097
  105MOL    C6733555  -1.990   8.797   4.630 -0.0276  0.8210 -0.1153
  105MOL    C6833556  -2.043   8.852   4.754  0.0734  0.1510 -0.8971
  105MOL    C6933557  -2.170   8.916   4.750  0.0393 -0.1234 -0.3667
  105MOL    C7033558  -2.242   8.934   4.630  0.8642  0.2023 -0.0247
  105MOL    C7133559  -2.375   9.006   4.636 -0.3021  0.4520  0.2344
  105MOL    C7233560  -2.194   8.868   4.514 -1.0050  0.5890 -0.1871
  105MOL    C7333561  -2.071   8.802   4.517 -0.3914  0.1443  0.1229
  105MOL    H7433562  -1.828   8.722   4.746  0.6948 -2.5848 -0.2690
  105MOL    H7533563  -1.891   8.611   4.623 -0.3217 -0.0418  0.1388
  105MOL    H7633564  -1.985   8.855   4.845 -1.2674  2.4006 -0.0792
  105MOL    H7733565  -2.196   8.958   4.846  1.7287  2.3208 -0.9437
  105MOL    H7833566  -2.388   9.055   4.539  1.7368  1.4693  0.4391
  105MOL    H7933567  -2.373   9.093   4.702  1.0330 -0.3672  1.3085
  105MOL    H8033568  -2.242   8.883   4.419  1.4027  2.4448 -1.1480
  105MOL    H8133569  -2.043   8.750   4.427 -1.3570 -1.9807  0.9981
  105MOL    C8233570  -2.503   8.924   4.671  0.6443 -0.3427  0.2818
  105MOL    C8333571  -2.634   8.997   4.650 -0.1301  0.0277 -0.5160
  105MOL    C8433572  -2.690   9.071   4.763  0.3079  0.1591  0.0450
  105MOL    C8533573  -2.819   9.133   4.752  0.1777 -0.4137 -0.4170
  105MOL    C8633574  -2.888   9.133   4.628  0.7009  0.6383  0.0515
  105MOL    C8733575  -3.016   9.209   4.614 -0.4096  0.4138 -0.5481
  105MOL    C8833576  -2.827   9.073   4.516  0.2367 -0.2785  0.0399
  105MOL    C8933577  -2.704   9.004   4.524  0.3801 -0.3639 -0.1592
  105MOL    H9033578  -2.478   8.891   4.772  2.9924  0.0748 -0.1391
  105MOL    H9133579  -2.506   8.837   4.606 -0.9288 -2.0413  2.5600
  105MOL    H9233580  -2.643   9.089   4.858  1.9468 -0.0175 -0.7201
  105MOL    H9333581  -2.857   9.176   4.843 -0.9770 -2.7686  0.2535
  105MOL    H9433582  -3.027   9.228   4.507 -0.3381  2.3391 -0.2294
  105MOL    H9533583  -3.022   9.304   4.667 -0.3049  0.7472 -1.1302
  105MOL    H9633584  -2.873   9.094   4.421  0.2268  0.1708  0.1426
  105MOL    H9733585  -2.653   8.957   4.442  1.3356  1.5717 -0.7198
  105MOL    C9833586  -3.141   9.125   4.658 -0.6255 -0.7813  0.3691
  105MOL    C9933587  -3.264   9.211   4.659 -0.1949 -0.4064 -0.4004
  105MOL   C10033588  -3.341   9.240   4.546  0.1310 -0.1774  0.8517
  105MOL   C10133589  -3.465   9.308   4.559 -0.3472 -0.2257 -0.1030
  105MOL   C10233590  -3.493   9.364   4.683 -0.2201 -0.5723  0.2606
  105MOL   C10333591  -3.625   9.454   4.695 -0.9852 -0.1971  0.7085
  105MOL   C10433592  -3.413   9.349   4.794  0.8252 -0.2764 -0.3974
  105MOL   C10533593  -3.298   9.260   4.789  0.1830 -0.1056 -0.0236
  105MOL   H10633594  -3.112   9.088   4.757  2.7079  1.3329  0.2908
  105MOL   H10733595  -3.148   9.031   4.604  1.9260 -0.7787 -0.0670
  105MOL   H10833596  -3.305   9.201   4.451  0.9290 -0.3422  1.2189
  105MOL   H10933597  -3.537   9.309   4.478  0.3426 -0.5683 -0.7255
  105MOL   H11033598  -3.609   9.542   4.758 -0.9563  0.8391 -0.7141
  105MOL   H11133599  -3.645   9.494   4.595  1.5827  0.1494  0.2841
  105MOL   H11233600  -3.438   9.398   4.887  0.6449 -0.8765 -0.1276
  105MOL   H11333601  -3.233   9.245   4.873  2.1847  2.9247 -0.9242
  105MOL   C11433602  -3.746   9.380   4.758 -0.8221 -0.5587  0.0699
  105MOL   C11533603  -3.871   9.462   4.743 -0.1490  0.4406 -0.4298
  105MOL   C11633604  -3.963   9.438   4.641 -0.1822 -0.6179  0.1411
  105MOL   C11733605  -4.088   9.507   4.637 -0.4967 -0.3914  0.3376
  105MOL   C11833606  -4.118   9.615   4.728 -0.2196  0.0524 -0.3635
  105MOL   C11933607  -4.258   9.682   4.718 -0.1052  0.2007 -0.5251
  105MOL   C12033608  -4.031   9.638   4.831 -0.6449  0.1149 -0.1543
  105MOL   C12133609  -3.902   9.568   4.836 -0.1746  0.0466  0.1176
  105MOL   H12233610  -3.732   9.353   4.862  1.0649 -1.8337 -0.4886
  105MOL   H12333611  -3.760   9.294   4.692  4.5512 -1.1030 -0.5475
  105MOL   H12433612  -3.945   9.362   4.567 -0.3866 -0.9976  0.4794
  105MOL   H12533613  -4.159   9.490   4.558 -1.0800 -3.1690  1.4095
  105MOL   H12633614  -4.249   9.790   4.717  1.5327  0.0817 -1.2516
  105MOL   H12733615  -4.293   9.669   4.616 -0.6371 -0.9501 -0.2058
  105MOL   H12833616  -4.059   9.713   4.904  3.4189  1.1876  0.4058
  105MOL   H12933617  -3.839   9.589   4.921 -0.4043 -2.7889  1.0547
  105MOL   C13033618  -4.360   9.627   4.812  0.3725 -0.2501 -0.8760
  105MOL   C13133619  -4.499   9.697   4.802 -0.3233  0.5292  0.1977
  105MOL   C13233620  -4.598   9.632   4.730  0.5856 -0.3587  0.2478
  105MOL   C13333621  -4.724   9.689   4.726 -0.3064 -0.4002  0.2385
  105MOL   C13433622  -4.751   9.810   4.800  0.4041 -0.3136 -0.9206
  105MOL   C13533623  -4.894   9.859   4.804 -0.6493 -0.0634 -0.5863
  105MOL   C13633624  -4.649   9.878   4.874  0.0096 -0.8864  0.1581
  105MOL   C13733625  -4.525   9.817   4.876  0.2887  0.1530  0.4250
  105MOL   H13833626  -4.335   9.631   4.918  1.2743  1.2981 -1.1306
  105MOL   H13933627  -4.375   9.520   4.793 -1.3377 -0.1755 -0.0280
  105MOL   H14033628  -4.571   9.548   4.667  1.1640  0.9725 -1.3138
  105MOL   H14133629  -4.801   9.639   4.669 -0.0347 -1.5684  0.8805
  105MOL   H14233630  -4.894   9.957   4.854  0.5539 -1.1908  1.7057
  105MOL   H14333631  -4.917   9.873   4.698 -1.1598 -2.1067 -0.7497
  105MOL   H14433632  -4.664   9.966   4.934 -0.8561 -0.2748 -0.9277
  105MOL   H14533633  -4.444   9.874   4.918  3.0997 -0.3037 -3.9919
  105MOL   C14633634  -4.999   9.778   4.879  0.3118 -0.1518  0.5984
  105MOL   C14733635  -5.135   9.842   4.903 -0.4596 -0.6380  0.1352
  105MOL   C14833636  -5.254   9.771   4.873 -0.9998 -0.2399  0.2400
  105MOL   C14933637  -5.375   9.840   4.878 -0.0839 -0.1104 -0.7351
  105MOL   C15033638  -5.384   9.965   4.938  1.0897 -0.3406 -0.3228
  105MOL   C15133639  -5.517  10.035   4.951 -0.2841  0.0279 -0.4505
  105MOL   C15233640  -5.264  10.029   4.976  0.2180 -1.2353  0.2334
  105MOL   C15333641  -5.142   9.969   4.957 -0.3995 -0.1315  0.2752
  105MOL   H15433642  -4.962   9.745   4.976 -0.4679 -0.4827  0.7840
  105MOL   H15533643  -5.000   9.674   4.845  3.9325 -0.1139  0.1511
  105MOL   H15633644  -5.244   9.671   4.833  1.1569 -1.5166  3.7582
  105MOL   H15733645  -5.465   9.784   4.858 -0.0520 -0.5438  0.2607
  105MOL   H15833646  -5.511  10.099   4.863  0.6642 -0.2519 -0.5898
  105MOL   H15933647  -5.604   9.976   4.923  0.4226 -0.6372 -1.2488
  105MOL   H16033648  -5.280  10.132   5.006 -3.2565 -1.1232 -1.7751
  105MOL   H16133649  -5.055  10.023   4.990 -1.4125  1.6504  0.1206
  105MOL   C16233650  -5.540  10.114   5.081  0.6057 -0.1383 -0.1745
  105MOL   C16333651  -5.678  10.180   5.090 -0.6185  0.3368 -0.9768
  105MOL   C16433652  -5.781  10.116   5.158 -0.4080  0.4486  0.2656
  105MOL   C16533653  -5.907  10.164   5.159 -0.3320  0.4226  0.3552
  105MOL   C16633654  -5.932  10.279   5.073 -0.3935  0.2339 -0.1486
  105MOL   C16733655  -6.077  10.318   5.064 -0.1151 -0.0520 -0.4936
  105MOL   C16833656  -5.832  10.344   4.999 -0.3223 -0.4546 -0.5043
  105MOL   C16933657  -5.702  10.300   5.016 -0.2133  1.0722 -0.3778
  105MOL   H17033658  -5.464  10.191   5.089  2.1847 -1.6622 -0.0748
  105MOL   H17133659  -5.521  10.051   5.168  1.1729  0.6828  0.2999
  105MOL   H17233660  -5.766  10.017   5.200 -2.1655 -0.0601 -0.2328
  105MOL   H17333661  -5.986  10.105   5.202  2.2067 -2.4559  1.2343
  105MOL   H17433662  -6.123  10.260   4.984 -1.0501 -1.0310  0.7330
  105MOL   H17533663  -6.134  10.295   5.154 -0.3477  0.0469 -0.6132
  105MOL   H17633664  -5.840  10.425   4.928  2.0787 -1.0110 -1.4736
  105MOL   H17733665  -5.620  10.355   4.971 -1.3660  3.6643  0.5793
  105MOL   C17833666  -6.088  10.464   5.027  0.2414 -0.3996  0.4025
  105MOL   C17933667  -6.228  10.516   5.018  0.4110 -0.3178  0.2546
  105MOL   C18033668  -6.275  10.630   5.093 -0.0897  0.7784 -0.0181
  105MOL   C18133669  -6.411  10.668   5.091  0.0753  0.0683 -0.1029
  105MOL   C18233670  -6.502  10.605   5.001 -0.3553  0.5433  0.3721
  105MOL   C18333671  -6.647  10.647   5.011  0.4576 -0.3642  0.1731
  105MOL   C18433672  -6.451  10.503   4.917  0.1572  0.2667  0.6691
  105MOL   C18533673  -6.321  10.456   4.931 -0.3332 -0.0367  0.2117
  105MOL   H18633674  -6.042  10.469   4.928  1.6836  0.6541  1.1079
  105MOL   H18733675  -6.020  10.517   5.094  2.3301 -1.2393 -0.9805
  105MOL   H18833676  -6.205  10.686   5.153  2.2375 -2.0265  0.0564
  105MOL   H18933677  -6.434  10.764   5.136 -0.8341  0.6245 -1.6925
  105MOL   H19033678  -6.696  10.554   5.038 -0.3911  0.2797  0.8614
  105MOL   H19133679  -6.658  10.724   5.087  0.6284 -1.7835  1.6852
  105MOL   H19233680  -6.522  10.445   4.860  0.3691 -0.1716  0.8427
  105MOL   H19333681  -6.295  10.376   4.863  2.4741  1.8380 -1.0093
  105MOL   C19433682  -6.700  10.702   4.880  0.4481  0.2066 -0.4799
  105MOL   C19533683  -6.850  10.729   4.872  0.7775  1.1607 -0.1000
  105MOL   C19633684  -6.898  10.860   4.888  0.0689  0.0851 -0.1228
  105MOL   C19733685  -7.034  10.874   4.885  0.3479  0.1557 -0.0130
  105MOL   C19833686  -7.122  10.769   4.843 -0.7563 -0.5315 -0.2869
  105MOL   C19933687  -7.268  10.784   4.819 -0.1806  0.9611 -0.3724
  105MOL   C20033688  -7.070  10.639   4.831 -0.0072  0.3816  0.3467
  105MOL   C20133689  -6.935  10.621   4.848  0.7608  0.4005 -0.8377
  105MOL   H20233690  -6.677  10.624   4.808  0.9122 -3.5296  3.5077
  105MOL   H20333691  -6.639  10.781   4.836 -0.3681  1.9279  1.3844
  105MOL   H20433692  -6.842  10.949   4.913 -0.8418  0.9386 -1.0672
  105MOL   H20533693  -7.079  10.965   4.922  0.9859  0.4544  0.0318
  105MOL   H20633694  -7.300  10.884   4.790 -1.0840  0.3733 -1.4266
  105MOL   H20733695  -7.317  10.723   4.744 -1.8055  0.2421  1.2129
  105MOL   H20833696  -7.133  10.552   4.817  0.1766  0.5340 -1.6592
  105MOL   H20933697  -6.892  10.524   4.826  0.2663 -0.3529  1.3995
  105MOL   C21033698  -7.342  10.761   4.949 -0.2266  0.3343  0.2675
  105MOL   C21133699  -7.494  10.764   4.934 -0.5004  0.2017 -1.3035
  105MOL   C21233700  -7.565  10.831   4.828 -0.0724 -0.2098 -0.4571
  105MOL   C21333701  -7.704  10.820   4.824 -0.3921  0.2097  0.3527
  105MOL   C21433702  -7.776  10.751   4.922  0.5162  0.1497 -0.5430
  105MOL   C21533703  -7.931  10.736   4.913  0.4245 -0.0812  0.3837
  105MOL   C21633704  -7.710  10.691   5.031 -1.1869  0.3256 -0.3573
  105MOL   C21733705  -7.569  10.695   5.036  0.2077 -0.0064  0.0980
  105MOL   H21833706  -7.306  10.829   5.026  0.9642  0.0127  0.0071
  105MOL   H21933707  -7.310  10.661   4.976 -0.3512  0.7433  1.9485
  105MOL   H22033708  -7.514  10.882   4.748 -0.0355 -0.0575 -0.3366
  105MOL   H22133709  -7.757  10.872   4.745 -0.7764  1.8031  1.6412
  105MOL   H22233710  -7.964  10.758   4.811  1.4165 -0.2387  0.0259
  105MOL   H22333711  -7.972  10.640   4.944  0.1869 -0.3203 -0.6367
  105MOL   H22433712  -7.765  10.643   5.111  1.4804 -1.2199  0.6219
  105MOL   H22533713  -7.516  10.646   5.117  3.1486 -0.3940 -1.9772
  105MOL   C22633714  -7.996  10.845   4.998 -0.2067 -0.0777 -0.2131
  105MOL   C22733715  -8.144  10.855   4.991 -0.2763  0.1001  0.3030
  105MOL   C22833716  -8.213  10.914   4.879  0.1372 -0.0092  0.5127
  105MOL   C22933717  -8.358  10.921   4.879 -0.0757  0.0958 -0.3092
  105MOL   C23033718  -8.436  10.863   4.988 -0.2359 -0.5584  0.7250
  105MOL   C23133719  -8.590  10.860   4.997 -0.2930  0.0667  0.0644
  105MOL   C23233720  -8.358  10.799   5.090 -0.4996 -0.7347  0.0641
  105MOL   C23333721  -8.216  10.800   5.094  0.3536  0.0716  0.1330
  105MOL   H23433722  -7.955  10.943   4.971 -2.3758  0.9807  0.2665
  105MOL   H23533723  -7.967  10.830   5.102  0.4134 -1.2252 -0.5356
  105MOL   H23633724  -8.149  10.959   4.805 -0.1236  0.3958  0.5310
  105MOL   H23733725  -8.406  10.975   4.799  1.5726  2.4685  0.2517
  105MOL   H23833726  -8.619  10.901   4.900 -0.1899 -3.8837 -1.6884
  105MOL   H23933727  -8.640  10.764   5.005  1.4490 -1.0188 -1.8935
  105MOL   H24033728  -8.404  10.752   5.175  0.4267  1.9492  2.0962
  105MOL   H24133729  -8.161  10.750   5.172  0.0495 -3.6251 -1.8926
  105MOL   C24233730  -8.639  10.955   5.109  0.0538  0.0156  1.1057
  105MOL   C24333731  -8.795  10.986   5.110  0.0760 -0.5607  0.2011
  105MOL   C24433732  -8.863  11.029   4.999  0.2542 -0.1385 -0.8718
  105MOL   C24533733  -9.002  11.052   5.015 -0.3699  0.3357  0.0273
  105MOL   C24633734  -9.070  11.034   5.139 -0.0023 -0.4197  0.1431
  105MOL   C24733735  -9.224  11.049   5.152 -0.3951 -0.3616  1.1367
  105MOL   C24833736  -8.997  10.994   5.252  0.2626 -0.4486  0.3193
  105MOL   C24933737  -8.859  10.974   5.237  0.8773  0.4546  0.4332
  105MOL   H25033738  -8.605  10.926   5.208  0.5049  0.0339  0.9583
  105MOL   H25133739  -8.584  11.045   5.084 -1.3401  0.3892 -0.7385
  105MOL   H25233740  -8.817  11.051   4.904 -0.7819  1.8141 -0.9540
  105MOL   H25333741  -9.060  11.088   4.931 -1.4519  1.0314  1.0638
  105MOL   H25433742  -9.264  11.040   5.051 -0.9505  3.3669  0.9580
  105MOL   H25533743  -9.268  10.964   5.205 -1.3408 -0.5307  0.0935
  105MOL   H25633744  -9.043  10.969   5.346 -2.5651 -1.0350 -1.1554
  105MOL   H25733745  -8.798  10.945   5.322 -1.0544  2.1449  2.4703
  105MOL   C25833746  -9.249  11.188   5.223  0.1194  0.2249  0.4189
  105MOL   C25933747  -9.400  11.204   5.252 -0.0989  0.4157  0.4326
  105MOL   C26033748  -9.456  11.152   5.376  0.6797 -1.1576 -0.6570
  105MOL   C26133749  -9.597  11.174   5.404 -0.1026  0.6182 -0.3122
  105MOL   C26233750  -9.672  11.251   5.316  0.5121  0.5499 -0.0963
  105MOL   C26333751  -9.823  11.262   5.324  0.4235 -0.2454  0.0450
  105MOL   C26433752  -9.612  11.313   5.210 -0.3217  0.1744 -0.1433
  105MOL   C26533753  -9.480  11.286   5.169  0.0918  0.8833  0.1508
  105MOL   H26633754  -9.215  11.272   5.163  1.4605 -0.1689  0.6089
  105MOL   H26733755  -9.197  11.187   5.318  0.6456  1.6221  0.1524
  105MOL   H26833756  -9.384  11.103   5.440  1.5438 -0.5312 -1.1324
  105MOL   H26933757  -9.646  11.125   5.487  1.9759  0.6889  0.9909
  105MOL   H27033758  -9.856  11.251   5.220 -1.1227  1.5129  0.3208
  105MOL   H27133759  -9.851  11.173   5.380  1.9940 -0.1550  0.9933
  105MOL   H27233760  -9.671  11.375   5.143 -1.2080 -1.3904 -0.8524
  105MOL   H27333761  -9.432  11.330   5.083  1.0560 -1.7967 -0.7310
  105MOL   C27433762  -9.860  11.390   5.404 -0.7360  0.1168  0.4377
  105MOL   C27533763 -10.008  11.410   5.439 -0.6785 -0.0279  0.0556
  105MOL   C27633764 -10.043  11.486   5.553  0.6791 -0.6445 -0.0277
  105MOL   C27733765 -10.176  11.504   5.588 -0.0227  0.6042  0.2254
  105MOL   C27833766 -10.281  11.438   5.515 -0.2709  0.3298  0.0591
  105MOL   C27933767 -10.428  11.456   5.558 -0.8491 -0.0780  0.5847
  105MOL   C28033768 -10.245  11.378   5.395 -0.1692 -0.5210 -0.3269
  105MOL   C28133769 -10.110  11.365   5.353  0.2672 -0.0218  0.2197
  105MOL   H28233770  -9.796  11.396   5.493  0.0783 -1.2091 -0.0370
  105MOL   H28333771  -9.828  11.475   5.345  1.3981 -1.6621 -1.0940
  105MOL   H28433772  -9.973  11.551   5.604  1.8999 -1.0477 -1.1757
  105MOL   H28533773 -10.204  11.577   5.663 -0.4494 -1.3354  2.0138
  105MOL   H28633774 -10.418  11.431   5.664  2.2164 -0.9815  0.1175
  105MOL   H28733775 -10.450  11.562   5.546 -1.4475 -0.3845 -1.1222
  105MOL   H28833776 -10.315  11.329   5.328  1.0237 -1.1634 -1.1247
  105MOL   H28933777 -10.087  11.310   5.263  1.5538  2.4534 -1.0040
  105MOL   C29033778 -10.528  11.374   5.485 -0.7564 -0.3388 -0.1062
  105MOL   C29133779 -10.669  11.403   5.525  0.1619 -0.4769 -0.0312
  105MOL   C29233780 -10.749  11.509   5.470  0.3386 -0.1636 -0.7034
  105MOL   C29333781 -10.882  11.534   5.505  0.6465  0.4089 -0.1992
  105MOL   C29433782 -10.942  11.443   5.594  0.3119  0.7403 -0.4629
  105MOL   C29533783 -11.080  11.464   5.643  0.4448  0.1985  0.4198
  105MOL   C29633784 -10.869  11.328   5.641 -0.1630 -0.3508 -0.1943
  105MOL   C29733785 -10.733  11.314   5.613 -0.4473 -0.3914  0.3011
  105MOL   H29833786 -10.507  11.268   5.497 -0.4274 -0.5141 -2.1709
  105MOL   H29933787 -10.525  11.400   5.380  1.5681  0.8352  0.2080
  105MOL   H30033788 -10.697  11.575   5.402  0.0485  0.7245 -0.0758
  105MOL   H30133789 -10.943  11.614   5.466 -1.6880 -1.0412  0.3750
  105MOL   H30233790 -11.137  11.498   5.556  2.0469 -0.7351 -1.0103
  105MOL   H30333791 -11.129  11.377   5.686  1.1079  0.4339  1.7113
  105MOL   H30433792 -10.913  11.245   5.694  0.1121 -0.5113 -0.2172
  105MOL   H30533793 -10.680  11.233   5.663  1.5724  1.2724  0.9432
  105MOL   C30633794 -11.103  11.579   5.741 -0.5634 -0.1758 -0.1462
  105MOL   C30733795 -11.251  11.591   5.768 -0.3964  0.4082  0.7817
  105MOL   C30833796 -11.311  11.707   5.709  0.2881 -0.0721 -0.0031
  105MOL   C30933797 -11.446  11.732   5.730  0.7827  0.2315 -0.7436
  105MOL   C31033798 -11.526  11.635   5.795 -0.3789  0.9057  0.3783
  105MOL   C31133799 -11.674  11.648   5.818 -0.2912  0.2906  0.4114
  105MOL   C31233800 -11.467  11.509   5.838 -0.2176 -0.1788 -0.1985
  105MOL   C31333801 -11.333  11.491   5.822 -0.1527  0.3698  0.4200
  105MOL   H31433802 -11.054  11.664   5.694  1.0770 -0.4670  0.9666
  105MOL   H31533803 -11.050  11.559   5.834 -0.9471  1.6267  0.4896
  105MOL   H31633804 -11.246  11.786   5.675 -0.4583  0.9052  0.8036
  105MOL   H31733805 -11.490  11.823   5.694  0.8373 -0.5281 -2.7654
  105MOL   H31833806 -11.723  11.560   5.776  0.7345  0.0954 -0.4040
  105MOL   H31933807 -11.705  11.639   5.922  2.4540 -3.4239  1.0454
  105MOL   H32033808 -11.538  11.439   5.880 -1.4460  1.8616  1.2784
  105MOL   H32133809 -11.300  11.398   5.866  1.5667  0.9846  0.4452
  105MOL   H32233810 -11.722  11.739   5.783 -0.5449  0.5357  1.3821
  106MOL     C133811   2.180   6.789   4.157  0.1994 -0.4938  0.3983
  106MOL     C233812   2.041   6.822   4.115  0.1501 -0.3648 -0.4589
  106MOL     C333813   1.995   6.958   4.100  0.5412  0.3824 -0.6797
  106MOL     C433814   1.859   6.976   4.061  0.8662 -0.1799 -0.2469
  106MOL     C533815   1.771   6.870   4.037  0.1860 -0.0244  0.2986
  106MOL     C633816   1.629   6.906   4.008  0.6323  0.6905  0.0500
  106MOL     C733817   1.819   6.739   4.047 -0.2196  0.1966  0.2553
  106MOL     C833818   1.951   6.714   4.084 -0.4463  0.2102  0.2909
  106MOL     H933819   2.261   6.858   4.135 -1.2672  0.5218 -2.0073
  106MOL    H1033820   2.173   6.783   4.266 -1.9006  1.2315  0.4120
  106MOL    H1133821   2.063   7.035   4.132  0.9048 -0.3751  0.3932
  106MOL    H1233822   1.823   7.077   4.054 -0.4975 -0.5971  0.5553
  106MOL    H1333823   1.622   7.015   3.998  4.1097  0.8805 -1.1582
  106MOL    H1433824   1.597   6.865   3.912 -1.4958  0.8680  0.6667
  106MOL    H1533825   1.742   6.665   4.030 -1.6265  1.9936 -1.3391
  106MOL    H1633826   1.990   6.613   4.081 -1.9929 -0.4048  0.1679
  106MOL    H1733827   2.202   6.695   4.108  1.9740 -0.1817  0.5557
  106MOL    C1833828   1.538   6.876   4.122 -0.7518  0.1752 -0.7991
  106MOL    C1933829   1.396   6.919   4.101 -0.5046  0.0604 -0.0327
  106MOL    C2033830   1.313   6.829   4.044  0.0711  0.2841  0.5243
  106MOL    C2133831   1.178   6.867   4.023  0.3066 -0.2734  1.0759
  106MOL    C2233832   1.132   6.997   4.038 -0.1773  0.0860 -0.1072
  106MOL    C2333833   0.992   7.041   4.004 -0.3183 -0.0010  0.0786
  106MOL    C2433834   1.223   7.089   4.093 -1.0770  0.0107 -0.9051
  106MOL    C2533835   1.354   7.050   4.129  0.3289  0.5337 -0.8954
  106MOL    H2633836   1.533   6.769   4.141 -2.4669  0.6030  1.3723
  106MOL    H2733837   1.569   6.929   4.211  1.3697  0.8207 -1.8870
  106MOL    H2833838   1.350   6.728   4.039  0.2884  0.4180 -0.6870
  106MOL    H2933839   1.109   6.797   3.977 -0.5583  0.6214  0.9882
  106MOL    H3033840   0.986   6.997   3.905  0.0149  0.9836 -0.3785
  106MOL    H3133841   0.991   7.147   3.978 -2.6739  0.4088  1.7331
  106MOL    H3233842   1.202   7.195   4.103 -0.3727 -0.0430  1.3532
  106MOL    H3333843   1.418   7.117   4.185 -0.5317  1.3484 -0.8687
  106MOL    C3433844   0.887   6.999   4.103  0.2778 -0.0213  0.3549
  106MOL    C3533845   0.749   7.045   4.069  0.3300 -0.4416  0.6785
  106MOL    C3633846   0.697   7.013   3.939 -1.0839  0.3634 -0.4645
  106MOL    C3733847   0.567   7.051   3.898 -0.5973 -0.3560  0.2913
  106MOL    C3833848   0.484   7.116   3.992 -0.1723 -0.0264  0.7086
  106MOL    C3933849   0.344   7.160   3.964  0.3026 -0.7064 -0.0164
  106MOL    C4033850   0.535   7.135   4.120 -0.8988 -0.0337 -0.3814
  106MOL    C4133851   0.665   7.101   4.165  0.1258 -0.3227 -0.3390
  106MOL    H4233852   0.907   7.023   4.207  1.0694  2.1971 -0.2738
  106MOL    H4333853   0.874   6.891   4.104 -0.5673  0.0450 -1.5398
  106MOL    H4433854   0.751   6.956   3.864 -0.5244 -3.3114  2.5915
  106MOL    H4533855   0.527   7.022   3.802 -0.2265 -0.9057  0.2996
  106MOL    H4633856   0.318   7.238   4.036  0.0856  0.5458 -1.4319
  106MOL    H4733857   0.345   7.202   3.863 -1.0791  0.2818  0.3731
  106MOL    H4833858   0.466   7.182   4.189  1.6459  2.5307  0.5011
  106MOL    H4933859   0.707   7.123   4.262  1.2326 -1.5892 -0.5269
  106MOL    C5033860   0.241   7.051   3.982  0.1973 -0.5328  0.1605
  106MOL    C5133861   0.099   7.098   3.960  0.0335 -0.4918  0.5765
  106MOL    C5233862   0.046   7.117   3.832  0.2514  0.1885  0.1358
  106MOL    C5333863  -0.094   7.140   3.811 -1.0875 -0.2522 -0.3750
  106MOL    C5433864  -0.175   7.138   3.924  0.1276 -0.7400 -0.4136
  106MOL    C5533865  -0.325   7.160   3.905 -0.3294  0.5196 -0.9261
  106MOL    C5633866  -0.124   7.139   4.056  0.2534 -0.0358  0.4446
  106MOL    C5733867   0.015   7.124   4.071 -0.3060  0.3627  0.1776
  106MOL    H5833868   0.249   7.005   4.080 -0.7220 -2.2316 -0.5536
  106MOL    H5933869   0.258   6.963   3.919  1.4240 -0.9504  1.0480
  106MOL    H6033870   0.118   7.105   3.752 -0.6448  1.7098 -0.9125
  106MOL    H6133871  -0.118   7.154   3.707 -3.1051  0.1834  0.1236
  106MOL    H6233872  -0.345   7.139   3.800  1.7893  0.7506 -1.4041
  106MOL    H6333873  -0.384   7.091   3.964  0.5806  0.2205 -0.3603
  106MOL    H6433874  -0.182   7.155   4.146  0.3299 -0.2281  0.5303
  106MOL    H6533875   0.055   7.113   4.170 -3.6380 -0.4291  1.5225
  106MOL    C6633876  -0.370   7.304   3.933 -0.6711  1.0769  0.5662
  106MOL    C6733877  -0.521   7.331   3.910  0.3372 -0.5751  0.1934
  106MOL    C6833878  -0.574   7.370   3.784  0.0751  0.6337  0.3930
  106MOL    C6933879  -0.700   7.423   3.785 -0.3624  0.1635  0.6973
  106MOL    C7033880  -0.781   7.423   3.902 -0.2059 -0.1300  0.1882
  106MOL    C7133881  -0.913   7.493   3.902 -0.2805  1.2210 -1.0775
  106MOL    C7233882  -0.740   7.364   4.022  0.7094  0.2504  0.1940
  106MOL    C7333883  -0.608   7.324   4.028  0.6641  0.2598 -0.0825
  106MOL    H7433884  -0.306   7.376   3.881  0.1336 -1.0563 -1.4680
  106MOL    H7533885  -0.352   7.322   4.039  1.0190  1.8074  0.1724
  106MOL    H7633886  -0.513   7.370   3.695 -0.4898  0.0963  0.0066
  106MOL    H7733887  -0.737   7.471   3.696 -0.4559 -2.0967 -0.5343
  106MOL    H7833888  -0.888   7.597   3.883 -0.5524  1.0289 -2.5314
  106MOL    H7933889  -0.944   7.491   4.007  3.1404  2.3966  0.0078
  106MOL    H8033890  -0.804   7.352   4.108  2.2618  2.2860  1.6777
  106MOL    H8133891  -0.578   7.280   4.122  1.3572  2.5953  0.8318
  106MOL    C8233892  -1.012   7.447   3.802 -0.1316 -0.1584  0.0818
  106MOL    C8333893  -1.132   7.543   3.794  0.5099 -0.4052  0.3420
  106MOL    C8433894  -1.190   7.588   3.913  0.5058 -0.7957 -0.4566
  106MOL    C8533895  -1.308   7.665   3.905  0.1125 -0.0299  0.0945
  106MOL    C8633896  -1.361   7.704   3.779  0.6125 -0.4389  0.1273
  106MOL    C8733897  -1.473   7.806   3.772  0.3178 -0.1047  0.6013
  106MOL    C8833898  -1.294   7.657   3.667  0.5941  0.5000  0.4839
  106MOL    C8933899  -1.185   7.577   3.673 -0.4577 -0.3148  0.1250
  106MOL    H9033900  -1.045   7.349   3.835  1.9152 -1.2710 -1.1222
  106MOL    H9133901  -0.966   7.432   3.705 -3.2884  0.4497 -1.6053
  106MOL    H9233902  -1.147   7.559   4.007 -1.1467 -2.2949 -0.1379
  106MOL    H9333903  -1.359   7.690   3.997  0.3237 -1.1555  0.5323
  106MOL    H9433904  -1.499   7.819   3.667  2.8769  0.7144  0.0154
  106MOL    H9533905  -1.433   7.902   3.806 -0.5537  0.4247  0.1675
  106MOL    H9633906  -1.322   7.699   3.572 -1.7491  2.1659  1.8395
  106MOL    H9733907  -1.146   7.534   3.581 -1.1293  0.1281 -0.3676
  106MOL    C9833908  -1.601   7.753   3.844 -0.1963 -0.0117 -0.6528
  106MOL    C9933909  -1.713   7.849   3.836 -0.4858  0.2513 -0.2460
  106MOL   C10033910  -1.773   7.882   3.708 -0.2635  0.4645 -0.3116
  106MOL   C10133911  -1.889   7.963   3.707  0.3350 -0.1958  0.0253
  106MOL   C10233912  -1.942   8.001   3.831  1.1085  0.3445 -0.2892
  106MOL   C10333913  -2.064   8.092   3.834 -0.0109 -0.0912  0.3878
  106MOL   C10433914  -1.888   7.966   3.951  0.4606  0.1152  0.1737
  106MOL   C10533915  -1.770   7.895   3.952  0.3247 -0.7326 -0.3094
  106MOL   H10633916  -1.570   7.732   3.946  0.6671 -0.7578 -1.0596
  106MOL   H10733917  -1.656   7.669   3.802 -1.4451  0.1703  0.5948
  106MOL   H10833918  -1.729   7.836   3.620  1.2705  1.1403  0.0928
  106MOL   H10933919  -1.940   7.996   3.618  0.1256 -3.3411 -1.0808
  106MOL   H11033920  -2.048   8.176   3.902 -1.2016  1.3525 -1.0772
  106MOL   H11133921  -2.072   8.137   3.735  0.7081 -1.5261 -0.3411
  106MOL   H11233922  -1.933   7.988   4.047  0.7598 -0.2631  0.3999
  106MOL   H11333923  -1.730   7.859   4.045 -0.2619 -2.2308 -0.6193
  106MOL   C11433924  -2.199   8.026   3.878  0.4777  0.4288 -0.2925
  106MOL   C11533925  -2.321   8.115   3.870  0.4417  0.3050  0.6613
  106MOL   C11633926  -2.382   8.170   3.981  0.2920 -0.9067  0.1095
  106MOL   C11733927  -2.489   8.261   3.960 -0.0904  0.3220  0.4624
  106MOL   C11833928  -2.547   8.290   3.829  0.1058 -0.0325  0.4154
  106MOL   C11933929  -2.667   8.372   3.815  0.4576  0.9656  0.8251
  106MOL   C12033930  -2.479   8.229   3.726 -0.0553 -0.0110  0.0856
  106MOL   C12133931  -2.368   8.148   3.741 -0.2586  0.0022  0.1530
  106MOL   H12233932  -2.192   7.974   3.974 -0.2848 -1.6193 -1.3387
  106MOL   H12333933  -2.215   7.944   3.809 -0.1765  1.0224 -0.8544
  106MOL   H12433934  -2.335   8.151   4.076  1.0571 -1.2763 -0.3415
  106MOL   H12533935  -2.540   8.305   4.044 -1.6701  0.7934 -0.7126
  106MOL   H12633936  -2.652   8.467   3.867 -0.6389  1.2617  0.6117
  106MOL   H12733937  -2.690   8.399   3.712  1.0370 -3.1541 -0.4813
  106MOL   H12833938  -2.508   8.249   3.624  1.3094  0.6938 -0.1838
  106MOL   H12933939  -2.314   8.124   3.650 -0.1335  0.4184  0.1194
  106MOL   C13033940  -2.786   8.290   3.879  0.4462 -0.3089  0.3860
  106MOL   C13133941  -2.921   8.363   3.864 -0.4374  0.1016 -0.3899
  106MOL   C13233942  -2.989   8.410   3.977  0.4326 -0.0889  0.0005
  106MOL   C13333943  -3.111   8.471   3.969  1.0296  0.9638  0.0804
  106MOL   C13433944  -3.169   8.489   3.847  0.6515  0.1015  0.4547
  106MOL   C13533945  -3.297   8.571   3.845 -0.1990 -0.6950  0.1234
  106MOL   C13633946  -3.103   8.449   3.727  0.2356 -0.4593 -0.4184
  106MOL   C13733947  -2.978   8.377   3.734 -0.1697 -0.4405  1.2399
  106MOL   H13833948  -2.770   8.267   3.984 -1.0027  0.4575  0.8010
  106MOL   H13933949  -2.786   8.192   3.831 -2.8250 -0.5544  0.7349
  106MOL   H14033950  -2.939   8.394   4.072  0.0240 -0.2320  0.1910
  106MOL   H14133951  -3.164   8.513   4.053  1.1704  1.6534 -0.1748
  106MOL   H14233952  -3.293   8.658   3.910 -1.9672 -0.6689  0.2018
  106MOL   H14333953  -3.314   8.617   3.748  0.3687 -1.0649 -0.1580
  106MOL   H14433954  -3.149   8.466   3.631 -1.1757  0.8905  0.4619
  106MOL   H14533955  -2.928   8.343   3.645 -0.6307 -1.5357  1.3950
  106MOL   C14633956  -3.417   8.488   3.893  0.4762 -0.0613 -0.5781
  106MOL   C14733957  -3.541   8.573   3.915  0.5137 -0.3108 -0.4199
  106MOL   C14833958  -3.581   8.610   4.043 -0.1124 -0.5300 -0.4156
  106MOL   C14933959  -3.706   8.676   4.050 -0.3019 -0.0259  0.0640
  106MOL   C15033960  -3.786   8.717   3.942  0.4109  0.2084  0.2680
  106MOL   C15133961  -3.921   8.782   3.971 -0.1356  0.1215 -0.1973
  106MOL   C15233962  -3.742   8.674   3.818 -0.6611  0.4620  0.9390
  106MOL   C15333963  -3.620   8.607   3.799  0.2675 -0.4290  0.4048
  106MOL   H15433964  -3.391   8.445   3.990 -0.1602 -1.2566 -0.9355
  106MOL   H15533965  -3.447   8.416   3.817  0.5695  0.2252 -0.8890
  106MOL   H15633966  -3.522   8.595   4.133 -0.6697  1.5057  0.3095
  106MOL   H15733967  -3.740   8.683   4.152 -1.6680 -0.0416 -0.3682
  106MOL   H15833968  -3.945   8.791   4.077 -0.9341 -1.2190 -0.2457
  106MOL   H15933969  -3.914   8.884   3.933  0.7453 -0.1732 -0.8519
  106MOL   H16033970  -3.804   8.698   3.733  1.4854 -1.0026 -1.0923
  106MOL   H16133971  -3.576   8.567   3.708 -1.2825 -0.4524 -0.3531
  106MOL   C16233972  -4.037   8.708   3.888  0.6394  0.0142  0.4393
  106MOL   C16333973  -4.176   8.779   3.897 -0.1207  0.5323 -0.4462
  106MOL   C16433974  -4.237   8.827   3.786  0.9260 -0.2307 -0.4151
  106MOL   C16533975  -4.366   8.892   3.793  0.1574 -0.0822  0.2680
  106MOL   C16633976  -4.422   8.914   3.918  0.0620  0.1634 -0.6623
  106MOL   C16733977  -4.545   9.000   3.929  0.4854  0.3457  0.0471
  106MOL   C16833978  -4.344   8.883   4.035  1.0693  0.1608  0.4979
  106MOL   C16933979  -4.224   8.812   4.028 -0.5204  0.2972  0.1121
  106MOL   H17033980  -4.050   8.607   3.928  1.1900 -1.1220 -2.1896
  106MOL   H17133981  -4.028   8.686   3.782 -0.6295 -0.1001  0.3496
  106MOL   H17233982  -4.193   8.809   3.689  0.3658 -1.8721 -0.3967
  106MOL   H17333983  -4.412   8.939   3.707 -2.6131 -0.5786  1.4337
  106MOL   H17433984  -4.517   9.074   4.004 -1.2718  0.4966  0.5643
  106MOL   H17533985  -4.553   9.059   3.838  0.5673 -0.1116 -0.2569
  106MOL   H17633986  -4.384   8.906   4.133 -0.3723 -1.1370  0.2258
  106MOL   H17733987  -4.164   8.790   4.115  0.0993  0.8546 -0.1697
  106MOL   C17833988  -4.678   8.923   3.966 -0.9711 -1.1552 -0.2298
  106MOL   C17933989  -4.804   8.997   3.929 -1.0861  0.0804 -0.6284
  106MOL   C18033990  -4.869   8.971   3.806  0.2662  0.5474 -0.8913
  106MOL   C18133991  -4.988   9.042   3.777 -1.1960 -0.4820  0.2917
  106MOL   C18233992  -5.034   9.143   3.869  0.5904 -0.2299 -0.3128
  106MOL   C18333993  -5.155   9.233   3.821 -0.1488  0.0067  0.4284
  106MOL   C18433994  -4.971   9.166   3.991  0.0468  0.2926  0.7201
  106MOL   C18533995  -4.856   9.093   4.027 -0.2890 -0.0404 -0.4754
  106MOL   H18633996  -4.673   8.902   4.072 -0.8011  1.0098  0.2197
  106MOL   H18733997  -4.684   8.830   3.909  0.7665 -1.6541  0.3660
  106MOL   H18833998  -4.828   8.896   3.740 -1.7102 -1.9441  0.6307
  106MOL   H18933999  -5.044   9.034   3.686  1.2233  1.5228 -1.4292
  106MOL   H19034000  -5.151   9.330   3.871 -0.2246 -0.0217  0.4893
  106MOL   H19134001  -5.151   9.252   3.713  1.7836  0.6292  0.6028
  106MOL   H19234002  -5.012   9.227   4.069  1.0422  0.9585  0.7284
  106MOL   H19334003  -4.818   9.102   4.127  0.8092 -2.4392 -0.6407
  106MOL   C19434004  -5.283   9.162   3.851  0.4330 -0.0483 -0.1519
  106MOL   C19534005  -5.404   9.259   3.854  0.1180  1.1573 -0.3114
  106MOL   C19634006  -5.497   9.250   3.748  0.3951  0.0478  0.3144
  106MOL   C19734007  -5.618   9.323   3.748 -0.4924  0.0835  0.0109
  106MOL   C19834008  -5.649   9.414   3.851 -0.3192 -0.7399  0.4964
  106MOL   C19934009  -5.778   9.504   3.866 -1.7487 -0.4070 -0.3289
  106MOL   C20034010  -5.558   9.420   3.962  0.1589 -0.2043  0.0817
  106MOL   C20134011  -5.433   9.342   3.959 -0.1600  0.5419  0.5431
  106MOL   H20234012  -5.274   9.109   3.946  0.5390 -2.6229 -1.5675
  106MOL   H20334013  -5.292   9.082   3.778 -1.3942 -0.1594  0.1910
  106MOL   H20434014  -5.496   9.172   3.673 -1.7010  0.0300  0.2506
  106MOL   H20534015  -5.670   9.298   3.656 -1.3007 -0.6287  0.6460
  106MOL   H20634016  -5.821   9.490   3.965 -0.6988  0.3128  0.2415
  106MOL   H20734017  -5.745   9.607   3.860  1.2041 -1.2873 -0.1905
  106MOL   H20834018  -5.578   9.485   4.047 -1.5512  0.2727 -0.6550
  106MOL   H20934019  -5.365   9.352   4.042  0.4105 -0.0941  0.1593
  106MOL   C21034020  -5.867   9.469   3.752 -0.1407 -0.0243  0.0937
  106MOL   C21134021  -6.004   9.534   3.774  0.3248 -0.3940 -0.2216
  106MOL   C21234022  -6.050   9.628   3.678  0.2168 -0.4766 -0.4516
  106MOL   C21334023  -6.175   9.688   3.690 -0.0731  0.0523 -0.7083
  106MOL   C21434024  -6.261   9.653   3.787  0.1867 -0.1128 -0.1886
  106MOL   C21534025  -6.411   9.699   3.789 -0.2608  0.5138 -0.2536
  106MOL   C21634026  -6.210   9.571   3.896 -0.3927  0.3592 -0.3605
  106MOL   C21734027  -6.084   9.506   3.884  0.3562  0.4878  0.1480
  106MOL   H21834028  -5.881   9.361   3.752  0.8380 -0.1669 -0.8690
  106MOL   H21934029  -5.821   9.484   3.654  1.7367 -0.0362  0.9613
  106MOL   H22034030  -5.994   9.651   3.589 -0.0448  0.8496 -0.2804
  106MOL   H22134031  -6.212   9.751   3.611  0.3603  0.5783 -0.4955
  106MOL   H22234032  -6.446   9.692   3.686 -2.6440 -1.3234  0.6254
  106MOL   H22334033  -6.478   9.621   3.825 -1.7007  1.9195  0.1630
  106MOL   H22434034  -6.280   9.541   3.973 -0.2645 -1.7158 -1.0394
  106MOL   H22534035  -6.045   9.434   3.953 -0.3982 -0.9667 -0.9015
  106MOL   C22634036  -6.421   9.831   3.867  0.3461 -0.4962 -0.1225
  106MOL   C22734037  -6.568   9.885   3.884  0.4021  0.0554 -0.2917
  106MOL   C22834038  -6.616   9.992   3.801  0.5565  0.5804  0.6666
  106MOL   C22934039  -6.749  10.026   3.803  0.6032 -0.5216 -0.0171
  106MOL   C23034040  -6.834   9.964   3.892 -0.0524 -0.6673  0.4837
  106MOL   C23134041  -6.978  10.007   3.908 -0.8841  0.2234 -0.4048
  106MOL   C23234042  -6.789   9.855   3.966  0.8989  0.3888  0.0114
  106MOL   C23334043  -6.655   9.818   3.975 -0.1276  0.1407  0.5744
  106MOL   H23434044  -6.356   9.903   3.818 -2.6064  1.3075 -1.5486
  106MOL   H23534045  -6.377   9.826   3.967 -0.5642 -0.6321  0.2796
  106MOL   H23634046  -6.544  10.027   3.729 -2.0924 -0.0852 -2.4412
  106MOL   H23734047  -6.794  10.103   3.742 -1.0289  0.1631  2.0081
  106MOL   H23834048  -7.017  10.015   3.806 -1.9653  3.1822  0.2036
  106MOL   H23934049  -7.037   9.932   3.961 -0.3466  0.3486  0.3713
  106MOL   H24034050  -6.850   9.790   4.028 -0.9355  0.7236 -1.4019
  106MOL   H24134051  -6.621   9.740   4.041 -1.0321  0.0248  0.9039
  106MOL   C24234052  -6.993  10.140   3.982 -0.1136  0.2066 -0.0607
  106MOL   C24334053  -7.136  10.184   3.994 -0.4507 -0.2491  0.6820
  106MOL   C24434054  -7.190  10.274   3.894 -0.1104 -0.2339 -0.5685
  106MOL   C24534055  -7.329  10.299   3.900 -0.0085 -0.5825 -0.3228
  106MOL   C24634056  -7.408  10.245   4.005 -0.1682  0.3900 -0.6411
  106MOL   C24734057  -7.556  10.268   4.007 -0.4445  0.3959 -0.0924
  106MOL   C24834058  -7.354  10.166   4.106 -0.0833 -0.1612 -0.4166
  106MOL   C24934059  -7.218  10.128   4.096  0.3011  0.3812  0.6938
  106MOL   H25034060  -6.953  10.137   4.083 -0.3631  1.1960  0.0748
  106MOL   H25134061  -6.940  10.220   3.929  0.7167  0.3288  0.9445
  106MOL   H25234062  -7.130  10.323   3.819 -0.0223 -0.5414 -0.6992
  106MOL   H25334063  -7.372  10.355   3.818  1.2837 -0.5644 -1.0025
  106MOL   H25434064  -7.573  10.323   3.915 -0.8254  1.5584  0.6559
  106MOL   H25534065  -7.607  10.172   3.992  3.0914 -1.6496  0.4380
  106MOL   H25634066  -7.407  10.126   4.192 -1.2712 -0.5412 -1.3140
  106MOL   H25734067  -7.181  10.055   4.167  0.0404 -0.9316 -0.4726
  106MOL   C25834068  -7.599  10.344   4.138 -0.6979 -0.0078 -0.5403
  106MOL   C25934069  -7.749  10.355   4.151  0.9602  0.7041 -0.2218
  106MOL   C26034070  -7.843  10.373   4.040 -0.0267 -0.2938 -0.2241
  106MOL   C26134071  -7.978  10.381   4.068 -0.0296  0.9697  0.7632
  106MOL   C26234072  -8.027  10.361   4.198 -0.4115 -0.5281 -0.0038
  106MOL   C26334073  -8.176  10.369   4.222  0.4760 -0.9986  0.2778
  106MOL   C26434074  -7.936  10.327   4.300  0.5229 -0.4392 -0.1852
  106MOL   C26534075  -7.801  10.322   4.275  0.2428  0.5123  0.3456
  106MOL   H26634076  -7.555  10.443   4.143 -1.5350  0.4619 -2.1081
  106MOL   H26734077  -7.562  10.288   4.225 -0.9919 -0.9875 -1.0380
  106MOL   H26834078  -7.812  10.389   3.939 -0.6330 -2.8812 -0.8696
  106MOL   H26934079  -8.048  10.396   3.988  0.5716  0.8081  0.2034
  106MOL   H27034080  -8.223  10.371   4.124 -0.0987  0.2257  0.5670
  106MOL   H27134081  -8.201  10.281   4.282 -0.6055 -1.6255 -1.0769
  106MOL   H27234082  -7.976  10.305   4.398 -3.1946 -2.4703 -2.0597
  106MOL   H27334083  -7.733  10.315   4.359  0.1851  1.3267  0.4707
  106MOL   C27434084  -8.195  10.500   4.301  0.4846 -0.4751 -0.2681
  106MOL   C27534085  -8.334  10.541   4.320 -0.9042 -0.4835 -0.1887
  106MOL   C27634086  -8.389  10.644   4.243  0.4345 -0.3767 -0.1468
  106MOL   C27734087  -8.525  10.670   4.251 -0.0268  0.5887  0.7550
  106MOL   C27834088  -8.611  10.595   4.331  0.4481 -0.1944  0.4392
  106MOL   C27934089  -8.758  10.629   4.340  0.2598  0.1643 -0.6130
  106MOL   C28034090  -8.562  10.492   4.412 -0.4474 -0.1400 -0.2867
  106MOL   C28134091  -8.417  10.473   4.415  0.3308 -0.7668 -0.0317
  106MOL   H28234092  -8.160  10.492   4.404 -0.1881  1.5479  0.1535
  106MOL   H28334093  -8.143  10.581   4.249 -0.4232 -0.5069 -1.2538
  106MOL   H28434094  -8.337  10.696   4.164  0.3463 -0.8327 -0.5090
  106MOL   H28534095  -8.562  10.757   4.199  0.6152  1.1581  1.2446
  106MOL   H28634096  -8.780  10.668   4.240  0.1886 -0.6620 -0.9193
  106MOL   H28734097  -8.826  10.546   4.359 -1.7768  1.5106 -1.7506
  106MOL   H28834098  -8.630  10.441   4.478 -1.6704  2.9031  0.9230
  106MOL   H28934099  -8.380  10.397   4.483 -0.3542 -1.0759  0.0047
  106MOL   C29034100  -8.784  10.752   4.421 -0.6283 -0.4106 -0.3737
  106MOL   C29134101  -8.938  10.787   4.415  0.2914 -0.6028 -0.2617
  106MOL   C29234102  -9.023  10.705   4.490  0.5054  0.3971 -0.7024
  106MOL   C29334103  -9.162  10.729   4.477  0.1549 -0.7667  0.4507
  106MOL   C29434104  -9.213  10.822   4.383 -0.0788 -0.0387  0.2811
  106MOL   C29534105  -9.359  10.834   4.373  0.3194  0.3613 -0.3770
  106MOL   C29634106  -9.126  10.908   4.311 -0.5010  0.2600  0.7365
  106MOL   C29734107  -8.984  10.888   4.329  1.0162 -0.5534 -0.1729
  106MOL   H29834108  -8.724  10.833   4.379 -1.5549  0.5749  0.1898
  106MOL   H29934109  -8.751  10.725   4.521  1.7120 -0.5390 -1.1405
  106MOL   H30034110  -8.986  10.628   4.555 -2.5770 -0.7372 -0.2039
  106MOL   H30134111  -9.236  10.679   4.538  0.2249  0.4906  1.6006
  106MOL   H30234112  -9.405  10.857   4.276  2.0354  3.0124 -0.5993
  106MOL   H30334113  -9.412  10.744   4.405  0.5853  0.1289 -0.5897
  106MOL   H30434114  -9.167  10.989   4.253  0.2547 -0.2173 -0.4955
  106MOL   H30534115  -8.909  10.945   4.276  0.6621  0.7482  0.6806
  106MOL   C30634116  -9.410  10.947   4.461  0.1173  0.2572 -0.7757
  106MOL   C30734117  -9.556  10.940   4.485  0.5028 -0.6672  0.2457
  106MOL   C30834118  -9.638  11.039   4.417 -0.5669 -0.0464  0.3284
  106MOL   C30934119  -9.779  11.037   4.437  0.5419  0.2558  0.4479
  106MOL   C31034120  -9.837  10.933   4.519 -0.1793  0.1234 -0.0177
  106MOL   C31134121  -9.987  10.928   4.543 -0.0447 -0.1050 -0.0415
  106MOL   C31234122  -9.753  10.837   4.585  0.6488 -0.5656 -1.0706
  106MOL   C31334123  -9.613  10.834   4.557 -0.0071  0.6774  0.1488
  106MOL   H31434124  -9.367  11.038   4.421  2.8466 -0.5108  0.2773
  106MOL   H31534125  -9.368  10.935   4.561  0.2462 -1.1318 -0.9777
  106MOL   H31634126  -9.589  11.106   4.349 -1.9259  0.0469 -0.5826
  106MOL   H31734127  -9.850  11.098   4.382 -0.5777 -1.0930  0.3607
  106MOL   H31834128 -10.020  10.825   4.562  0.9942 -0.4938 -0.2950
  106MOL   H31934129 -10.022  10.997   4.620 -1.4816 -0.3084 -0.4847
  106MOL   H32034130  -9.794  10.767   4.657 -1.3431  0.2724 -1.3539
  106MOL   H32134131  -9.548  10.760   4.602 -0.2090 -0.8062 -1.9103
  106MOL   H32234132 -10.031  10.960   4.448  2.4535  1.5866 -0.6460
  107MOL     C134133   1.390   4.082   1.651  0.3868  0.8403  0.2521
  107MOL     C234134   1.499   4.004   1.589 -0.3428 -0.8295 -0.5748
  107MOL     C334135   1.617   4.072   1.562 -0.3172  0.1818 -0.5324
  107MOL     C434136   1.733   4.001   1.519 -0.3611 -0.1174  0.0363
  107MOL     C534137   1.726   3.859   1.516 -0.1319 -0.0807 -0.5248
  107MOL     C634138   1.852   3.781   1.479 -0.6372 -0.0744 -0.2189
  107MOL     C734139   1.613   3.788   1.550 -0.3359 -0.0908 -0.5113
  107MOL     C834140   1.500   3.860   1.584  0.2272  0.6712 -0.2086
  107MOL     H934141   1.397   4.041   1.752  1.7411 -2.8546 -1.2543
  107MOL    H1034142   1.393   4.191   1.642 -1.3392  0.8869  0.0661
  107MOL    H1134143   1.611   4.178   1.585 -1.3703 -0.2206  1.1868
  107MOL    H1234144   1.824   4.058   1.503  0.8777 -2.1389 -0.3040
  107MOL    H1334145   1.820   3.682   1.446 -1.0716 -0.1264  0.3323
  107MOL    H1434146   1.906   3.830   1.398  1.1053  1.6055  1.8832
  107MOL    H1534147   1.603   3.681   1.541  0.2719 -0.2343  0.4690
  107MOL    H1634148   1.405   3.811   1.605  0.3711 -0.6518 -2.4403
  107MOL    H1734149   1.301   4.038   1.607  1.2311  2.1322 -2.9303
  107MOL    C1834150   1.935   3.761   1.609  0.0132  0.5112 -0.1888
  107MOL    C1934151   2.066   3.679   1.584  0.0183  0.2189  0.7324
  107MOL    C2034152   2.192   3.738   1.564 -0.3965 -0.0061 -0.6408
  107MOL    C2134153   2.297   3.663   1.514  0.0274 -0.1022 -0.1370
  107MOL    C2234154   2.296   3.523   1.513 -0.8459 -0.1239 -0.4032
  107MOL    C2334155   2.425   3.451   1.469 -0.2494  0.3404 -0.5864
  107MOL    C2434156   2.176   3.464   1.551 -0.6186  0.7115  0.1478
  107MOL    C2534157   2.060   3.539   1.590  0.3318 -0.3577  0.3524
  107MOL    H2634158   1.963   3.853   1.659 -0.9236  2.7141 -3.5649
  107MOL    H2734159   1.872   3.704   1.678 -2.7844  2.8935 -0.6519
  107MOL    H2834160   2.191   3.845   1.579 -1.2589  0.2241 -2.1914
  107MOL    H2934161   2.388   3.717   1.491  0.0399  0.3664  0.9866
  107MOL    H3034162   2.500   3.514   1.422  0.2776  0.3985  0.3244
  107MOL    H3134163   2.403   3.386   1.384 -0.2297 -1.9232  1.0953
  107MOL    H3234164   2.176   3.356   1.546 -2.6210  0.6663  0.6810
  107MOL    H3334165   1.966   3.492   1.614 -0.6564  1.2891 -0.1967
  107MOL    C3434166   2.490   3.366   1.583 -0.7195  0.1346 -0.4092
  107MOL    C3534167   2.627   3.315   1.546  0.1551 -0.4600 -0.8870
  107MOL    C3634168   2.642   3.188   1.495 -0.8826 -0.0818 -0.0911
  107MOL    C3734169   2.773   3.140   1.472  0.2665  0.4646 -0.3415
  107MOL    C3834170   2.878   3.226   1.473 -0.3443  0.2385  0.4346
  107MOL    C3934171   3.019   3.172   1.440 -0.5700 -0.1604 -0.5525
  107MOL    C4034172   2.863   3.360   1.516  0.8372 -0.1985 -0.0190
  107MOL    C4134173   2.734   3.406   1.554  0.0741 -0.0636  1.1404
  107MOL    H4234174   2.418   3.284   1.593  0.0174 -0.2955  1.6578
  107MOL    H4334175   2.497   3.415   1.680 -1.4331 -2.2607  0.9211
  107MOL    H4434176   2.567   3.112   1.480 -1.0748  0.4085 -1.6831
  107MOL    H4534177   2.787   3.036   1.445 -2.1461  0.2263 -0.7962
  107MOL    H4634178   3.009   3.066   1.414 -1.7379 -0.2929  0.4070
  107MOL    H4734179   3.066   3.230   1.361  0.8310  2.2555  1.9993
  107MOL    H4834180   2.947   3.427   1.517  0.4449  0.3285 -1.3215
  107MOL    H4934181   2.718   3.509   1.582 -2.1736  0.1088 -0.6457
  107MOL    C5034182   3.105   3.165   1.567  0.4264  0.5999  0.6581
  107MOL    C5134183   3.246   3.120   1.559 -0.1914  0.8284 -0.4653
  107MOL    C5234184   3.267   2.982   1.530 -0.9470 -0.5670  0.3436
  107MOL    C5334185   3.397   2.938   1.517 -0.5366  0.0253  0.5181
  107MOL    C5434186   3.510   3.017   1.545  0.9569  0.0094 -0.3394
  107MOL    C5534187   3.645   2.954   1.556 -0.0414  0.3680 -0.1349
  107MOL    C5634188   3.488   3.154   1.576  0.3430  0.0212  0.3962
  107MOL    C5734189   3.357   3.207   1.588  0.2577  0.0726  0.6359
  107MOL    H5834190   3.043   3.115   1.641  1.4720  0.1268  1.2211
  107MOL    H5934191   3.108   3.271   1.593 -0.0830  1.3590 -2.2573
  107MOL    H6034192   3.184   2.915   1.510 -0.6249 -1.0182  0.5185
  107MOL    H6134193   3.415   2.832   1.503 -0.3941  0.1512 -0.2601
  107MOL    H6234194   3.713   3.019   1.611 -1.1378 -0.0518  1.7975
  107MOL    H6334195   3.631   2.866   1.619 -1.3285  2.6199  2.8518
  107MOL    H6434196   3.563   3.223   1.611 -0.4026  1.8164 -1.4794
  107MOL    H6534197   3.349   3.311   1.615 -0.5996 -0.1754  1.3725
  107MOL    C6634198   3.716   2.927   1.424 -0.4820 -0.3826 -0.5124
  107MOL    C6734199   3.859   2.888   1.448 -0.1986 -0.2167 -0.4986
  107MOL    C6834200   3.967   2.964   1.400  0.3081 -0.7680 -0.0754
  107MOL    C6934201   4.098   2.923   1.409  0.8920  0.1292 -0.1098
  107MOL    C7034202   4.127   2.802   1.480 -0.3428 -0.2272  0.4130
  107MOL    C7134203   4.272   2.756   1.478  0.0718  0.2012  0.1492
  107MOL    C7234204   4.024   2.720   1.538  0.2003  0.1591  0.5293
  107MOL    C7334205   3.895   2.767   1.518  0.5082  0.3876  0.2167
  107MOL    H7434206   3.719   3.016   1.360  0.4642  0.8233  1.1505
  107MOL    H7534207   3.667   2.848   1.368  0.3504 -2.0895  1.1065
  107MOL    H7634208   3.951   3.051   1.337  1.8918  1.4524  2.5033
  107MOL    H7734209   4.180   2.977   1.364  1.8248 -1.2660 -0.1167
  107MOL    H7834210   4.288   2.694   1.566  2.2194  1.2778  0.5536
  107MOL    H7934211   4.340   2.841   1.477  2.0555 -1.3404 -0.1779
  107MOL    H8034212   4.044   2.618   1.566 -0.9783 -0.5448 -1.1652
  107MOL    H8134213   3.815   2.710   1.562  2.3548 -1.6725  0.9601
  107MOL    C8234214   4.302   2.663   1.356  0.3799  0.3466 -0.6294
  107MOL    C8334215   4.442   2.615   1.362  0.5074 -0.5034  0.1867
  107MOL    C8434216   4.546   2.679   1.295  0.7393 -0.3035  0.4907
  107MOL    C8534217   4.674   2.623   1.278 -0.6361 -0.1105 -0.1225
  107MOL    C8634218   4.702   2.500   1.330  0.3390  0.2404  0.0448
  107MOL    C8734219   4.832   2.429   1.307 -0.4599 -0.3129  0.1163
  107MOL    C8834220   4.607   2.445   1.416  0.1929 -0.2557  0.2609
  107MOL    C8934221   4.475   2.491   1.429 -0.1304  0.0189  0.2022
  107MOL    H9034222   4.292   2.700   1.254  1.7546  0.1163 -0.8668
  107MOL    H9134223   4.240   2.574   1.356  0.2030  0.4647 -1.2817
  107MOL    H9234224   4.524   2.773   1.246  1.0009  0.4870  1.8524
  107MOL    H9334225   4.740   2.675   1.210 -1.2764  1.3521  0.3426
  107MOL    H9434226   4.881   2.474   1.221 -0.9187  0.7060  0.3858
  107MOL    H9534227   4.818   2.325   1.275  2.5285 -0.1165 -2.1046
  107MOL    H9634228   4.622   2.346   1.456  0.9440  0.6429  2.2397
  107MOL    H9734229   4.400   2.428   1.474  0.3293 -0.3721  0.4306
  107MOL    C9834230   4.935   2.432   1.427 -0.6728 -0.5677 -0.0852
  107MOL    C9934231   5.062   2.355   1.385  0.1758  0.3568  0.4057
  107MOL   C10034232   5.086   2.226   1.424  0.1757 -0.0425 -0.1558
  107MOL   C10134233   5.193   2.158   1.369 -0.4514  0.0152  0.7112
  107MOL   C10234234   5.284   2.212   1.279  0.3794 -0.1775 -0.5653
  107MOL   C10334235   5.397   2.127   1.219 -0.1716 -0.3105  0.5869
  107MOL   C10434236   5.265   2.351   1.251 -0.6039 -0.0619  0.1596
  107MOL   C10534237   5.155   2.425   1.297  0.6282  0.2838  0.0347
  107MOL   H10634238   4.898   2.381   1.516 -0.6061 -1.1811 -0.4025
  107MOL   H10734239   4.956   2.536   1.451  2.3134 -1.1971  0.1988
  107MOL   H10834240   5.013   2.177   1.486 -0.4583 -1.1244 -1.7227
  107MOL   H10934241   5.208   2.053   1.391  1.6709  0.1884  0.2393
  107MOL   H11034242   5.361   2.046   1.156 -0.5615  1.0174 -0.9153
  107MOL   H11134243   5.463   2.188   1.157 -0.5871 -1.5798 -1.1460
  107MOL   H11234244   5.331   2.400   1.180 -0.7464 -3.2396 -2.2604
  107MOL   H11334245   5.143   2.529   1.271 -0.9576  0.0044 -0.4048
  107MOL   C11434246   5.485   2.052   1.314  0.1069 -0.5492  0.0669
  107MOL   C11534247   5.608   1.989   1.252 -1.1467 -0.5577 -0.1402
  107MOL   C11634248   5.736   1.995   1.316 -0.7913 -0.2047 -0.1618
  107MOL   C11734249   5.844   1.924   1.258  0.0531 -0.1871  0.0142
  107MOL   C11834250   5.833   1.870   1.126  0.4278  0.2657 -0.5930
  107MOL   C11934251   5.963   1.814   1.062  0.2304  0.1522  0.5930
  107MOL   C12034252   5.711   1.872   1.063 -0.3785 -0.3641 -0.0828
  107MOL   C12134253   5.595   1.924   1.128 -0.0694  0.3629  0.1971
  107MOL   H12234254   5.435   1.968   1.362 -2.0897  0.8888  0.3218
  107MOL   H12334255   5.517   2.125   1.388 -2.9909  1.2699 -0.3419
  107MOL   H12434256   5.742   2.040   1.414 -3.2893 -2.5150  1.1209
  107MOL   H12534257   5.937   1.920   1.311 -0.5946 -1.0685  1.1037
  107MOL   H12634258   5.959   1.823   0.954 -0.8117  0.4500  0.6455
  107MOL   H12734259   6.045   1.879   1.090  1.1365 -1.2515  1.2250
  107MOL   H12834260   5.712   1.832   0.963 -2.2967 -0.3181 -0.1425
  107MOL   H12934261   5.507   1.934   1.066 -0.0585 -1.2181 -0.0938
  107MOL   C13034262   5.989   1.668   1.104 -0.1112 -0.8487  0.0615
  107MOL   C13134263   6.099   1.615   1.019  0.4958  0.1548  1.0719
  107MOL   C13234264   6.096   1.612   0.875 -0.6205 -0.1178  0.2516
  107MOL   C13334265   6.211   1.573   0.796  0.7450  0.0737 -0.3704
  107MOL   C13434266   6.321   1.520   0.869  0.1921 -0.0235 -0.1278
  107MOL   C13534267   6.450   1.486   0.794  0.3579 -0.6034 -0.6628
  107MOL   C13634268   6.315   1.506   1.009 -0.0670 -0.0844  0.5453
  107MOL   C13734269   6.203   1.553   1.087 -0.0061  0.4234  0.2717
  107MOL   H13834270   5.903   1.601   1.102 -0.6243 -0.2322  0.8078
  107MOL   H13934271   6.012   1.671   1.210  2.1119 -1.1773 -0.3958
  107MOL   H14034272   6.008   1.654   0.828  0.1964  1.3764  0.0098
  107MOL   H14134273   6.221   1.582   0.689 -2.2368  0.7356 -0.6311
  107MOL   H14234274   6.488   1.567   0.730  1.8255 -0.0358  0.8811
  107MOL   H14334275   6.525   1.485   0.873 -1.9892 -2.5211  1.5977
  107MOL   H14434276   6.392   1.449   1.058 -0.1952  0.1163  0.9822
  107MOL   H14534277   6.199   1.535   1.193 -2.4022 -2.1467 -0.1679
  107MOL   C14634278   6.440   1.351   0.724  0.3139  0.3120  0.3797
  107MOL   C14734279   6.563   1.323   0.637 -0.5285  0.0967 -0.5558
  107MOL   C14834280   6.555   1.305   0.498  0.3170  0.4886  0.3955
  107MOL   C14934281   6.674   1.279   0.424  0.2010 -0.2327  0.6529
  107MOL   C15034282   6.797   1.257   0.493  0.4563 -0.4484 -0.6922
  107MOL   C15134283   6.933   1.226   0.423  0.7994 -0.0361 -0.8093
  107MOL   C15234284   6.796   1.248   0.637  0.2332 -0.1643 -0.6247
  107MOL   C15334285   6.683   1.290   0.706  0.0147  0.0135  0.6973
  107MOL   H15434286   6.351   1.344   0.662  0.4205  0.2273  0.2376
  107MOL   H15534287   6.431   1.270   0.796 -2.3717 -1.3890 -1.7966
  107MOL   H15634288   6.458   1.310   0.450  0.4953 -0.0720 -0.0330
  107MOL   H15734289   6.675   1.276   0.316 -0.1735  1.8300  0.5614
  107MOL   H15834290   6.994   1.315   0.410 -0.2664  0.8005 -0.1955
  107MOL   H15934291   6.973   1.143   0.481 -0.9494 -0.5627 -0.3277
  107MOL   H16034292   6.887   1.223   0.689 -0.2162 -0.6148 -0.0422
  107MOL   H16134293   6.681   1.277   0.813  2.9667 -1.3668  0.6329
  107MOL   C16234294   6.922   1.178   0.278 -0.0785  0.2584 -0.4653
  107MOL   C16334295   7.054   1.134   0.225  0.4005 -0.1479  0.2926
  107MOL   C16434296   7.107   1.198   0.110  0.2487  0.1190 -0.0395
  107MOL   C16534297   7.237   1.154   0.061 -0.5023  1.1572 -0.5002
  107MOL   C16634298   7.303   1.046   0.119 -0.4207 -0.1348 -0.6820
  107MOL   C16734299   7.440   1.001   0.076 -0.3601 -0.6402 -0.1979
  107MOL   C16834300   7.236   0.975   0.228 -0.0420  0.3241  0.2700
  107MOL   C16934301   7.112   1.020   0.277 -0.8008  0.5745 -0.8526
  107MOL   H17034302   6.887   1.259   0.215  1.2990 -0.6424 -2.4539
  107MOL   H17134303   6.850   1.096   0.278  0.2588 -0.0518  1.9349
  107MOL   H17234304   7.061   1.281   0.059  0.5878  0.6043  0.4339
  107MOL   H17334305   7.282   1.197  -0.027  0.3743  0.5863 -0.3397
  107MOL   H17434306   7.493   1.073   0.013 -2.1481 -0.2918 -1.3412
  107MOL   H17534307   7.494   0.990   0.170  0.8190  1.3122 -0.6208
  107MOL   H17634308   7.290   0.902   0.285 -0.7078 -1.3260 -1.1589
  107MOL   H17734309   7.066   0.966   0.358 -0.4955  1.6103  0.0255
  107MOL   C17834310   7.438   0.874  -0.014  0.2257 -0.2433  0.2729
  107MOL   C17934311   7.577   0.821  -0.043 -0.2780 -0.2960 -0.4942
  107MOL   C18034312   7.651   0.882  -0.146 -1.0306 -0.7838 -0.6202
  107MOL   C18134313   7.783   0.837  -0.164 -0.0014  0.1156 -0.2918
  107MOL   C18234314   7.836   0.733  -0.078 -0.2477 -0.5188  0.4405
  107MOL   C18334315   7.985   0.702  -0.086 -0.2390 -0.4282 -0.9056
  107MOL   C18434316   7.751   0.656   0.005 -0.1916  0.3304  0.0312
  107MOL   C18534317   7.624   0.707   0.030 -0.7586  0.5964  0.6226
  107MOL   H18634318   7.399   0.900  -0.112  2.9724 -1.1873 -1.0992
  107MOL   H18734319   7.384   0.797   0.042  2.5965 -0.7927  1.8647
  107MOL   H18834320   7.613   0.961  -0.209  0.1743  0.1578 -0.1715
  107MOL   H18934321   7.844   0.885  -0.240 -2.6259  1.2437 -1.7316
  107MOL   H19034322   8.040   0.788  -0.048  0.5385 -0.8990 -0.9468
  107MOL   H19134323   8.003   0.621  -0.015  0.5189 -0.4171 -1.0851
  107MOL   H19234324   7.794   0.573   0.060 -0.8818  1.1794  1.8917
  107MOL   H19334325   7.565   0.664   0.109  0.8427 -2.7369  0.0705
  107MOL   C19434326   8.046   0.653  -0.222  0.5364 -0.5412 -0.4447
  107MOL   C19534327   8.198   0.625  -0.221 -1.1789 -0.3870  0.1646
  107MOL   C19634328   8.289   0.697  -0.300  0.3087  0.3749  1.0162
  107MOL   C19734329   8.424   0.664  -0.303  0.1383  0.6939 -0.2890
  107MOL   C19834330   8.472   0.557  -0.222 -0.0724  0.0628 -0.0320
  107MOL   C19934331   8.617   0.524  -0.231 -0.8700  0.9179  0.5602
  107MOL   C20034332   8.383   0.493  -0.132 -0.5657  0.7902 -0.4003
  107MOL   C20134333   8.244   0.517  -0.135 -0.6508 -0.1261 -0.1735
  107MOL   H20234334   8.020   0.721  -0.304  1.6563  0.2067 -0.1981
  107MOL   H20334335   7.993   0.562  -0.248  0.4578  0.0155 -2.2815
  107MOL   H20434336   8.261   0.784  -0.358  1.2664  0.2477  0.3510
  107MOL   H20534337   8.492   0.725  -0.362  0.1338 -1.5361 -2.7013
  107MOL   H20634338   8.673   0.603  -0.181  0.0792  0.3899  0.3434
  107MOL   H20734339   8.646   0.444  -0.163 -0.9256  0.6928  0.3223
  107MOL   H20834340   8.426   0.419  -0.066 -1.4519  1.4071  0.8796
  107MOL   H20934341   8.191   0.446  -0.073 -0.4437 -0.5947 -0.5264
  107MOL   C21034342   8.665   0.506  -0.377 -0.8886 -0.2118  0.4649
  107MOL   C21134343   8.818   0.468  -0.385  0.1285 -0.0991 -0.3356
  107MOL   C21234344   8.898   0.548  -0.468 -0.5353 -0.6498  0.0880
  107MOL   C21334345   9.037   0.522  -0.485  0.0062  0.1599 -0.2549
  107MOL   C21434346   9.090   0.400  -0.426  0.3823  0.1140  0.7593
  107MOL   C21534347   9.239   0.371  -0.444 -0.0337 -0.8146  0.9467
  107MOL   C21634348   9.004   0.313  -0.353 -0.0259 -0.1752 -0.7459
  107MOL   C21734349   8.871   0.349  -0.325 -0.2666  0.3550  0.4209
  107MOL   H21834350   8.651   0.597  -0.435  0.9877  0.4074  0.9470
  107MOL   H21934351   8.604   0.428  -0.421 -1.5328  0.1785  0.6470
  107MOL   H22034352   8.863   0.646  -0.497  0.3185 -0.5223 -0.5499
  107MOL   H22134353   9.097   0.582  -0.552 -0.5373  1.9635  0.8526
  107MOL   H22234354   9.286   0.457  -0.492  0.8850 -0.6305  2.1510
  107MOL   H22334355   9.277   0.375  -0.342 -0.7127 -0.0508  1.1795
  107MOL   H22434356   9.046   0.224  -0.308  2.1220  2.2156  2.1650
  107MOL   H22534357   8.808   0.283  -0.269 -3.2294  2.0401 -0.8181
  107MOL   C22634358   9.280   0.245  -0.516 -0.6251  0.3853  0.3420
  107MOL   C22734359   9.429   0.224  -0.538  0.5557 -0.2014 -0.3295
  107MOL   C22834360   9.500   0.271  -0.646  0.1555  0.8333 -0.0632
  107MOL   C22934361   9.638   0.256  -0.657 -1.1755  0.0852 -0.1931
  107MOL   C23034362   9.709   0.200  -0.553 -1.1141 -0.1187 -0.2648
  107MOL   C23134363   9.861   0.171  -0.573 -0.6642  0.0332  0.1969
  107MOL   C23234364   9.643   0.150  -0.442  0.1490  0.1904  0.4242
  107MOL   C23334365   9.507   0.162  -0.435  0.7612 -0.1502  0.0122
  107MOL   H23434366   9.223   0.246  -0.610  0.2627  1.2857 -0.1990
  107MOL   H23534367   9.229   0.161  -0.470 -0.9334 -1.0412 -2.4841
  107MOL   H23634368   9.436   0.307  -0.726  3.0498  1.3606 -2.1985
  107MOL   H23734369   9.697   0.292  -0.740 -0.6061  1.0924  0.6483
  107MOL   H23834370   9.913   0.264  -0.597  2.2065 -1.4306  0.5115
  107MOL   H23934371   9.913   0.140  -0.483  1.0915  0.4346 -0.6614
  107MOL   H24034372   9.691   0.089  -0.366  0.1783  1.9538  1.8516
  107MOL   H24134373   9.462   0.126  -0.343 -1.0297 -0.1753 -0.8566
  107MOL   C24234374   9.880   0.062  -0.678 -0.1641  0.3385  0.0447
  107MOL   C24334375  10.033   0.035  -0.693 -0.1575 -0.2983  0.4773
  107MOL   C24434376  10.108  -0.043  -0.601  0.0925 -0.5704 -0.4580
  107MOL   C24534377  10.245  -0.069  -0.604  0.4526  0.1078  0.1420
  107MOL   C24634378  10.312  -0.013  -0.717 -0.5151  0.1007  0.0067
  107MOL   C24734379  10.464  -0.029  -0.732  0.4270  0.1006 -0.1993
  107MOL   C24834380  10.244   0.066  -0.811  0.3775  0.5087  0.5879
  107MOL   C24934381  10.111   0.097  -0.798  0.0015  0.2841  0.9551
  107MOL   H25034382   9.828  -0.024  -0.635  0.3246 -0.1718 -0.3750
  107MOL   H25134383   9.836   0.071  -0.778  1.0790  0.1592 -0.5295
  107MOL   H25234384  10.062  -0.097  -0.520 -1.9619  0.6576 -0.7691
  107MOL   H25334385  10.289  -0.128  -0.525 -0.9895 -1.1433  0.0185
  107MOL   H25434386  10.502   0.068  -0.763  0.6216 -0.5820 -2.2168
  107MOL   H25534387  10.516  -0.054  -0.640 -0.6791  0.6356  0.5752
  107MOL   H25634388  10.304   0.101  -0.894  1.7927  0.8936  1.7553
  107MOL   H25734389  10.073   0.159  -0.878 -1.1969  0.1613  1.4197
  107MOL   C25834390  10.504  -0.125  -0.848 -0.7885 -0.4822  0.0923
  107MOL   C25934391  10.655  -0.151  -0.856  0.7065  0.3423 -0.0510
  107MOL   C26034392  10.728  -0.103  -0.966  0.1516 -0.7181 -0.1063
  107MOL   C26134393  10.864  -0.133  -0.977  0.5991  0.1613 -0.1179
  107MOL   C26234394  10.933  -0.201  -0.875 -0.1057 -0.2552 -0.0306
  107MOL   C26334395  11.085  -0.229  -0.889  0.1206 -0.5293 -0.3328
  107MOL   C26434396  10.867  -0.243  -0.753 -0.4736 -0.6527 -0.0353
  107MOL   C26534397  10.724  -0.223  -0.754  0.3635  0.5919 -0.0104
  107MOL   H26634398  10.459  -0.103  -0.945  1.7449  2.3170 -0.5164
  107MOL   H26734399  10.449  -0.217  -0.828 -2.9077  0.2082 -2.3526
  107MOL   H26834400  10.680  -0.027  -1.025  3.3806  2.7064  1.4526
  107MOL   H26934401  10.926  -0.098  -1.058 -1.9824  0.8613 -1.8466
  107MOL   H27034402  11.140  -0.151  -0.941  2.6007 -2.2774 -0.4229
  107MOL   H27134403  11.138  -0.243  -0.794  1.4287  2.7395 -0.5120
  107MOL   H27234404  10.912  -0.282  -0.664 -1.3395  2.1528  1.7045
  107MOL   H27334405  10.673  -0.266  -0.669  2.7115  0.7835  1.5510
  107MOL   C27434406  11.097  -0.363  -0.960 -0.4145 -0.2445 -0.3542
  107MOL   C27534407  11.246  -0.396  -0.992  0.0695 -0.3791 -0.0055
  107MOL   C27634408  11.291  -0.353  -1.118  0.3625 -0.7039  0.8061
  107MOL   C27734409  11.423  -0.375  -1.159  0.1109  0.2684  0.2587
  107MOL   C27834410  11.511  -0.439  -1.071  0.0761  0.6807  0.7074
  107MOL   C27934411  11.660  -0.452  -1.112 -0.1363  0.5959  0.7092
  107MOL   C28034412  11.463  -0.485  -0.948 -0.3324  0.3368 -0.1883
  107MOL   C28134413  11.328  -0.470  -0.909 -0.1714 -0.3537 -0.5601
  107MOL   H28234414  11.050  -0.439  -0.898  0.1345  1.3591  2.0829
  107MOL   H28334415  11.040  -0.361  -1.054 -0.7115 -0.8822 -0.1899
  107MOL   H28434416  11.241  -0.294  -1.193  1.1213 -0.6586  0.3329
  107MOL   H28534417  11.455  -0.339  -1.256 -0.6355 -0.2749 -0.1866
  107MOL   H28634418  11.682  -0.356  -1.158  0.4131 -0.5643 -1.5510
  107MOL   H28734419  11.719  -0.459  -1.021  2.5594  2.6632 -0.8182
  107MOL   H28834420  11.535  -0.535  -0.885 -1.5992 -0.5883  0.5431
  107MOL   H28934421  11.295  -0.504  -0.812 -1.5548  0.8621 -0.5803
  107MOL   C29034422  11.695  -0.563  -1.207  0.0750  0.8981 -0.4544
  107MOL   C29134423  11.846  -0.569  -1.237  0.8351 -0.4179  0.6128
  107MOL   C29234424  11.891  -0.512  -1.361 -0.0941  0.1745  0.4207
  107MOL   C29334425  12.019  -0.534  -1.409 -0.1084  0.2281 -0.8590
  107MOL   C29434426  12.117  -0.592  -1.324 -0.1468 -0.2050  0.1416
  107MOL   C29534427  12.261  -0.590  -1.368  0.5101 -0.3308 -0.1881
  107MOL   C29634428  12.078  -0.627  -1.192  0.5344 -0.0094 -0.2028
  107MOL   C29734429  11.945  -0.626  -1.153 -0.0767 -0.6137 -0.7590
  107MOL   H29834430  11.635  -0.578  -1.297 -2.7286  0.0569  1.4865
  107MOL   H29934431  11.661  -0.648  -1.148 -1.5097  1.8313  0.0035
  107MOL   H30034432  11.829  -0.457  -1.430  1.0247  0.1379 -0.6156
  107MOL   H30134433  12.043  -0.492  -1.506 -1.0524  0.1232 -1.1431
  107MOL   H30234434  12.297  -0.489  -1.387  1.1667 -0.1769  1.7439
  107MOL   H30334435  12.319  -0.627  -1.284  1.1437  0.4829 -0.2616
  107MOL   H30434436  12.144  -0.671  -1.120 -1.3857 -1.1803  0.8715
  107MOL   H30534437  11.924  -0.669  -1.056  0.3133  0.4733 -0.1782
  107MOL   C30634438  12.299  -0.680  -1.482 -0.0957  0.1350  0.4107
  107MOL   C30734439  12.451  -0.666  -1.520 -0.6670  0.2366  0.1991
  107MOL   C30834440  12.509  -0.540  -1.546 -1.0211 -0.5173  0.3378
  107MOL   C30934441  12.643  -0.533  -1.586 -0.3580 -0.0622  0.1730
  107MOL   C31034442  12.725  -0.648  -1.587  0.5309 -0.3298  0.5923
  107MOL   C31134443  12.867  -0.652  -1.648 -0.0204  0.7309 -1.2635
  107MOL   C31234444  12.672  -0.767  -1.541 -0.2391  1.2362 -0.2397
  107MOL   C31334445  12.535  -0.782  -1.513 -0.3383 -0.5596 -0.3998
  107MOL   H31434446  12.237  -0.655  -1.568 -1.2551  1.3240  1.5656
  107MOL   H31534447  12.282  -0.786  -1.468 -0.6153 -0.2590 -2.8835
  107MOL   H31634448  12.443  -0.455  -1.555 -0.0933 -0.0474 -2.6782
  107MOL   H31734449  12.692  -0.444  -1.624 -0.5845  0.4149  0.9874
  107MOL   H31834450  12.943  -0.670  -1.572 -1.1944  3.1924  0.5709
  107MOL   H31934451  12.887  -0.725  -1.726  1.0655 -0.3840  0.0390
  107MOL   H32034452  12.736  -0.853  -1.531  0.6888  1.9494  0.0526
  107MOL   H32134453  12.487  -0.878  -1.500 -0.0929 -0.4901  1.1526
  107MOL   H32234454  12.894  -0.560  -1.700 -1.2693  1.2336 -1.0302
  108MOL     C134455   7.228   5.658   0.401  0.4360  0.2549  0.1149
  108MOL     C234456   7.107   5.738   0.440  0.2423  0.0208 -0.1038
  108MOL     C334457   6.979   5.680   0.418  0.9143 -0.1893 -0.0651
  108MOL     C434458   6.864   5.754   0.436 -0.2960  0.1054 -0.0841
  108MOL     C534459   6.873   5.892   0.469  0.5573 -0.3300  0.5016
  108MOL     C634460   6.748   5.986   0.463  0.1056  0.0610  0.2819
  108MOL     C734461   6.998   5.953   0.482  0.0118  0.1585  0.7813
  108MOL     C834462   7.111   5.876   0.480  0.0920  0.2539 -0.0334
  108MOL     H934463   7.222   5.634   0.294  2.2445  2.7768 -0.5849
  108MOL    H1034464   7.322   5.709   0.418 -0.0805  1.8218 -1.4948
  108MOL    H1134465   6.959   5.576   0.396  0.9255 -0.1702 -0.1608
  108MOL    H1234466   6.767   5.708   0.425 -0.5352  0.4705  0.4499
  108MOL    H1334467   6.778   6.085   0.427  0.1873 -0.4706 -1.1455
  108MOL    H1434468   6.683   5.959   0.379  1.9046 -0.2281 -1.0617
  108MOL    H1534469   6.993   6.056   0.513 -0.1500  0.1722  0.7106
  108MOL    H1634470   7.203   5.926   0.507  0.1943  0.3540 -0.5695
  108MOL    H1734471   7.218   5.569   0.463 -2.8785 -0.0631 -0.7339
  108MOL    C1834472   6.672   5.979   0.592  0.6648 -0.7792  0.5615
  108MOL    C1934473   6.557   6.077   0.594 -1.0077  0.1939 -0.6458
  108MOL    C2034474   6.429   6.036   0.547  0.3354 -1.0223  0.3789
  108MOL    C2134475   6.326   6.131   0.550  0.4180  0.3622 -0.1005
  108MOL    C2234476   6.351   6.258   0.599 -0.0371 -0.4226 -0.0248
  108MOL    C2334477   6.229   6.349   0.608 -0.6187 -0.0142 -0.0222
  108MOL    C2434478   6.478   6.297   0.658 -0.3000  0.6410 -0.0294
  108MOL    C2534479   6.578   6.204   0.651  0.0352  1.2263 -0.4772
  108MOL    H2634480   6.632   5.880   0.614 -0.7179 -0.4991 -0.5866
  108MOL    H2734481   6.744   6.003   0.670  0.3564 -1.9649  1.2105
  108MOL    H2834482   6.415   5.937   0.508  0.5421 -1.0181  0.2948
  108MOL    H2934483   6.230   6.104   0.508  0.4855  0.9257 -0.6112
  108MOL    H3034484   6.150   6.305   0.547 -1.1320  0.1828  0.5054
  108MOL    H3134485   6.262   6.445   0.569  0.4462  0.7305  2.6205
  108MOL    H3234486   6.481   6.394   0.705 -1.3682 -0.3061  2.0531
  108MOL    H3334487   6.670   6.242   0.692 -0.5939  1.0389  1.1226
  108MOL    C3434488   6.179   6.362   0.752  0.6902 -0.0295 -0.3940
  108MOL    C3534489   6.060   6.466   0.765 -0.2147  0.0795 -0.0620
  108MOL    C3634490   6.089   6.594   0.814  0.4196  0.0420 -0.1820
  108MOL    C3734491   5.982   6.680   0.843 -0.1801  0.0907  0.9497
  108MOL    C3834492   5.850   6.643   0.813 -0.8183 -0.0658 -0.3307
  108MOL    C3934493   5.736   6.730   0.856  0.0301 -0.4258 -0.0171
  108MOL    C4034494   5.822   6.526   0.745 -0.0459  0.2892 -0.4876
  108MOL    C4134495   5.927   6.434   0.731  0.4429 -0.8974  0.4633
  108MOL    H4234496   6.255   6.385   0.826  2.5611 -1.7370 -1.7584
  108MOL    H4334497   6.140   6.264   0.779 -0.7465  1.3019  2.7482
  108MOL    H4434498   6.193   6.613   0.836  0.3917 -0.2958  0.2567
  108MOL    H4534499   5.997   6.772   0.898  2.0427  1.7745 -2.2862
  108MOL    H4634500   5.674   6.653   0.902  0.9786 -2.4273 -2.0343
  108MOL    H4734501   5.783   6.795   0.930  1.9057 -1.7464 -0.0297
  108MOL    H4834502   5.722   6.494   0.723 -0.1267 -0.4121  0.8335
  108MOL    H4934503   5.904   6.339   0.684 -1.8361 -0.7568  1.2262
  108MOL    C5034504   5.677   6.811   0.737 -0.0893 -0.7273  0.2545
  108MOL    C5134505   5.563   6.891   0.788  0.2338 -0.4617  0.4312
  108MOL    C5234506   5.432   6.867   0.750  0.1813  0.5297  1.3080
  108MOL    C5334507   5.326   6.939   0.804  0.5007 -0.2076  0.3041
  108MOL    C5434508   5.351   7.028   0.910  0.4405  0.0531 -0.1886
  108MOL    C5534509   5.244   7.109   0.980 -0.6182  0.3500 -0.8415
  108MOL    C5634510   5.479   7.054   0.951  0.4842  0.3206 -0.2732
  108MOL    C5734511   5.585   6.988   0.888 -0.5592  0.3630 -0.2185
  108MOL    H5834512   5.655   6.742   0.655 -3.0271 -0.9338  1.1554
  108MOL    H5934513   5.754   6.878   0.700 -0.0707 -0.0361  1.5339
  108MOL    H6034514   5.418   6.793   0.672  1.2798 -0.8283  2.3572
  108MOL    H6134515   5.228   6.922   0.763  0.4325  0.7235  0.0584
  108MOL    H6234516   5.152   7.077   0.932 -0.9701  0.5175 -0.2876
  108MOL    H6334517   5.218   7.083   1.083 -3.3410  1.5837 -1.1906
  108MOL    H6434518   5.494   7.121   1.035 -0.4318  0.4199 -0.1825
  108MOL    H6534519   5.686   7.013   0.916 -0.1609 -0.9764 -0.4526
  108MOL    C6634520   5.251   7.261   0.966 -0.2312 -1.2779 -0.1300
  108MOL    C6734521   5.129   7.327   1.028  0.1959  0.0835  0.4365
  108MOL    C6834522   5.122   7.339   1.168 -0.3462  0.2889  0.1841
  108MOL    C6934523   5.016   7.402   1.233 -0.4277  0.3681  0.0930
  108MOL    C7034524   4.908   7.445   1.155 -0.2569 -0.0115 -0.4160
  108MOL    C7134525   4.783   7.496   1.219  0.3469  0.2783  0.3485
  108MOL    C7234526   4.907   7.432   1.015  0.2185 -0.5364  0.3660
  108MOL    C7334527   5.016   7.364   0.953 -0.3030  0.0235  0.0389
  108MOL    H7434528   5.251   7.287   0.860 -2.3578 -0.8504 -0.0540
  108MOL    H7534529   5.340   7.299   1.015 -0.5098 -2.1651  1.0902
  108MOL    H7634530   5.206   7.320   1.233 -0.9636  0.2501  0.9731
  108MOL    H7734531   5.026   7.422   1.338  1.9618 -0.0715 -0.0183
  108MOL    H7834532   4.789   7.482   1.327 -1.1855 -0.9744  0.2882
  108MOL    H7934533   4.708   7.426   1.184 -1.6756  2.2747  0.6158
  108MOL    H8034534   4.821   7.467   0.958 -0.7051  0.9053  2.5893
  108MOL    H8134535   5.018   7.338   0.848 -0.1418 -2.8879  0.7400
  108MOL    C8234536   4.749   7.636   1.173  0.2596 -0.1503 -1.0588
  108MOL    C8334537   4.608   7.683   1.199  0.2480 -0.2220  0.7373
  108MOL    C8434538   4.581   7.791   1.281 -0.0051  0.3041 -0.5390
  108MOL    C8534539   4.456   7.853   1.286 -0.5115  0.4916  0.4421
  108MOL    C8634540   4.354   7.820   1.196  0.1333 -1.2638 -0.3373
  108MOL    C8734541   4.237   7.901   1.192  0.3886 -0.5408 -0.3500
  108MOL    C8834542   4.373   7.711   1.108  0.2743 -0.5469 -0.6238
  108MOL    C8934543   4.504   7.641   1.115  0.1302  0.2591  0.2400
  108MOL    H9034544   4.759   7.633   1.065  1.8154 -0.8081 -0.9164
  108MOL    H9134545   4.819   7.713   1.204 -0.8700  1.3974 -2.2689
  108MOL    H9234546   4.663   7.818   1.345  1.1154  2.2196 -2.7472
  108MOL    H9334547   4.460   7.939   1.352  1.5379  1.3121 -0.6827
  108MOL    H9434548   4.192   7.908   1.094  1.5649  1.2505 -0.7783
  108MOL    H9534549   4.264   8.004   1.214  0.8857 -0.5435 -0.9272
  108MOL    H9634550   4.292   7.673   1.047 -1.0947 -0.2146  0.9387
  108MOL    H9734551   4.508   7.547   1.062  2.3797  2.2391 -3.3044
  108MOL    C9834552   4.117   7.847   1.288 -0.6197  0.0923 -0.2752
  108MOL    C9934553   3.989   7.928   1.281 -0.1835  0.3449 -0.5472
  108MOL   C10034554   3.989   8.056   1.333 -0.2058  0.3071  0.1789
  108MOL   C10134555   3.864   8.123   1.345 -0.0778 -0.4449  0.8754
  108MOL   C10234556   3.740   8.065   1.302 -0.5063 -0.4411  0.2727
  108MOL   C10334557   3.603   8.119   1.341  0.0262 -0.6566  0.3334
  108MOL   C10434558   3.743   7.940   1.233  0.8059 -0.4461  0.0870
  108MOL   C10534559   3.868   7.870   1.229 -0.0055 -0.0835  0.1126
  108MOL   H10634560   4.155   7.856   1.390  0.0487 -0.4447 -0.4732
  108MOL   H10734561   4.097   7.740   1.274  4.6687 -1.3519  2.0608
  108MOL   H10834562   4.080   8.097   1.377 -0.0526  0.1545  0.0027
  108MOL   H10934563   3.864   8.222   1.390 -0.6152  0.9551 -2.1199
  108MOL   H11034564   3.546   8.030   1.368  2.8673 -2.1407  1.6138
  108MOL   H11134565   3.604   8.187   1.427  2.6614 -0.8407  0.4646
  108MOL   H11234566   3.659   7.903   1.178 -0.2459  1.5704  0.3027
  108MOL   H11334567   3.882   7.769   1.194  0.6553 -0.9168  2.6978
  108MOL   C11434568   3.534   8.202   1.229  0.3187 -0.3062  0.4287
  108MOL   C11534569   3.395   8.235   1.261  0.0912  0.0172  0.0405
  108MOL   C11634570   3.291   8.161   1.205  0.1819 -0.0531  0.1224
  108MOL   C11734571   3.154   8.192   1.239  0.4835 -0.1813 -0.3735
  108MOL   C11834572   3.136   8.298   1.329  0.4940 -0.5619  0.5845
  108MOL   C11934573   2.996   8.335   1.366 -0.0798 -0.0326 -0.1767
  108MOL   C12034574   3.244   8.375   1.382  0.1288 -0.1245  0.0943
  108MOL   C12134575   3.375   8.341   1.352 -0.2537 -0.1271  0.4146
  108MOL   H12234576   3.539   8.134   1.143  0.3132  1.0887 -0.6900
  108MOL   H12334577   3.592   8.286   1.192 -1.7303  1.2483  0.6311
  108MOL   H12434578   3.311   8.075   1.143 -0.0693  0.6893 -0.9967
  108MOL   H12534579   3.077   8.132   1.195 -0.1471 -1.0649  1.8578
  108MOL   H12634580   2.938   8.243   1.356 -0.0295 -0.0273 -0.5046
  108MOL   H12734581   2.983   8.378   1.465 -2.5392 -1.6074  0.2198
  108MOL   H12834582   3.245   8.457   1.452  0.4386  1.7446 -2.0423
  108MOL   H12934583   3.450   8.404   1.396  0.2334 -0.7034  0.4182
  108MOL   C13034584   2.948   8.442   1.265  0.4015 -0.4013 -1.0688
  108MOL   C13134585   2.805   8.489   1.297  0.1705 -0.2949  0.8714
  108MOL   C13234586   2.784   8.595   1.388 -0.4728  0.0596  0.8598
  108MOL   C13334587   2.656   8.641   1.414 -0.5312 -0.2485 -0.6074
  108MOL   C13434588   2.548   8.596   1.340  1.0555 -0.0752  0.1981
  108MOL   C13534589   2.413   8.660   1.360 -0.9699 -0.5246  0.1797
  108MOL   C13634590   2.563   8.490   1.248  0.3648  0.8298 -0.2297
  108MOL   C13734591   2.696   8.440   1.229 -0.3994 -0.1366 -0.3958
  108MOL   H13834592   2.975   8.406   1.165 -4.0834 -0.0875 -2.4883
  108MOL   H13934593   3.013   8.529   1.277 -0.3710  0.0464 -0.1097
  108MOL   H14034594   2.866   8.651   1.430 -0.3019  2.2722 -2.1797
  108MOL   H14134595   2.642   8.724   1.481 -0.7348  0.9409 -2.0922
  108MOL   H14234596   2.417   8.765   1.386  0.5168 -0.7961  1.1265
  108MOL   H14334597   2.349   8.654   1.272 -1.7253  0.7466  0.6293
  108MOL   H14434598   2.485   8.452   1.185  1.5029  1.2021 -1.9075
  108MOL   H14534599   2.720   8.374   1.147 -1.2195  1.1897 -1.7273
  108MOL   C14634600   2.324   8.603   1.475 -0.4352 -0.3839 -0.7525
  108MOL   C14734601   2.179   8.641   1.469  0.0790 -0.7675 -0.4078
  108MOL   C14834602   2.135   8.764   1.525  0.6579  0.3163 -0.5123
  108MOL   C14934603   1.998   8.804   1.503  0.0529 -0.4890  0.3476
  108MOL   C15034604   1.914   8.724   1.423  0.7424  0.4137  0.3290
  108MOL   C15134605   1.776   8.782   1.390 -0.1074  0.0689  0.0751
  108MOL   C15234606   1.962   8.601   1.372 -0.4832 -0.0284  0.5349
  108MOL   C15334607   2.095   8.558   1.396 -0.2764 -0.2475 -0.0492
  108MOL   H15434608   2.367   8.632   1.571  2.4670  0.5085 -2.2380
  108MOL   H15534609   2.326   8.495   1.459 -2.2767 -0.3672 -1.2370
  108MOL   H15634610   2.196   8.833   1.581  1.0835 -1.2833  1.0034
  108MOL   H15734611   1.970   8.896   1.552 -1.8713 -0.5571 -0.5368
  108MOL   H15834612   1.771   8.889   1.410 -4.8141  0.0586 -0.4552
  108MOL   H15934613   1.744   8.759   1.288  1.5308  0.8537 -0.6282
  108MOL   H16034614   1.890   8.543   1.316  0.4764  0.1829 -0.9477
  108MOL   H16134615   2.124   8.463   1.353 -0.0682 -0.4530  0.5365
  108MOL   C16234616   1.669   8.719   1.483 -0.6262  0.0874 -0.1411
  108MOL   C16334617   1.521   8.734   1.436  0.2844  0.4510 -0.1605
  108MOL   C16434618   1.441   8.829   1.498  0.0567 -0.7139 -0.5282
  108MOL   C16534619   1.305   8.844   1.468 -0.0002 -0.0070  0.4000
  108MOL   C16634620   1.242   8.751   1.381  0.3009  0.0066  0.0188
  108MOL   C16734621   1.091   8.753   1.362 -0.4022 -0.2459 -0.2921
  108MOL   C16834622   1.322   8.646   1.323  0.3887 -0.3517  1.1247
  108MOL   C16934623   1.459   8.648   1.340 -0.7023 -0.1135  0.4595
  108MOL   H17034624   1.674   8.759   1.584  0.4623  2.3459 -1.0495
  108MOL   H17134625   1.683   8.612   1.500  0.6577  0.2751  0.0919
  108MOL   H17234626   1.473   8.896   1.576 -1.9416  0.4427 -0.6511
  108MOL   H17334627   1.249   8.920   1.521  0.6745  0.0316  1.0598
  108MOL   H17434628   1.044   8.850   1.380 -0.2956 -0.4837  1.3576
  108MOL   H17534629   1.067   8.714   1.263 -0.2951 -3.0670  0.7550
  108MOL   H17634630   1.288   8.571   1.253  0.4375  2.1107 -1.6217
  108MOL   H17734631   1.526   8.576   1.294  0.3284  0.5744  0.8463
  108MOL   C17834632   1.017   8.667   1.464 -0.7753 -0.5343  0.5623
  108MOL   C17934633   0.878   8.622   1.420  0.4769  0.6115  0.6753
  108MOL   C18034634   0.859   8.492   1.368  0.3647 -0.6837 -0.1357
  108MOL   C18134635   0.733   8.452   1.321  0.2777  0.4149 -0.8103
  108MOL   C18234636   0.629   8.549   1.308 -0.2323  0.1748  0.3245
  108MOL   C18334637   0.507   8.519   1.221  0.2391 -0.1807  0.3278
  108MOL   C18434638   0.649   8.678   1.359  0.0187  0.2716 -0.3782
  108MOL   C18534639   0.775   8.718   1.416  0.9528 -0.7090  0.5746
  108MOL   H18634640   1.018   8.715   1.561 -0.0800 -2.1248  1.3650
  108MOL   H18734641   1.081   8.580   1.481  0.0949 -0.3555 -1.6059
  108MOL   H18834642   0.942   8.424   1.375  0.1136 -1.2638 -2.4457
  108MOL   H18934643   0.712   8.355   1.279 -1.5660  0.0432  0.9126
  108MOL   H19034644   0.510   8.412   1.198  0.0294 -0.1498  0.1630
  108MOL   H19134645   0.415   8.540   1.276  0.6252 -0.0603  0.9311
  108MOL   H19234646   0.569   8.751   1.354 -1.9973 -1.6169  2.5803
  108MOL   H19334647   0.793   8.821   1.442 -0.5831 -0.5420  0.9783
  108MOL   C19434648   0.491   8.612   1.100 -0.4653 -0.9196  0.6533
  108MOL   C19534649   0.609   8.607   1.006  0.5088  0.0118 -0.2978
  108MOL   C19634650   0.627   8.508   0.904  0.4150  0.0950  0.0384
  108MOL   C19734651   0.742   8.500   0.825 -0.2761  0.3156  0.2707
  108MOL   C19834652   0.855   8.587   0.849  0.0966  0.2426 -0.4411
  108MOL   C19934653   0.994   8.561   0.785  0.1853  0.8409 -0.1850
  108MOL   C20034654   0.832   8.686   0.948 -0.0203 -0.1855 -0.1100
  108MOL   C20134655   0.717   8.698   1.021  0.7958  0.4766 -0.1756
  108MOL   H20234656   0.469   8.715   1.128  1.2877 -0.9021  2.0957
  108MOL   H20334657   0.402   8.591   1.041  0.8161 -1.4793 -1.1248
  108MOL   H20434658   0.546   8.443   0.876 -2.3182  3.5870 -0.3845
  108MOL   H20534659   0.746   8.420   0.752 -1.6132 -0.1046  0.6306
  108MOL   H20634660   0.989   8.485   0.707  3.5182  0.6552 -0.2806
  108MOL   H20734661   1.016   8.649   0.726  0.9715  1.3929  0.9036
  108MOL   H20834662   0.913   8.752   0.975 -0.0692 -0.3379  0.4325
  108MOL   H20934663   0.722   8.782   1.088  0.7732 -1.1355  1.8984
  108MOL   C21034664   1.105   8.532   0.887  0.5299  0.6029  0.1719
  108MOL   C21134665   1.241   8.507   0.820  0.0552 -0.1583  0.3852
  108MOL   C21234666   1.347   8.582   0.860 -0.3052 -0.1556  0.2053
  108MOL   C21334667   1.474   8.545   0.815  0.7101 -0.1705  0.1218
  108MOL   C21434668   1.487   8.441   0.719  0.0525  0.2819 -0.3611
  108MOL   C21534669   1.627   8.408   0.667  1.0277 -0.5672  0.6771
  108MOL   C21634670   1.374   8.374   0.667 -0.5116 -0.2788  0.5359
  108MOL   C21734671   1.250   8.403   0.728 -0.1212 -0.0594  0.3613
  108MOL   H21834672   1.072   8.440   0.935  0.7076 -0.0902 -1.0141
  108MOL   H21934673   1.106   8.613   0.961  0.0440 -1.6731  2.7213
  108MOL   H22034674   1.341   8.662   0.932 -1.7019  0.2762 -0.3731
  108MOL   H22134675   1.556   8.604   0.852  0.5297 -0.9561  1.8363
  108MOL   H22234676   1.624   8.370   0.564  1.2298 -0.9915  0.8243
  108MOL   H22334677   1.685   8.499   0.676  0.2994 -0.0931  0.5640
  108MOL   H22434678   1.373   8.304   0.585 -1.3533  0.7387 -0.3367
  108MOL   H22534679   1.170   8.339   0.695  1.3675 -1.7522 -0.0748
  108MOL   C22634680   1.697   8.303   0.745  0.0206  0.7937  0.1130
  108MOL   C22734681   1.837   8.272   0.697 -0.6500  0.1126 -0.1712
  108MOL   C22834682   1.850   8.152   0.626 -0.4455 -1.0335  0.5344
  108MOL   C22934683   1.976   8.100   0.600  0.7303  0.0547 -0.4347
  108MOL   C23034684   2.094   8.168   0.635  0.3837 -1.0330 -0.7804
  108MOL   C23134685   2.234   8.126   0.594  0.3520  0.2857  0.5731
  108MOL   C23234686   2.084   8.288   0.697 -0.0788  0.3506  0.9553
  108MOL   C23334687   1.957   8.337   0.733  0.1547  0.4792 -0.8941
  108MOL   H23434688   1.639   8.211   0.748  1.0527  0.1746  2.7376
  108MOL   H23534689   1.712   8.339   0.847 -0.4777 -1.1653  0.8865
  108MOL   H23634690   1.765   8.086   0.615 -2.1816  1.5686 -2.5432
  108MOL   H23734691   1.987   8.004   0.553 -0.1614 -1.2043  1.8133
  108MOL   H23834692   2.226   8.068   0.502  0.6945 -0.1801  0.8360
  108MOL   H23934693   2.293   8.214   0.569 -0.0808  0.8415  1.4723
  108MOL   H24034694   2.178   8.335   0.721 -0.7478  2.2930 -0.1345
  108MOL   H24134695   1.960   8.427   0.792 -4.3428  1.4493 -1.9237
  108MOL   C24234696   2.319   8.040   0.689 -0.5303  0.0071  0.6014
  108MOL   C24334697   2.446   8.007   0.623 -0.0789  0.0766  0.0051
  108MOL   C24434698   2.561   8.077   0.659  0.2740  0.2515  0.2354
  108MOL   C24534699   2.681   8.055   0.593 -0.4351  0.5894 -0.3855
  108MOL   C24634700   2.691   7.957   0.493 -0.2644 -0.6787 -0.7436
  108MOL   C24734701   2.822   7.921   0.443 -0.1562  0.3525  0.8076
  108MOL   C24834702   2.577   7.885   0.465  0.0164 -0.5470  0.0690
  108MOL   C24934703   2.456   7.908   0.528 -0.5464 -0.1361  0.5057
  108MOL   H25034704   2.329   8.095   0.782  1.1446 -1.6942  1.4582
  108MOL   H25134705   2.271   7.943   0.706 -1.3894  0.4022  0.4742
  108MOL   H25234706   2.558   8.148   0.740 -0.2256 -1.0549  1.3932
  108MOL   H25334707   2.765   8.115   0.624 -3.1224  5.1343 -1.4830
  108MOL   H25434708   2.805   7.886   0.342 -1.8086 -1.6032  1.7181
  108MOL   H25534709   2.883   8.011   0.432  1.9298 -1.1537 -0.3799
  108MOL   H25634710   2.579   7.806   0.392 -1.6007 -1.4426  0.9704
  108MOL   H25734711   2.367   7.857   0.494 -1.4155 -0.2860  2.9086
  108MOL   C25834712   2.895   7.818   0.538  0.0803  1.0462 -0.3433
  108MOL   C25934713   3.033   7.784   0.491  0.6433 -1.0754  0.3622
  108MOL   C26034714   3.141   7.868   0.517 -0.3476 -0.5463  0.5979
  108MOL   C26134715   3.269   7.818   0.472  0.6129  0.7295  0.8644
  108MOL   C26234716   3.295   7.705   0.394  0.2894  0.1996  0.2738
  108MOL   C26334717   3.426   7.671   0.346  0.5051  0.7522 -0.1893
  108MOL   C26434718   3.182   7.628   0.365 -1.1575  0.0758  0.0822
  108MOL   C26534719   3.054   7.668   0.415  0.1620  0.2248  0.1677
  108MOL   H26634720   2.832   7.729   0.552 -0.3771  1.2169 -1.2818
  108MOL   H26734721   2.905   7.863   0.636 -1.8556  1.0434 -0.1165
  108MOL   H26834722   3.143   7.947   0.590  0.9105  1.2901 -1.3515
  108MOL   H26934723   3.359   7.874   0.493  1.1803  0.3448 -0.4676
  108MOL   H27034724   3.433   7.632   0.245  2.9148  1.3261 -0.2580
  108MOL   H27134725   3.482   7.764   0.343 -0.9448  1.6572  0.2260
  108MOL   H27234726   3.188   7.538   0.305  1.5348  0.7596 -0.7436
  108MOL   H27334727   2.970   7.603   0.397 -0.3289  0.7722  0.4802
  108MOL   C27434728   3.488   7.574   0.445  0.0804  0.1152  0.0002
  108MOL   C27534729   3.635   7.551   0.406 -0.7937  0.0382  0.0530
  108MOL   C27634730   3.748   7.595   0.486  0.3619  0.1531  0.4891
  108MOL   C27734731   3.885   7.593   0.439 -0.0670 -0.0825  0.2213
  108MOL   C27834732   3.911   7.556   0.310 -0.2633 -0.2013 -0.4290
  108MOL   C27934733   4.052   7.556   0.256  0.2389  0.1453  0.1368
  108MOL   C28034734   3.806   7.505   0.233 -0.2683 -0.3509  0.1362
  108MOL   C28134735   3.670   7.502   0.279  0.1315  0.4577 -0.7849
  108MOL   H28234736   3.476   7.620   0.544 -0.1314  1.7936 -0.7800
  108MOL   H28334737   3.441   7.476   0.446 -0.2156  0.2591  0.3412
  108MOL   H28434738   3.724   7.622   0.587 -0.1464  1.9731 -0.0992
  108MOL   H28534739   3.967   7.617   0.505  0.3772 -3.0832  0.8083
  108MOL   H28634740   4.065   7.622   0.171  0.5482 -1.4724 -1.0952
  108MOL   H28734741   4.113   7.597   0.337 -0.9748 -1.9479  2.2183
  108MOL   H28834742   3.811   7.470   0.131 -2.5516  1.3068 -0.5987
  108MOL   H28934743   3.592   7.463   0.215 -0.6198  0.8396 -0.1088
  108MOL   C29034744   4.115   7.417   0.223  0.8053  0.2423 -0.2038
  108MOL   C29134745   4.256   7.418   0.170 -0.3182 -0.8688  0.2962
  108MOL   C29234746   4.288   7.368   0.045  0.2176  0.7912 -0.0617
  108MOL   C29334747   4.420   7.347   0.011  0.1821 -0.7312 -0.0912
  108MOL   C29434748   4.528   7.397   0.093  0.7541 -0.2834 -0.0324
  108MOL   C29534749   4.673   7.378   0.052  0.3299 -0.3375 -0.1350
  108MOL   C29634750   4.495   7.454   0.217  0.7783  0.2950 -0.3929
  108MOL   C29734751   4.359   7.462   0.258  0.8388 -0.2731  0.2654
  108MOL   H29834752   4.046   7.357   0.163  1.2271 -1.4081  0.9140
  108MOL   H29934753   4.127   7.370   0.320  2.4046 -2.1450 -1.5194
  108MOL   H30034754   4.206   7.348  -0.023  1.7750 -1.2673 -1.3781
  108MOL   H30134755   4.424   7.312  -0.091  0.7897 -1.6816  0.2500
  108MOL   H30234756   4.666   7.334  -0.048 -1.8988  0.8575 -0.5464
  108MOL   H30334757   4.726   7.474   0.046  0.0742 -0.0101  2.3911
  108MOL   H30434758   4.574   7.476   0.287  1.5649  0.6351 -1.3805
  108MOL   H30534759   4.329   7.497   0.356  1.9976  1.0538  0.1602
  108MOL   C30634760   4.734   7.280   0.143 -0.5680  0.4136  0.0441
  108MOL   C30734761   4.879   7.251   0.108  0.1801 -1.2464 -0.1606
  108MOL   C30834762   4.985   7.275   0.202  0.4711  0.2327  0.6740
  108MOL   C30934763   5.116   7.241   0.172  0.3471  1.1982  0.3858
  108MOL   C31034764   5.143   7.185   0.048  1.1764 -0.1468  0.0084
  108MOL   C31134765   5.280   7.141   0.006  0.7231 -0.6664  0.8710
  108MOL   C31234766   5.043   7.162  -0.048  0.2239  0.2210  0.3651
  108MOL   C31334767   4.909   7.192  -0.018 -0.0912 -0.5927 -0.1851
  108MOL   H31434768   4.686   7.183   0.129 -0.6433  0.4778 -0.1412
  108MOL   H31534769   4.729   7.297   0.251  1.1378  0.3807  0.1455
  108MOL   H31634770   4.961   7.321   0.297  1.4376  1.0722  0.5094
  108MOL   H31734771   5.200   7.263   0.236  0.4274  2.2471 -0.0725
  108MOL   H31834772   5.303   7.223  -0.062  0.0469  0.9835  2.5926
  108MOL   H31934773   5.351   7.138   0.089 -0.4196  1.8455  1.9557
  108MOL   H32034774   5.077   7.118  -0.141  2.1377  2.2091  0.0610
  108MOL   H32134775   4.829   7.177  -0.089 -2.9321  1.8632  2.3686
  108MOL   H32234776   5.277   7.046  -0.049 -0.2961  1.0924 -2.2472
  109MOL     C134777   3.435   3.369   1.889 -0.0492  0.1159  0.3852
  109MOL     C234778   3.305   3.432   1.862  0.5086  0.1580 -0.7808
  109MOL     C334779   3.190   3.350   1.851 -0.3963 -0.4060 -0.6994
  109MOL     C434780   3.058   3.403   1.827 -0.5085 -0.2542 -0.3097
  109MOL     C534781   3.049   3.544   1.810  0.5144  0.1060 -0.1967
  109MOL     C634782   2.912   3.608   1.791 -0.1854 -0.0355  0.2123
  109MOL     C734783   3.162   3.622   1.814 -0.0387  0.5376  0.9501
  109MOL     C834784   3.285   3.567   1.850  0.2712  0.0278  0.3316
  109MOL     H934785   3.426   3.277   1.946 -0.5294 -0.4757 -0.6164
  109MOL    H1034786   3.494   3.343   1.801  0.0442  0.4432  0.3503
  109MOL    H1134787   3.193   3.242   1.853  0.5930 -0.3602  1.4374
  109MOL    H1234788   2.964   3.350   1.831 -0.6427 -0.0195 -0.3324
  109MOL    H1334789   2.906   3.659   1.695  1.9213  1.4627  0.8533
  109MOL    H1434790   2.829   3.539   1.809 -0.1123  0.3610  2.1554
  109MOL    H1534791   3.150   3.727   1.792 -1.4885  0.6984  2.4036
  109MOL    H1634792   3.366   3.636   1.867  1.8167 -1.4227 -0.9371
  109MOL    H1734793   3.503   3.430   1.947 -0.7630 -1.2292  2.7080
  109MOL    C1834794   2.884   3.713   1.900  0.3570  0.0707 -0.0346
  109MOL    C1934795   2.751   3.785   1.887 -0.4630  0.2547  0.1836
  109MOL    C2034796   2.632   3.708   1.909 -0.5510  0.2010 -0.0707
  109MOL    C2134797   2.510   3.776   1.908 -0.2662 -0.4605 -0.1377
  109MOL    C2234798   2.490   3.909   1.872 -0.2462  0.0171 -0.2957
  109MOL    C2334799   2.351   3.974   1.858 -0.4971  0.4006  0.2719
  109MOL    C2434800   2.610   3.982   1.845  0.2140 -0.3429  0.7138
  109MOL    C2534801   2.736   3.923   1.853  0.1996  0.0467 -0.5425
  109MOL    H2634802   2.859   3.663   1.994  0.0571  3.5391  1.8237
  109MOL    H2734803   2.966   3.783   1.918 -1.2638  2.1185 -0.3516
  109MOL    H2834804   2.637   3.603   1.934  1.4081  0.5347  1.0870
  109MOL    H2934805   2.425   3.712   1.925 -0.8125 -0.0313 -1.1864
  109MOL    H3034806   2.291   3.917   1.788  1.9869 -0.6594 -1.0707
  109MOL    H3134807   2.356   4.076   1.819  0.2451 -0.7962 -2.8693
  109MOL    H3234808   2.592   4.083   1.812  1.1721 -0.5269 -0.3925
  109MOL    H3334809   2.832   3.963   1.826  0.7462  0.0508  1.3135
  109MOL    C3434810   2.263   3.978   1.992 -0.2506  0.5146  0.0978
  109MOL    C3534811   2.123   4.036   1.964 -0.5436  0.4381  0.2087
  109MOL    C3634812   2.012   3.949   1.983 -0.3178  0.0025 -1.2880
  109MOL    C3734813   1.884   3.994   1.947 -0.4517  0.1231 -0.7797
  109MOL    C3834814   1.872   4.128   1.893 -0.0810  0.4404  0.4008
  109MOL    C3934815   1.734   4.177   1.857 -0.0097  0.5047 -0.3084
  109MOL    C4034816   1.981   4.216   1.875 -0.3987  0.3775  0.5985
  109MOL    C4134817   2.108   4.166   1.907  0.4644  0.8531 -0.7750
  109MOL    H4234818   2.311   4.043   2.064 -1.0271 -1.0054  2.0317
  109MOL    H4334819   2.256   3.880   2.039 -2.3393  0.5859 -0.0537
  109MOL    H4434820   2.025   3.856   2.038 -0.3756  1.7680  1.8567
  109MOL    H4534821   1.799   3.929   1.967 -0.2773  0.3260  0.7040
  109MOL    H4634822   1.739   4.226   1.760  2.2231  0.2562 -0.3548
  109MOL    H4734823   1.669   4.091   1.840  1.1412 -0.3540 -0.4842
  109MOL    H4834824   1.976   4.321   1.848  0.6617  0.5650  1.1152
  109MOL    H4934825   2.197   4.225   1.889  2.6900 -1.9566  0.4357
  109MOL    C5034826   1.672   4.253   1.974  0.1165 -0.1955 -0.4739
  109MOL    C5134827   1.530   4.304   1.927 -1.6605  0.0288 -0.6701
  109MOL    C5234828   1.416   4.226   1.950 -0.4126  0.1931  0.0443
  109MOL    C5334829   1.291   4.276   1.917 -0.0338  0.6128 -0.2769
  109MOL    C5434830   1.280   4.406   1.854 -0.7086 -0.9094 -0.3180
  109MOL    C5534831   1.144   4.467   1.820 -0.4921 -0.1734  0.7483
  109MOL    C5634832   1.394   4.484   1.842 -0.0558 -0.0072  0.0385
  109MOL    C5734833   1.523   4.434   1.878  0.3096  0.4137  0.5959
  109MOL    H5834834   1.742   4.331   2.004  3.1660 -1.8908 -2.9673
  109MOL    H5934835   1.662   4.191   2.064 -1.7967 -0.1705 -0.6547
  109MOL    H6034836   1.423   4.129   1.997 -2.7561 -1.0377 -2.0107
  109MOL    H6134837   1.202   4.218   1.934  1.6104 -1.7583  0.5091
  109MOL    H6234838   1.157   4.555   1.757  0.0706 -0.2846  0.7039
  109MOL    H6334839   1.086   4.397   1.760 -1.0004 -0.2460  1.3183
  109MOL    H6434840   1.391   4.584   1.801 -1.5951 -0.2016 -0.3327
  109MOL    H6534841   1.608   4.499   1.861 -0.4769  1.9072  2.2799
  109MOL    C6634842   1.070   4.532   1.945  0.1995  0.1989  0.2993
  109MOL    C6734843   0.933   4.588   1.907 -0.4953 -0.3104  0.8404
  109MOL    C6834844   0.923   4.727   1.888  0.4471  0.2613  0.0227
  109MOL    C6934845   0.804   4.784   1.843 -0.0712  0.2498  0.2443
  109MOL    C7034846   0.692   4.695   1.829 -0.0316  0.0267  1.2268
  109MOL    C7134847   0.562   4.761   1.792  0.1844 -0.1949 -0.3245
  109MOL    C7234848   0.699   4.557   1.842  0.1813  0.3523 -0.1860
  109MOL    C7334849   0.824   4.503   1.888  0.1409 -0.5087 -0.1137
  109MOL    H7434850   1.124   4.618   1.983  1.1960  0.1532 -1.0046
  109MOL    H7534851   1.049   4.459   2.024 -4.6631 -0.5285 -1.4854
  109MOL    H7634852   1.012   4.786   1.905 -0.3130  2.0581 -1.9899
  109MOL    H7734853   0.796   4.892   1.833  0.3240  0.4694  2.0980
  109MOL    H7834854   0.488   4.684   1.766  0.0635 -0.1624 -0.0795
  109MOL    H7934855   0.575   4.817   1.700  0.3162 -0.8318 -0.6981
  109MOL    H8034856   0.612   4.495   1.826  1.1458 -1.1937  0.4264
  109MOL    H8134857   0.842   4.397   1.894  0.4556 -0.4840 -0.6528
  109MOL    C8234858   0.501   4.845   1.914 -0.1230  0.0408  0.6218
  109MOL    C8334859   0.374   4.919   1.878  0.1512 -0.4023  0.4644
  109MOL    C8434860   0.380   5.043   1.807  0.5072  0.0058  0.4109
  109MOL    C8534861   0.262   5.113   1.774  0.0251 -0.1435 -0.2581
  109MOL    C8634862   0.140   5.063   1.818 -0.2165 -1.1168 -0.0779
  109MOL    C8734863   0.024   5.152   1.781 -0.5572  0.0161  0.4860
  109MOL    C8834864   0.129   4.955   1.903 -0.2130  0.1349  0.1908
  109MOL    C8934865   0.244   4.881   1.922 -0.1773  0.7667 -0.5884
  109MOL    H9034866   0.571   4.918   1.955  0.3534  0.3421 -0.6987
  109MOL    H9134867   0.489   4.787   2.005  0.1713 -3.1940 -1.3021
  109MOL    H9234868   0.477   5.076   1.773  1.0531 -2.2530 -0.2935
  109MOL    H9334869   0.266   5.200   1.710  1.9988 -1.0160 -1.3629
  109MOL    H9434870  -0.068   5.098   1.804 -1.0061  0.5589 -0.0179
  109MOL    H9534871   0.022   5.174   1.674  0.3710  0.3015  0.5294
  109MOL    H9634872   0.033   4.928   1.944 -0.2726 -0.3481 -0.2476
  109MOL    H9734873   0.241   4.791   1.981 -0.7581  1.0099 -0.2367
  109MOL    C9834874   0.026   5.285   1.850 -0.2308 -0.0516 -0.3446
  109MOL    C9934875  -0.095   5.373   1.827  0.2737 -0.3173  0.0194
  109MOL   C10034876  -0.095   5.489   1.743  0.1311 -0.0601 -0.4269
  109MOL   C10134877  -0.212   5.563   1.717 -0.4429 -0.3408 -0.3973
  109MOL   C10234878  -0.333   5.512   1.772  0.0326  0.4917 -0.0118
  109MOL   C10334879  -0.465   5.582   1.738 -0.1670 -0.4012  0.3861
  109MOL   C10434880  -0.335   5.398   1.855 -0.3429 -0.5036  0.4041
  109MOL   C10534881  -0.213   5.335   1.890 -0.5277 -0.5052  0.3976
  109MOL   H10634882   0.105   5.353   1.820  0.0835  0.4821  1.6059
  109MOL   H10734883   0.039   5.276   1.958 -0.8810  0.6917 -0.1926
  109MOL   H10834884  -0.002   5.518   1.697  0.4001  1.6030  1.1261
  109MOL   H10934885  -0.218   5.644   1.645 -2.2367  2.7785  3.0874
  109MOL   H11034886  -0.448   5.664   1.669  0.8404 -2.7333 -2.2223
  109MOL   H11134887  -0.524   5.515   1.676 -1.0100 -1.0474  1.8627
  109MOL   H11234888  -0.428   5.362   1.895 -1.8472  2.2666 -0.4495
  109MOL   H11334889  -0.208   5.246   1.949 -1.1316  0.9430  2.6878
  109MOL   C11434890  -0.535   5.636   1.866  0.7703 -0.4195 -0.1217
  109MOL   C11534891  -0.659   5.717   1.851  0.0150  0.0087 -0.7391
  109MOL   C11634892  -0.781   5.648   1.864 -0.4322 -0.3301  1.2786
  109MOL   C11734893  -0.901   5.720   1.844 -0.0557 -1.1436 -0.9672
  109MOL   C11834894  -0.900   5.860   1.834 -0.4782  0.3720 -0.5501
  109MOL   C11934895  -1.014   5.946   1.838  0.0953 -0.3272 -0.4692
  109MOL   C12034896  -0.772   5.927   1.811  0.3166 -0.3623 -0.0104
  109MOL   C12134897  -0.654   5.855   1.821 -0.5214  0.1979 -0.0316
  109MOL   H12234898  -0.457   5.693   1.916 -0.5507 -0.6370  2.2394
  109MOL   H12334899  -0.552   5.553   1.935  0.1052  1.0521  1.5217
  109MOL   H12434900  -0.791   5.542   1.883  0.6806 -0.4900  1.0009
  109MOL   H12534901  -0.997   5.670   1.851 -0.8716  0.6157  0.9425
  109MOL   H12634902  -1.069   5.941   1.933  0.7611  0.1449 -0.0534
  109MOL   H12734903  -0.984   6.051   1.834  0.4014 -0.4354 -0.9564
  109MOL   H12834904  -0.770   6.035   1.803 -1.2346 -0.2342  1.1325
  109MOL   H12934905  -0.558   5.902   1.807  0.0992 -0.7899  0.8189
  109MOL   C13034906  -1.108   5.916   1.730  0.2899  0.0695  0.1942
  109MOL   C13134907  -1.235   5.997   1.756 -0.4075 -0.3645 -0.5668
  109MOL   C13234908  -1.341   5.933   1.824 -0.7315  0.1873 -0.9391
  109MOL   C13334909  -1.449   6.005   1.878 -0.1717  0.2868  0.2561
  109MOL   C13434910  -1.448   6.145   1.874  0.5069 -0.3355  0.3006
  109MOL   C13534911  -1.566   6.222   1.933  0.1104  0.1132  0.9517
  109MOL   C13634912  -1.345   6.212   1.807 -1.1405  0.2797  0.2339
  109MOL   C13734913  -1.239   6.141   1.751 -0.8526 -0.3224 -0.8022
  109MOL   H13834914  -1.140   5.814   1.752 -0.8949  0.5142  0.5793
  109MOL   H13934915  -1.069   5.921   1.628  3.0190  0.0554  1.2063
  109MOL   H14034916  -1.351   5.826   1.840  0.5592  0.1633 -0.2172
  109MOL   H14134917  -1.529   5.949   1.923 -0.4135 -0.7684 -1.4631
  109MOL   H14234918  -1.569   6.210   2.041 -1.7538  1.4961  1.0787
  109MOL   H14334919  -1.552   6.328   1.915  1.5310 -0.1602  0.4155
  109MOL   H14434920  -1.355   6.319   1.797 -0.3969  0.3567  0.3292
  109MOL   H14534921  -1.149   6.187   1.712  1.2530 -1.1021  2.8931
  109MOL   C14634922  -1.693   6.166   1.872 -0.4428  0.0194  0.0807
  109MOL   C14734923  -1.819   6.253   1.891 -0.0892  0.1485  0.3087
  109MOL   C14834924  -1.932   6.202   1.957 -0.9687  0.0241 -0.2898
  109MOL   C14934925  -2.041   6.290   1.970  0.0512 -0.0255  0.5150
  109MOL   C15034926  -2.049   6.421   1.914  0.3244 -0.0265 -0.1250
  109MOL   C15134927  -2.170   6.505   1.928  0.2983  0.0989 -0.7404
  109MOL   C15234928  -1.937   6.458   1.842  0.4429  0.0433 -0.5715
  109MOL   C15334929  -1.821   6.379   1.833  0.0524  0.4105  0.1085
  109MOL   H15434930  -1.715   6.067   1.913  2.3242 -1.2157 -1.3116
  109MOL   H15534931  -1.676   6.159   1.765  0.7588  1.6898  0.1504
  109MOL   H15634932  -1.941   6.101   1.995  2.6837 -0.5503 -0.7306
  109MOL   H15734933  -2.123   6.253   2.029 -0.7792  1.0542  0.0677
  109MOL   H15834934  -2.215   6.476   2.023  2.4592  0.0895  0.3051
  109MOL   H15934935  -2.147   6.612   1.931 -1.3204  0.4212  0.9780
  109MOL   H16034936  -1.927   6.558   1.803  0.4694 -0.0298 -0.7523
  109MOL   H16134937  -1.731   6.410   1.783 -0.2715  1.8574  0.3941
  109MOL   C16234938  -2.269   6.491   1.816 -0.8028  0.5844  0.0864
  109MOL   C16334939  -2.396   6.571   1.844 -0.9261 -0.2483  0.4460
  109MOL   C16434940  -2.513   6.505   1.886 -0.7758  0.0828 -0.0227
  109MOL   C16534941  -2.632   6.582   1.893 -0.0799  0.5092 -0.3596
  109MOL   C16634942  -2.628   6.721   1.872 -0.2490 -0.3863  0.3930
  109MOL   C16734943  -2.751   6.806   1.904  0.1233  0.1939 -0.1147
  109MOL   C16834944  -2.504   6.780   1.841  0.0784  0.3335 -0.4271
  109MOL   C16934945  -2.389   6.708   1.828  0.3545 -0.2068  0.1504
  109MOL   H17034946  -2.301   6.387   1.804  0.0296  0.6614 -3.7197
  109MOL   H17134947  -2.230   6.517   1.717  0.3431  0.1266  0.4063
  109MOL   H17234948  -2.516   6.399   1.903  0.2482 -0.5125 -3.2439
  109MOL   H17334949  -2.721   6.532   1.927 -0.8112  1.1372 -1.3542
  109MOL   H17434950  -2.761   6.826   2.011  0.5738 -0.8453  0.1232
  109MOL   H17534951  -2.720   6.905   1.871 -0.1102 -0.6433 -2.9821
  109MOL   H17634952  -2.491   6.885   1.818  3.0074 -0.1242 -0.9834
  109MOL   H17734953  -2.298   6.764   1.816 -1.3233  2.4553 -0.6705
  109MOL   C17834954  -2.880   6.749   1.833  0.4354  0.1945 -0.0633
  109MOL   C17934955  -3.013   6.831   1.840  0.5246 -0.2352 -0.6568
  109MOL   C18034956  -3.017   6.973   1.817 -0.4012  0.2406 -0.1954
  109MOL   C18134957  -3.137   7.038   1.844 -0.5556 -0.0685 -0.6439
  109MOL   C18234958  -3.256   6.968   1.881  0.7548 -0.8635  0.2006
  109MOL   C18334959  -3.382   7.050   1.911  0.3146 -0.4745  0.2505
  109MOL   C18434960  -3.255   6.828   1.882 -0.1128  0.5798 -0.0509
  109MOL   C18534961  -3.135   6.759   1.859  0.2197 -0.1343 -0.1325
  109MOL   H18634962  -2.897   6.648   1.872 -1.1315  0.5581  0.2239
  109MOL   H18734963  -2.858   6.744   1.726 -0.3180 -1.8193 -0.1554
  109MOL   H18834964  -2.933   7.033   1.785  2.4064 -1.8696  2.8711
  109MOL   H18934965  -3.136   7.145   1.840 -1.0091  0.0396  1.6768
  109MOL   H19034966  -3.419   7.023   2.010  1.9376  0.5657  1.1632
  109MOL   H19134967  -3.357   7.155   1.906  0.0267 -0.3441  1.3303
  109MOL   H19234968  -3.343   6.773   1.913 -0.5889 -0.3334 -2.8848
  109MOL   H19334969  -3.133   6.651   1.863 -1.3960 -0.2871 -2.6368
  109MOL   C19434970  -3.495   7.033   1.804  0.2878  0.3393 -0.2417
  109MOL   C19534971  -3.629   7.099   1.842 -0.3131  0.5183  0.5651
  109MOL   C19634972  -3.726   7.019   1.907  0.2611 -0.0765 -0.3796
  109MOL   C19734973  -3.856   7.073   1.919 -0.0741  0.2351 -0.2440
  109MOL   C19834974  -3.886   7.204   1.888 -0.5775 -0.7166  1.0269
  109MOL   C19934975  -4.021   7.271   1.919  0.8144 -0.2344  0.2497
  109MOL   C20034976  -3.783   7.285   1.834 -0.9811 -0.0473 -0.1431
  109MOL   C20134977  -3.657   7.228   1.803  0.3493 -0.1693  0.7998
  109MOL   H20234978  -3.506   6.926   1.787  1.5209  0.1796 -0.0093
  109MOL   H20334979  -3.466   7.075   1.708  0.0722  0.7054 -0.1489
  109MOL   H20434980  -3.705   6.915   1.925 -1.3190 -0.0658  1.6189
  109MOL   H20534981  -3.939   7.008   1.941  2.3022 -2.5832  0.7276
  109MOL   H20634982  -4.097   7.203   1.958 -0.3972  0.3696 -1.0187
  109MOL   H20734983  -4.005   7.350   1.991 -0.0078 -0.5783  0.8080
  109MOL   H20834984  -3.786   7.392   1.815  0.7898  0.3467  1.5862
  109MOL   H20934985  -3.584   7.290   1.752 -2.5034  1.9137 -0.8862
  109MOL   C21034986  -4.088   7.331   1.800 -0.2128 -0.5335  0.2541
  109MOL   C21134987  -4.230   7.366   1.809  0.3641  0.7080  0.1847
  109MOL   C21234988  -4.286   7.493   1.763 -0.3981 -0.4057  0.5807
  109MOL   C21334989  -4.427   7.513   1.759 -0.2263 -0.5105 -0.5742
  109MOL   C21434990  -4.513   7.411   1.794  0.5028 -0.2017  0.4222
  109MOL   C21534991  -4.658   7.437   1.772 -0.2697 -0.3543  0.0977
  109MOL   C21634992  -4.467   7.286   1.843  0.3347 -0.2939 -0.6566
  109MOL   C21734993  -4.322   7.266   1.854  0.2520  0.0823  0.4908
  109MOL   H21834994  -4.081   7.269   1.710  0.7079 -0.3943  0.2208
  109MOL   H21934995  -4.033   7.421   1.772  0.1555 -0.9479 -0.3740
  109MOL   H22034996  -4.217   7.566   1.724  1.3284 -1.7051  1.1342
  109MOL   H22134997  -4.467   7.604   1.718 -0.3462 -1.1258 -1.8736
  109MOL   H22234998  -4.659   7.449   1.664  1.1518 -0.5420  0.0578
  109MOL   H22334999  -4.719   7.350   1.797 -1.7145  0.3229 -1.0119
  109MOL   H22435000  -4.533   7.206   1.871  0.5207  0.2112  1.3467
  109MOL   H22535001  -4.290   7.165   1.877 -3.9278 -1.4612 -0.0298
  109MOL   C22635002  -4.710   7.564   1.850  0.1193 -0.5420  0.8279
  109MOL   C22735003  -4.858   7.584   1.816 -0.5570 -0.1950 -0.0676
  109MOL   C22835004  -4.964   7.487   1.837 -0.0666 -0.0531 -0.4524
  109MOL   C22935005  -5.101   7.509   1.809 -0.2489  0.0548  0.5472
  109MOL   C23035006  -5.135   7.641   1.760 -0.2881  0.0526 -0.4239
  109MOL   C23135007  -5.284   7.662   1.733 -0.2405  0.4670 -0.0484
  109MOL   C23235008  -5.039   7.737   1.735  0.2900  0.8846 -0.6149
  109MOL   C23335009  -4.905   7.708   1.763 -0.4704 -0.2717 -1.1134
  109MOL   H23435010  -4.648   7.643   1.809  2.5063 -0.4833  4.3001
  109MOL   H23535011  -4.693   7.554   1.958  2.1905 -0.1130  0.5537
  109MOL   H23635012  -4.930   7.388   1.861  1.2981  0.3588 -0.6317
  109MOL   H23735013  -5.164   7.421   1.815 -0.6767  0.3782  0.8079
  109MOL   H23835014  -5.293   7.704   1.633  2.3006 -0.2247 -0.6110
  109MOL   H23935015  -5.340   7.570   1.751  0.5649  0.5803  3.4755
  109MOL   H24035016  -5.052   7.838   1.700 -0.2603  0.0900 -2.8105
  109MOL   H24135017  -4.839   7.790   1.742 -1.1821  1.0259  1.5335
  109MOL   C24235018  -5.343   7.766   1.837  0.7595  0.1349 -0.5241
  109MOL   C24335019  -5.482   7.802   1.803  0.5384  0.1320  0.0240
  109MOL   C24435020  -5.499   7.920   1.722 -1.1585 -0.0387 -0.2688
  109MOL   C24535021  -5.623   7.958   1.674  0.7428  0.5655 -0.5027
  109MOL   C24635022  -5.733   7.880   1.708  0.3333 -0.2589 -1.1834
  109MOL   C24735023  -5.858   7.916   1.631  0.2047 -0.3941  0.5607
  109MOL   C24835024  -5.726   7.777   1.799  0.3979 -0.4677  0.4830
  109MOL   C24935025  -5.599   7.740   1.845  0.0644  0.2636 -0.7574
  109MOL   H25035026  -5.339   7.722   1.936 -1.0572 -1.3581 -1.0697
  109MOL   H25135027  -5.284   7.857   1.841 -2.0097  2.0027 -0.3774
  109MOL   H25235028  -5.422   7.994   1.707  0.2032 -1.1208  1.1769
  109MOL   H25335029  -5.634   8.048   1.615 -1.9735  0.5539 -0.0825
  109MOL   H25435030  -5.838   7.980   1.546 -2.0278  0.8186  0.9234
  109MOL   H25535031  -5.901   7.821   1.599  0.1427 -0.3791  0.5977
  109MOL   H25635032  -5.817   7.724   1.821  0.4291  0.0248  1.8109
  109MOL   H25735033  -5.606   7.659   1.915  0.2211  1.6055  0.8297
  109MOL   C25835034  -5.960   7.994   1.715  0.9121  0.1020 -0.2236
  109MOL   C25935035  -6.076   8.045   1.636 -0.2212 -0.4798  0.4910
  109MOL   C26035036  -6.206   7.985   1.657 -0.3067  0.4248  0.4785
  109MOL   C26135037  -6.318   8.037   1.599  0.7152 -0.4059 -0.0994
  109MOL   C26235038  -6.296   8.155   1.521  0.0822  0.4914 -0.1071
  109MOL   C26335039  -6.418   8.228   1.465 -0.0237  0.2442 -0.2410
  109MOL   C26435040  -6.172   8.216   1.500 -0.0291 -0.2484  0.1055
  109MOL   C26535041  -6.060   8.162   1.560  0.4718 -0.4907  0.1377
  109MOL   H26635042  -5.915   8.074   1.773 -1.2683  1.3242 -0.1902
  109MOL   H26735043  -5.996   7.920   1.786 -0.0146  1.3671  0.6492
  109MOL   H26835044  -6.208   7.896   1.719  1.1644  0.9142  1.2603
  109MOL   H26935045  -6.418   7.999   1.592  0.0324  0.7043  2.8613
  109MOL   H27035046  -6.502   8.190   1.523 -0.3156  2.3491  0.7504
  109MOL   H27135047  -6.416   8.331   1.502 -3.1051  0.3168 -0.1780
  109MOL   H27235048  -6.160   8.301   1.435 -0.6080 -1.2266 -1.2916
  109MOL   H27335049  -5.960   8.199   1.545 -0.0451  1.1514  0.5739
  109MOL   C27435050  -6.433   8.221   1.311  0.1990 -0.2080 -0.6819
  109MOL   C27535051  -6.313   8.218   1.227 -0.2245  0.4796  0.1281
  109MOL   C27635052  -6.255   8.334   1.176  0.2753 -0.6592  0.0126
  109MOL   C27735053  -6.132   8.330   1.115  0.0923 -0.2643  0.1913
  109MOL   C27835054  -6.067   8.205   1.096 -0.0740  0.2247  0.8007
  109MOL   C27935055  -5.928   8.204   1.047 -0.2047  0.1144  0.4110
  109MOL   C28035056  -6.134   8.086   1.136  0.5055  0.2392 -0.9574
  109MOL   C28135057  -6.254   8.100   1.203 -0.1157  0.1352 -0.1914
  109MOL   H28235058  -6.482   8.129   1.279  0.2724  0.0766 -1.6232
  109MOL   H28335059  -6.505   8.300   1.288 -2.4510 -2.2976  0.0884
  109MOL   H28435060  -6.295   8.432   1.196  4.4946  1.0301  0.8098
  109MOL   H28535061  -6.076   8.419   1.090  1.5454 -1.5259 -1.1778
  109MOL   H28635062  -5.918   8.103   1.006  0.1874 -0.0453  0.8908
  109MOL   H28735063  -5.910   8.285   0.978  2.2534  0.3127  1.2198
  109MOL   H28835064  -6.098   7.990   1.103  3.1261 -0.2971  3.1376
  109MOL   H28935065  -6.301   8.009   1.237  1.9246 -1.5407 -1.7098
  109MOL   C29035066  -5.838   8.226   1.175  0.2012 -0.0982 -0.8369
  109MOL   C29135067  -5.692   8.191   1.171 -0.9287 -0.1429  0.1172
  109MOL   C29235068  -5.625   8.120   1.276  0.0300 -0.3387 -0.2527
  109MOL   C29335069  -5.485   8.092   1.264 -0.1701  0.0577 -0.3732
  109MOL   C29435070  -5.411   8.128   1.146 -0.4853  0.1000 -1.1215
  109MOL   C29535071  -5.261   8.103   1.140 -0.5769 -0.5883 -0.4840
  109MOL   C29635072  -5.483   8.186   1.042 -0.1549  0.4104 -0.3753
  109MOL   C29735073  -5.618   8.216   1.048 -0.3233 -0.9731 -1.1712
  109MOL   H29835074  -5.889   8.180   1.260 -1.8372  2.7919 -0.4545
  109MOL   H29935075  -5.828   8.332   1.196  1.2916 -0.9751  3.7496
  109MOL   H30035076  -5.683   8.099   1.365 -2.2221 -0.0971 -1.6395
  109MOL   H30135077  -5.440   8.054   1.354 -0.0468  2.0628  0.4438
  109MOL   H30235078  -5.206   8.161   1.066 -0.2222  1.6681  1.4662
  109MOL   H30335079  -5.233   8.137   1.240 -3.4102  0.4852 -0.0161
  109MOL   H30435080  -5.427   8.223   0.958  2.3786  0.4589  1.2900
  109MOL   H30535081  -5.657   8.270   0.963 -0.0697 -0.4514 -0.9578
  109MOL   C30635082  -5.228   7.961   1.099  0.4047 -0.1170 -0.1468
  109MOL   C30735083  -5.075   7.933   1.072  0.1208 -0.0232  0.1305
  109MOL   C30835084  -5.022   7.948   0.939 -0.0915 -0.3129  0.0201
  109MOL   C30935085  -4.891   7.896   0.914  0.1212  0.2657  0.3237
  109MOL   C31035086  -4.807   7.842   1.016 -0.1606  0.0557 -1.2376
  109MOL   C31135087  -4.662   7.786   0.995 -0.0992  0.0946  0.2789
  109MOL   C31235088  -4.859   7.837   1.149  0.0523 -0.5139  0.0078
  109MOL   C31335089  -4.993   7.875   1.173 -0.6540  0.1027  0.2654
  109MOL   H31435090  -5.279   7.936   1.007 -2.3474  3.7949  0.2130
  109MOL   H31535091  -5.268   7.893   1.175  2.0753  0.1001  0.9661
  109MOL   H31635092  -5.076   7.997   0.860 -0.6789  1.5966  1.5603
  109MOL   H31735093  -4.857   7.897   0.811 -1.2016  1.0111 -0.1209
  109MOL   H31835094  -4.648   7.691   1.047 -0.6793 -0.0201  0.2288
  109MOL   H31935095  -4.653   7.777   0.887  0.3586  1.0093  0.2313
  109MOL   H32035096  -4.797   7.803   1.231 -2.0678 -0.7171  1.5707
  109MOL   H32135097  -5.040   7.863   1.269  1.1653 -0.4122  1.1080
  109MOL   H32235098  -4.585   7.854   1.032  1.5395 -0.6593 -1.6216
  110MOL     C135099   4.011   0.629   5.118  1.1624  0.8152  0.1602
  110MOL     C235100   4.130   0.535   5.114 -0.3313 -0.0024  0.1803
  110MOL     C335101   4.170   0.460   5.228 -0.2748  0.0519  0.4244
  110MOL     C435102   4.284   0.382   5.226  0.3353  0.3572 -0.5177
  110MOL     C535103   4.359   0.371   5.108 -0.1129 -0.6737  0.0970
  110MOL     C635104   4.500   0.293   5.107 -0.0923 -0.3778 -0.1826
  110MOL     C735105   4.318   0.445   4.993  0.0774 -0.5936  0.1253
  110MOL     C835106   4.210   0.529   5.000  0.2220 -0.0800  0.1324
  110MOL     H935107   3.931   0.576   5.169  0.0450 -0.3356 -2.6502
  110MOL    H1035108   4.043   0.708   5.186  0.6806  0.3949  0.8704
  110MOL    H1135109   4.111   0.467   5.318 -1.9491 -0.3227 -0.6289
  110MOL    H1235110   4.311   0.332   5.318  1.7997  1.8164 -0.1277
  110MOL    H1335111   4.571   0.353   5.166 -3.0090  1.4075  1.6643
  110MOL    H1435112   4.497   0.199   5.161  0.4938 -0.1577  0.2526
  110MOL    H1535113   4.376   0.449   4.902  0.5231 -0.2605  0.4269
  110MOL    H1635114   4.185   0.599   4.922  3.8093  1.3836  0.2150
  110MOL    H1735115   3.960   0.661   5.027  1.3402 -0.8378 -0.5477
  110MOL    C1835116   4.569   0.280   4.971  0.2299 -0.5779  0.0903
  110MOL    C1935117   4.711   0.226   4.994  0.5012  1.0877 -0.6475
  110MOL    C2035118   4.737   0.092   4.968 -0.3527  0.2841  0.9987
  110MOL    C2135119   4.867   0.033   4.980 -0.3389 -1.0577 -0.0889
  110MOL    C2235120   4.973   0.116   5.024  0.1103 -0.4536  0.7646
  110MOL    C2335121   5.114   0.065   5.030  0.2146 -0.0794  1.0690
  110MOL    C2435122   4.944   0.247   5.066  0.2557 -0.1455 -0.5170
  110MOL    C2535123   4.816   0.304   5.051  0.2395  0.7099 -0.6445
  110MOL    H2635124   4.515   0.219   4.899  0.5337  0.4569 -1.0281
  110MOL    H2735125   4.586   0.380   4.930  2.9299 -2.1848 -2.8158
  110MOL    H2835126   4.661   0.030   4.922 -0.8677  1.2612  0.5288
  110MOL    H2935127   4.883  -0.068   4.945  3.1812  0.0275 -1.7947
  110MOL    H3035128   5.124  -0.024   5.092 -0.1321 -0.8443  0.0261
  110MOL    H3135129   5.186   0.135   5.074  1.9736 -0.7329 -0.7099
  110MOL    H3235130   5.026   0.306   5.104  0.4941 -0.3009 -0.7827
  110MOL    H3335131   4.797   0.409   5.070  1.8479  1.1876 -1.4745
  110MOL    C3435132   5.164   0.045   4.881  0.2796  0.8799  0.7278
  110MOL    C3535133   5.294  -0.031   4.873  0.4674  0.1347 -0.0068
  110MOL    C3635134   5.292  -0.166   4.833 -0.4392  0.1305  0.0156
  110MOL    C3735135   5.414  -0.232   4.818  0.6457  0.7791 -0.8013
  110MOL    C3835136   5.540  -0.163   4.832 -0.1297  0.5386  0.1828
  110MOL    C3935137   5.668  -0.236   4.810  0.0340 -0.3902 -0.0669
  110MOL    C4035138   5.536  -0.034   4.880  0.1219  0.1817  0.7189
  110MOL    C4135139   5.415   0.034   4.904  0.5595 -0.0563 -0.3278
  110MOL    H4235140   5.183   0.142   4.835  0.8132 -0.5682 -2.2192
  110MOL    H4335141   5.090   0.009   4.810  1.6468  2.3497 -1.5104
  110MOL    H4435142   5.196  -0.212   4.813  0.2524 -0.7592 -1.3537
  110MOL    H4535143   5.416  -0.339   4.803 -1.6419  0.4190  1.1831
  110MOL    H4635144   5.670  -0.314   4.735 -1.0563 -0.2827 -0.2130
  110MOL    H4735145   5.747  -0.172   4.772 -1.9488  1.0594 -1.8308
  110MOL    H4835146   5.626   0.022   4.899 -0.6115  2.1223 -1.3975
  110MOL    H4935147   5.404   0.128   4.955  2.0865 -1.6433  3.1243
  110MOL    C5035148   5.716  -0.305   4.936  0.6186  0.7119 -0.1990
  110MOL    C5135149   5.841  -0.383   4.902  0.2455  0.2029 -0.2086
  110MOL    C5235150   5.961  -0.320   4.880 -0.6089 -0.9376  0.0820
  110MOL    C5335151   6.073  -0.400   4.861 -0.1853  0.2313  0.5633
  110MOL    C5435152   6.067  -0.539   4.856 -0.5460  0.4967 -0.5715
  110MOL    C5535153   6.194  -0.621   4.835  0.3853 -0.1346 -0.4248
  110MOL    C5635154   5.949  -0.598   4.895  0.0406 -0.1449  0.0771
  110MOL    C5735155   5.835  -0.520   4.913 -0.4955  0.3732  0.0688
  110MOL    H5835156   5.637  -0.374   4.967  1.5686 -0.8865 -1.2375
  110MOL    H5935157   5.729  -0.241   5.023  0.4712  1.4341 -0.7090
  110MOL    H6035158   5.966  -0.212   4.882  2.0995 -1.0296  0.1324
  110MOL    H6135159   6.167  -0.348   4.847 -1.2828  1.9164 -0.8040
  110MOL    H6235160   6.262  -0.568   4.902  0.6551  1.0233 -1.5739
  110MOL    H6335161   6.163  -0.720   4.867 -0.7445  0.1196 -0.7086
  110MOL    H6435162   5.949  -0.703   4.921 -3.3114 -0.3976 -0.7430
  110MOL    H6535163   5.747  -0.579   4.933  0.2497 -1.2097 -1.2151
  110MOL    C6635164   6.238  -0.634   4.695  0.0190  0.7593  0.4250
  110MOL    C6735165   6.290  -0.507   4.634 -0.6136 -0.0003 -0.4588
  110MOL    C6835166   6.232  -0.450   4.517  0.2561  0.4374  0.5133
  110MOL    C6935167   6.269  -0.326   4.466 -0.3183 -0.1826 -0.3815
  110MOL    C7035168   6.374  -0.256   4.534  0.3552  0.3866 -0.2673
  110MOL    C7135169   6.423  -0.124   4.484 -0.2183 -0.3835 -0.0028
  110MOL    C7235170   6.433  -0.309   4.650 -0.3571  0.4291 -0.9224
  110MOL    C7335171   6.390  -0.434   4.699  0.1720 -0.4769  0.4025
  110MOL    H7435172   6.163  -0.670   4.625  1.5092 -2.2331  0.2865
  110MOL    H7535173   6.327  -0.696   4.684 -0.1940  0.3689  0.9300
  110MOL    H7635174   6.149  -0.504   4.474  1.1637 -1.3343  0.9281
  110MOL    H7735175   6.234  -0.283   4.373  1.1654  0.3953 -0.7004
  110MOL    H7835176   6.355  -0.093   4.404  1.4234  0.8318 -0.9615
  110MOL    H7935177   6.518  -0.150   4.438 -0.4542 -0.5235 -0.4179
  110MOL    H8035178   6.516  -0.261   4.699 -0.4450  0.6847 -1.0222
  110MOL    H8135179   6.446  -0.466   4.786  0.9028  0.6241  0.3366
  110MOL    C8235180   6.430  -0.003   4.587  0.4482 -0.4398 -0.5920
  110MOL    C8335181   6.293   0.056   4.630  0.6087 -0.9108 -0.2506
  110MOL    C8435182   6.179  -0.024   4.652 -0.4453  0.6925  0.6236
  110MOL    C8535183   6.062   0.034   4.701  0.3439  0.5823 -0.2715
  110MOL    C8635184   6.043   0.175   4.724  0.0315  0.1423  0.3592
  110MOL    C8735185   5.912   0.233   4.769 -0.6727  0.0830  0.2930
  110MOL    C8835186   6.163   0.247   4.719  0.5516 -0.5288 -0.6425
  110MOL    C8935187   6.286   0.186   4.675 -0.0036 -0.9027  0.2699
  110MOL    H9035188   6.496   0.075   4.547  1.4904 -0.8811  0.2536
  110MOL    H9135189   6.475  -0.038   4.679  1.0686  0.8621 -0.3795
  110MOL    H9235190   6.175  -0.125   4.615 -0.3461  0.9961 -0.2460
  110MOL    H9335191   5.978  -0.034   4.710  0.9613  0.0731  1.9661
  110MOL    H9435192   5.930   0.303   4.851 -2.2075  2.1540 -1.0663
  110MOL    H9535193   5.848   0.149   4.795  0.9776 -1.0438  0.7791
  110MOL    H9635194   6.172   0.352   4.744 -2.1135 -0.4869  0.2661
  110MOL    H9735195   6.376   0.246   4.668  0.8433 -2.3801 -1.7525
  110MOL    C9835196   5.850   0.317   4.657 -0.2925  0.4265 -0.3825
  110MOL    C9935197   5.719   0.379   4.698 -0.3207 -0.5351 -0.7293
  110MOL   C10035198   5.612   0.295   4.710  0.2012  0.4918 -0.5162
  110MOL   C10135199   5.483   0.339   4.750  0.2804 -0.2639  0.1059
  110MOL   C10235200   5.463   0.479   4.767  0.4317  0.5279  0.0753
  110MOL   C10335201   5.336   0.534   4.816 -0.1319  0.1986  0.2015
  110MOL   C10435202   5.568   0.564   4.736 -0.2757  0.4404 -0.3735
  110MOL   C10535203   5.703   0.516   4.720  1.0731 -0.5396 -0.5104
  110MOL   H10635204   5.833   0.256   4.568  0.2434  0.5282 -0.5578
  110MOL   H10735205   5.918   0.396   4.627  1.4084 -0.9005 -0.0879
  110MOL   H10835206   5.633   0.191   4.686  0.5149 -0.2990  2.8948
  110MOL   H10935207   5.406   0.266   4.773 -1.4896  1.7722  0.8196
  110MOL   H11035208   5.316   0.506   4.920  0.9981 -3.4434 -0.4872
  110MOL   H11135209   5.342   0.643   4.816 -0.0804  0.1992 -0.9950
  110MOL   H11235210   5.552   0.671   4.742 -0.4427  0.5501 -2.5103
  110MOL   H11335211   5.791   0.579   4.715  0.2239  0.5918 -1.7688
  110MOL   C11435212   5.215   0.501   4.719  0.6103 -0.3183 -0.0115
  110MOL   C11535213   5.099   0.583   4.759  0.1634 -0.4841  0.6186
  110MOL   C11635214   5.089   0.712   4.715  0.9929 -0.2809  0.2847
  110MOL   C11735215   4.983   0.797   4.750 -0.3578  0.2654 -0.3609
  110MOL   C11835216   4.869   0.739   4.815 -0.3820 -0.2410 -0.5988
  110MOL   C11935217   4.752   0.830   4.856  0.3859  0.6472 -0.4578
  110MOL   C12035218   4.875   0.604   4.849 -0.2571 -0.5972 -0.1369
  110MOL   C12135219   4.990   0.526   4.819  0.0122 -0.6465  0.0017
  110MOL   H12235220   5.199   0.393   4.724 -0.6624 -0.1304  0.0960
  110MOL   H12335221   5.239   0.522   4.615  1.3274  1.3454  0.4860
  110MOL   H12435222   5.170   0.745   4.652  0.7427 -0.4083 -0.1045
  110MOL   H12535223   4.999   0.900   4.720  0.0824  0.6308  1.0887
  110MOL   H12635224   4.774   0.847   4.961 -2.3704  0.2794  0.2130
  110MOL   H12735225   4.753   0.926   4.804 -1.4262 -0.4344 -2.5767
  110MOL   H12835226   4.799   0.543   4.896  0.5491 -0.2337  1.6883
  110MOL   H12935227   4.997   0.423   4.848 -1.4224 -0.5509  0.7025
  110MOL   C13035228   4.611   0.763   4.833 -0.0410 -0.4154 -0.1388
  110MOL   C13135229   4.496   0.854   4.849 -0.0386  0.5378 -0.4363
  110MOL   C13235230   4.403   0.818   4.949 -0.0877  0.0493 -0.1343
  110MOL   C13335231   4.293   0.908   4.968  0.3710 -0.4279 -0.9291
  110MOL   C13435232   4.270   1.025   4.887 -0.0105  0.7578 -0.4552
  110MOL   C13535233   4.147   1.110   4.906  0.7679  0.1445 -0.4529
  110MOL   C13635234   4.372   1.058   4.796  0.5702 -0.9467 -0.0567
  110MOL   C13735235   4.479   0.973   4.775 -0.3177 -0.0083 -0.3527
  110MOL   H13835236   4.591   0.668   4.882 -3.5293  0.2959 -0.0684
  110MOL   H13935237   4.601   0.732   4.729 -1.8566 -0.0747 -0.0850
  110MOL   H14035238   4.403   0.721   4.998  1.4598  0.0477 -0.1272
  110MOL   H14135239   4.223   0.897   5.050  1.1967 -1.6436 -0.3765
  110MOL   H14235240   4.151   1.163   5.001  1.0128  1.6719 -1.2864
  110MOL   H14335241   4.161   1.187   4.830  2.9868  1.2925  1.0651
  110MOL   H14435242   4.362   1.148   4.737  3.3056 -0.7444 -0.2937
  110MOL   H14535243   4.546   0.994   4.693  0.9567  0.2713  0.7486
  110MOL   C14635244   4.013   1.041   4.883  0.0514 -0.9626 -0.1431
  110MOL   C14735245   3.893   1.123   4.944 -0.1354 -0.7691  0.3762
  110MOL   C14835246   3.802   1.054   5.028 -0.3309 -0.7568 -0.1730
  110MOL   C14935247   3.685   1.119   5.066  0.2400 -1.0080 -0.2776
  110MOL   C15035248   3.658   1.250   5.019 -0.3552  0.0780  0.5081
  110MOL   C15135249   3.523   1.313   5.044 -0.2382 -0.4916 -0.2123
  110MOL   C15235250   3.747   1.314   4.930  0.0570  0.5563  0.5523
  110MOL   C15335251   3.867   1.252   4.890 -0.7528  0.2442  0.0580
  110MOL   H15435252   4.011   0.941   4.928  0.4228 -0.3915  1.1525
  110MOL   H15535253   3.995   1.019   4.778 -1.5596 -1.6673  0.2669
  110MOL   H15635254   3.830   0.956   5.063  1.2808 -0.2683 -0.0832
  110MOL   H15735255   3.620   1.062   5.130 -1.4958  2.5212  1.2650
  110MOL   H15835256   3.480   1.257   5.127 -0.8452 -1.6933 -1.3229
  110MOL   H15935257   3.535   1.420   5.058 -1.6212 -0.1140 -1.7582
  110MOL   H16035258   3.708   1.406   4.888  2.7260  1.0179 -0.9869
  110MOL   H16135259   3.932   1.301   4.820 -1.5445  0.4330 -0.5521
  110MOL   C16235260   3.442   1.288   4.918 -0.3088  0.1251 -0.4545
  110MOL   C16335261   3.295   1.325   4.924  0.2762  0.4651  0.6701
  110MOL   C16435262   3.197   1.238   4.885 -0.1417  0.6812 -1.0892
  110MOL   C16535263   3.064   1.274   4.904 -0.3309  0.5281 -0.0890
  110MOL   C16635264   3.027   1.402   4.946 -0.4181 -0.1802  0.1885
  110MOL   C16735265   2.881   1.444   4.945 -0.3606 -0.5737 -0.2438
  110MOL   C16835266   3.124   1.492   4.984  0.2899 -0.3147  0.5363
  110MOL   C16935267   3.259   1.452   4.977  0.2314 -0.2089 -0.8775
  110MOL   H17035268   3.459   1.190   4.873 -3.1388 -0.1679 -0.9757
  110MOL   H17135269   3.473   1.353   4.836 -0.3568 -4.1347 -4.0275
  110MOL   H17235270   3.209   1.133   4.862 -0.0924  0.7808 -1.5231
  110MOL   H17335271   2.991   1.202   4.869  2.1223 -1.1708 -1.9102
  110MOL   H17435272   2.861   1.492   5.040 -2.0484  0.2942 -1.0174
  110MOL   H17535273   2.878   1.522   4.870  0.2875  0.2440  0.5770
  110MOL   H17635274   3.100   1.596   4.999 -0.9871 -0.8038  2.1373
  110MOL   H17735275   3.330   1.526   5.011 -0.5375  0.1638 -0.0733
  110MOL   C17835276   2.773   1.341   4.921 -0.0264  0.3127 -0.2158
  110MOL   C17935277   2.634   1.392   4.901 -0.1119  0.3015 -0.2378
  110MOL   C18035278   2.561   1.462   5.000 -0.7086 -0.0405 -0.1031
  110MOL   C18135279   2.426   1.492   4.969  0.5588  0.3635 -0.8503
  110MOL   C18235280   2.372   1.468   4.845 -0.6482  0.4867  0.2922
  110MOL   C18335281   2.233   1.506   4.799  0.1101  1.0270  0.2787
  110MOL   C18435282   2.451   1.406   4.745  0.7816  0.2559  0.3483
  110MOL   C18535283   2.579   1.370   4.772  0.2031 -1.0353  0.3524
  110MOL   H18635284   2.767   1.259   4.994  1.4081  0.8627  0.5549
  110MOL   H18735285   2.798   1.283   4.833  2.2060 -1.2401  1.3595
  110MOL   H18835286   2.607   1.489   5.094  1.5152 -1.3456 -0.7710
  110MOL   H18935287   2.374   1.548   5.045 -0.3441  1.1005 -1.9772
  110MOL   H19035288   2.173   1.526   4.888  1.3797  1.4754  1.0417
  110MOL   H19135289   2.235   1.594   4.734 -0.1819  1.0866  0.3500
  110MOL   H19235290   2.419   1.401   4.642  2.9919 -0.2018 -0.3329
  110MOL   H19335291   2.625   1.318   4.689  1.4008  0.8431 -0.1772
  110MOL   C19435292   2.156   1.387   4.729  0.1394  0.4182 -0.2391
  110MOL   C19535293   2.027   1.433   4.670 -0.1347 -0.7719  0.5144
  110MOL   C19635294   1.940   1.524   4.740  0.1441  0.1576 -0.2943
  110MOL   C19735295   1.813   1.551   4.691  0.0498 -0.1035 -0.5107
  110MOL   C19835296   1.764   1.489   4.576 -0.2400 -0.4154  0.7120
  110MOL   C19935297   1.621   1.512   4.535 -0.3958 -0.1277 -0.6424
  110MOL   C20035298   1.840   1.394   4.511 -0.1522  0.5632  0.2996
  110MOL   C20135299   1.970   1.366   4.558 -0.1666  0.0095  0.1380
  110MOL   H20235300   2.151   1.302   4.797  0.1845  0.4187 -0.2358
  110MOL   H20335301   2.206   1.356   4.638 -0.1865  0.4221 -0.4201
  110MOL   H20435302   1.968   1.568   4.834  0.3145 -0.1664 -0.1911
  110MOL   H20535303   1.741   1.606   4.750  0.3180 -1.2767  0.9636
  110MOL   H20635304   1.601   1.456   4.443 -2.1840  0.9853 -0.9783
  110MOL   H20735305   1.558   1.466   4.611 -1.7147  0.6524 -1.2338
  110MOL   H20835306   1.802   1.340   4.426  0.6315 -0.0037  0.3011
  110MOL   H20935307   2.040   1.296   4.514 -0.4608  0.9262 -1.8501
  110MOL   C21035308   1.592   1.665   4.514  0.1525  0.1754  0.2218
  110MOL   C21135309   1.439   1.690   4.511  0.0239  0.0171  0.1878
  110MOL   C21235310   1.357   1.661   4.619 -0.0435  0.2481 -0.1914
  110MOL   C21335311   1.219   1.680   4.619 -0.7290  0.3290  0.1234
  110MOL   C21435312   1.157   1.725   4.502 -0.7038  1.2913 -0.1999
  110MOL   C21535313   1.004   1.736   4.486 -0.3603 -0.8531  0.2707
  110MOL   C21635314   1.241   1.753   4.391 -0.0469  0.4193 -0.2427
  110MOL   C21735315   1.380   1.738   4.394 -0.0874  0.4628  0.2463
  110MOL   H21835316   1.643   1.703   4.425 -2.8324  2.0674 -0.7563
  110MOL   H21935317   1.631   1.734   4.588  2.4631 -0.4427 -0.3922
  110MOL   H22035318   1.412   1.626   4.705 -0.9692  0.2193  0.3972
  110MOL   H22135319   1.162   1.657   4.708 -0.7986 -1.9581 -0.4888
  110MOL   H22235320   0.990   1.796   4.395  0.0069 -0.0124  0.7662
  110MOL   H22335321   0.964   1.639   4.455  2.3448 -1.6305 -0.9835
  110MOL   H22435322   1.191   1.770   4.297  1.2368 -1.3988 -1.3107
  110MOL   H22535323   1.443   1.768   4.311  1.5911  0.7190  1.5713
  110MOL   C22635324   0.936   1.780   4.616  0.5879 -0.3771 -0.3048
  110MOL   C22735325   0.781   1.812   4.616 -0.1311  0.6403  0.4673
  110MOL   C22835326   0.698   1.765   4.719 -0.5964 -1.0091 -0.0360
  110MOL   C22935327   0.563   1.803   4.734 -0.0475  0.8915  0.2491
  110MOL   C23035328   0.507   1.874   4.630  0.1547 -0.3181 -0.3422
  110MOL   C23135329   0.361   1.902   4.627 -0.2284 -0.2084 -0.4784
  110MOL   C23235330   0.587   1.927   4.526 -0.5831  0.3325  0.1227
  110MOL   C23335331   0.726   1.894   4.513 -0.0985  0.2877 -0.4683
  110MOL   H23435332   0.994   1.866   4.651  1.0206 -0.8660  0.1741
  110MOL   H23535333   0.950   1.715   4.702  0.7580  1.0867  0.8011
  110MOL   H23635334   0.733   1.690   4.788 -0.8334 -1.3913 -0.3283
  110MOL   H23735335   0.504   1.762   4.815 -1.0888  0.1387 -0.8799
  110MOL   H23835336   0.318   1.829   4.559 -2.4341 -1.2813  2.0228
  110MOL   H23935337   0.321   1.872   4.724 -0.6144 -1.6935 -1.0842
  110MOL   H24035338   0.554   1.973   4.434 -1.3149 -0.5403 -0.0500
  110MOL   H24135339   0.794   1.930   4.439  1.9599 -1.5826  0.4600
  110MOL   C24235340   0.311   2.048   4.598  0.3992 -0.2292 -0.4807
  110MOL   C24335341   0.155   2.063   4.604 -0.2453  0.1291  0.2748
  110MOL   C24435342   0.089   2.070   4.730  0.1215  0.9378 -0.4663
  110MOL   C24535343  -0.054   2.064   4.738  0.4231 -0.3936  0.1860
  110MOL   C24635344  -0.126   2.061   4.615 -0.4052  0.2003  0.6159
  110MOL   C24735345  -0.277   2.055   4.604  0.0673 -0.2163 -0.5205
  110MOL   C24835346  -0.062   2.057   4.495 -0.0634  0.1380  0.2025
  110MOL   C24935347   0.080   2.063   4.486  0.0610 -0.0666  0.8007
  110MOL   H25035348   0.345   2.118   4.674  1.5977 -1.2886 -0.0340
  110MOL   H25135349   0.350   2.085   4.503  1.8787  0.1871  0.2666
  110MOL   H25235350   0.139   2.072   4.826 -0.4005  2.1664 -0.2127
  110MOL   H25335351  -0.107   2.069   4.831  2.1112  1.2134  1.0771
  110MOL   H25435352  -0.299   1.998   4.514  1.6836 -0.4385 -0.7950
  110MOL   H25535353  -0.313   2.001   4.691 -0.5862  0.7362 -0.1971
  110MOL   H25635354  -0.113   2.068   4.400 -3.5187 -0.1989  1.9437
  110MOL   H25735355   0.127   2.055   4.389  0.7011 -0.2016  1.1139
  110MOL   C25835356  -0.344   2.183   4.596  0.0932 -0.5337  0.5112
  110MOL   C25935357  -0.494   2.182   4.601  0.0672 -0.3749 -0.3140
  110MOL   C26035358  -0.576   2.216   4.486  0.2685  0.2212  0.1207
  110MOL   C26135359  -0.715   2.226   4.505 -0.5274  0.5358  0.4073
  110MOL   C26235360  -0.774   2.197   4.629  0.8846  0.2836 -0.3426
  110MOL   C26335361  -0.926   2.209   4.652  0.6180  0.9518  0.4602
  110MOL   C26435362  -0.695   2.165   4.742  0.3554 -0.0012 -0.1725
  110MOL   C26535363  -0.554   2.154   4.725  0.1371 -0.0884  0.5354
  110MOL   H26635364  -0.320   2.231   4.501 -0.8599  0.6615  0.8607
  110MOL   H26735365  -0.307   2.262   4.662 -0.9606  0.3834  0.0302
  110MOL   H26835366  -0.534   2.235   4.388 -3.4708 -2.4757 -2.1420
  110MOL   H26935367  -0.774   2.256   4.420 -0.4617  1.6779  0.7595
  110MOL   H27035368  -0.976   2.179   4.560 -0.1356  1.9321  0.5313
  110MOL   H27135369  -0.965   2.152   4.737 -0.0664  0.8057  0.0492
  110MOL   H27235370  -0.736   2.138   4.838 -2.0006 -4.5803 -2.2874
  110MOL   H27335371  -0.491   2.138   4.811 -1.8439 -0.4537  1.9738
  110MOL   C27435372  -0.974   2.352   4.664 -0.2548 -0.2521  0.5090
  110MOL   C27535373  -1.126   2.373   4.662  0.5175  0.7999  0.1706
  110MOL   C27635374  -1.208   2.335   4.772 -0.2081 -0.2738  0.3728
  110MOL   C27735375  -1.347   2.334   4.762 -0.0056  0.5346  0.5560
  110MOL   C27835376  -1.413   2.392   4.654 -0.2277  0.4303  0.1382
  110MOL   C27935377  -1.568   2.390   4.654 -1.1325 -0.8734  0.1640
  110MOL   C28035378  -1.332   2.437   4.544 -0.1404 -0.0330  0.2580
  110MOL   C28135379  -1.191   2.419   4.549  0.1981 -0.6895  0.1441
  110MOL   H28235380  -0.932   2.405   4.750  0.2720  0.0025  0.0928
  110MOL   H28335381  -0.937   2.405   4.577 -0.8780  0.5129  0.7117
  110MOL   H28435382  -1.155   2.297   4.858 -0.8082  0.6417  1.1600
  110MOL   H28535383  -1.407   2.307   4.848 -0.1135  0.3075  0.4106
  110MOL   H28635384  -1.603   2.356   4.556 -1.0070  0.3526 -0.3155
  110MOL   H28735385  -1.596   2.308   4.721  3.0493 -2.2676  0.3163
  110MOL   H28835386  -1.370   2.467   4.448  0.3080 -0.2849 -0.0016
  110MOL   H28935387  -1.133   2.446   4.462 -0.2990 -0.7564 -0.2135
  110MOL   C29035388  -1.626   2.524   4.698 -0.2975  0.6479 -0.7067
  110MOL   C29135389  -1.769   2.527   4.724  0.1705  0.4050 -0.4223
  110MOL   C29235390  -1.816   2.508   4.855  1.2678 -0.2966 -0.1217
  110MOL   C29335391  -1.954   2.526   4.887  0.6218  0.1655  0.5040
  110MOL   C29435392  -2.042   2.561   4.782 -0.5303  0.0894  0.2810
  110MOL   C29535393  -2.187   2.575   4.818  0.2101  0.9652  1.2409
  110MOL   C29635394  -1.993   2.577   4.653 -0.3698 -0.0759  0.4707
  110MOL   C29735395  -1.863   2.555   4.620 -0.5839  0.1380  0.2876
  110MOL   H29835396  -1.604   2.599   4.623  0.6580  1.4216  0.3259
  110MOL   H29935397  -1.571   2.560   4.785  0.3442 -1.1887 -0.3286
  110MOL   H30035398  -1.756   2.479   4.940 -2.8201 -0.2043  2.9402
  110MOL   H30135399  -1.981   2.507   4.990  1.7467 -0.8192  0.6251
  110MOL   H30235400  -2.241   2.526   4.736  1.1940  2.8560 -0.5928
  110MOL   H30335401  -2.218   2.529   4.911 -1.2358 -0.9961 -0.1590
  110MOL   H30435402  -2.066   2.611   4.581  0.2046  0.1983  0.0186
  110MOL   H30535403  -1.821   2.552   4.521 -0.1749  2.4093  0.3650
  110MOL   C30635404  -2.230   2.718   4.820  0.1057  0.6379 -0.2964
  110MOL   C30735405  -2.378   2.718   4.830  0.4588  0.2660  0.8457
  110MOL   C30835406  -2.460   2.744   4.719  0.8274 -0.3614  0.6616
  110MOL   C30935407  -2.598   2.782   4.731 -0.0531 -0.4428  0.2871
  110MOL   C31035408  -2.653   2.798   4.858 -0.4760 -0.0740 -0.1954
  110MOL   C31135409  -2.794   2.850   4.879 -0.1602 -0.5998 -0.8855
  110MOL   C31235410  -2.571   2.754   4.968 -0.0013 -0.0674 -0.6475
  110MOL   C31335411  -2.440   2.718   4.956 -0.2868 -0.3700  0.3624
  110MOL   H31435412  -2.196   2.785   4.742  1.0497  1.2391  0.6197
  110MOL   H31535413  -2.190   2.765   4.910 -0.1477 -0.5971  0.4859
  110MOL   H31635414  -2.406   2.752   4.626  0.7631  1.0665  0.7345
  110MOL   H31735415  -2.657   2.808   4.644 -1.7121 -0.0755  1.4973
  110MOL   H31835416  -2.821   2.860   4.985  0.7020 -0.7515 -0.6454
  110MOL   H31935417  -2.812   2.952   4.843 -0.3910  0.3678  1.8098
  110MOL   H32035418  -2.619   2.765   5.064  2.7711 -2.8712  1.1203
  110MOL   H32135419  -2.389   2.715   5.052  0.0175 -1.9258  0.1684
  110MOL   H32235420  -2.855   2.781   4.822  0.4844 -0.0331 -2.2686
  111MOL     C135421   3.227   5.119   1.618 -0.0567  0.1855 -0.1931
  111MOL     C235422   3.367   5.072   1.663 -0.6983 -0.2303 -0.1131
  111MOL     C335423   3.488   5.134   1.614  0.3483  0.3919 -0.2590
  111MOL     C435424   3.612   5.091   1.652 -0.7170  0.3590  0.5031
  111MOL     C535425   3.624   4.969   1.727  0.5667  0.2612  0.7984
  111MOL     C635426   3.758   4.914   1.760 -0.2579  0.3136 -0.0757
  111MOL     C735427   3.507   4.897   1.763 -0.0677  0.0829  0.0746
  111MOL     C835428   3.379   4.949   1.738 -0.8111  0.2556 -0.3750
  111MOL     H935429   3.146   5.053   1.650  0.7584  0.4509  2.5985
  111MOL    H1035430   3.206   5.220   1.654 -1.3637  0.4661 -1.6783
  111MOL    H1135431   3.478   5.218   1.546  1.2599  0.6809 -0.0422
  111MOL    H1235432   3.707   5.135   1.623  0.9536 -1.1304  3.4693
  111MOL    H1335433   3.819   5.002   1.741 -0.5523  0.1178 -1.9997
  111MOL    H1435434   3.762   4.885   1.865  1.0019 -2.4245 -0.8330
  111MOL    H1535435   3.522   4.804   1.816 -0.9796 -0.1245 -0.0189
  111MOL    H1635436   3.294   4.886   1.759 -2.3380  1.6856 -2.0244
  111MOL    H1735437   3.229   5.115   1.510  0.7160  0.8956 -0.2129
  111MOL    C1835438   3.812   4.811   1.659 -0.0739 -0.3767  0.1233
  111MOL    C1935439   3.945   4.759   1.691 -0.0153  0.5039 -0.1135
  111MOL    C2035440   4.072   4.822   1.665  0.9185 -0.1359 -0.0855
  111MOL    C2135441   4.190   4.775   1.716  0.8923  0.6541 -0.6798
  111MOL    C2235442   4.187   4.655   1.796 -0.0494 -0.9054 -0.4679
  111MOL    C2335443   4.320   4.603   1.856  0.6890  0.7274  0.3318
  111MOL    C2435444   4.065   4.597   1.834  0.0316  0.0219  0.6669
  111MOL    C2535445   3.945   4.652   1.784  0.2237 -0.0885 -0.4544
  111MOL    H2635446   3.731   4.738   1.663 -0.0333 -0.5121 -1.3041
  111MOL    H2735447   3.818   4.853   1.559  0.3918  0.1025  0.3523
  111MOL    H2835448   4.072   4.911   1.605  0.2636  0.8496  1.3349
  111MOL    H2935449   4.280   4.827   1.687  0.7281  1.5862  0.4605
  111MOL    H3035450   4.293   4.560   1.953  0.6641  0.4525  0.2022
  111MOL    H3135451   4.391   4.683   1.878  0.2577  1.2489 -0.1531
  111MOL    H3235452   4.067   4.519   1.909  0.0489 -0.5567  0.0668
  111MOL    H3335453   3.848   4.616   1.813  0.5609 -1.5837 -1.1228
  111MOL    C3435454   4.384   4.495   1.765  0.6393  0.9475  0.5642
  111MOL    C3535455   4.518   4.454   1.830 -0.2687  0.3544  0.6206
  111MOL    C3635456   4.533   4.330   1.902 -0.4282  1.0367 -0.1226
  111MOL    C3735457   4.663   4.298   1.956  0.2317 -0.2399 -0.3267
  111MOL    C3835458   4.755   4.404   1.953 -0.2693  0.2236  0.3863
  111MOL    C3935459   4.885   4.377   2.023 -0.2557  0.4619 -0.8134
  111MOL    C4035460   4.740   4.522   1.885 -0.6069  0.3765 -0.7629
  111MOL    C4135461   4.623   4.545   1.819 -0.2534 -0.1030  0.5368
  111MOL    H4235462   4.409   4.532   1.665  2.0141 -0.2626  0.4609
  111MOL    H4335463   4.315   4.411   1.776  1.8007 -0.0465  0.2996
  111MOL    H4435464   4.448   4.264   1.903  1.3532 -1.3349 -0.1349
  111MOL    H4535465   4.676   4.209   2.017  1.6883  0.0187 -0.2476
  111MOL    H4635466   4.887   4.471   2.078  0.9005  1.4717 -2.5663
  111MOL    H4735467   4.883   4.293   2.092 -2.2775  0.0772 -1.3000
  111MOL    H4835468   4.818   4.597   1.887 -0.2966  0.0411  1.1090
  111MOL    H4935469   4.615   4.635   1.760 -1.1672 -0.7638 -0.3622
  111MOL    C5035470   5.009   4.360   1.941 -0.5087  0.5271 -0.7451
  111MOL    C5135471   5.143   4.374   2.016  0.3382  0.5293  0.9982
  111MOL    C5235472   5.216   4.498   2.009  0.5497  0.1275  0.9075
  111MOL    C5335473   5.334   4.514   2.087 -0.4983  0.1650  0.2602
  111MOL    C5435474   5.381   4.404   2.168  1.7428  0.0242  0.4929
  111MOL    C5535475   5.494   4.424   2.257 -0.3692 -0.9092  0.1276
  111MOL    C5635476   5.310   4.283   2.172 -0.0956  0.3870 -0.1010
  111MOL    C5735477   5.186   4.269   2.100  0.5696 -0.1139 -0.3492
  111MOL    H5835478   4.995   4.433   1.861 -0.3123  0.5948 -0.7170
  111MOL    H5935479   5.007   4.262   1.893  0.8537 -1.1208  2.4575
  111MOL    H6035480   5.182   4.583   1.953  2.1206  1.1894  1.5387
  111MOL    H6135481   5.401   4.599   2.086  1.0651 -1.0403 -0.0935
  111MOL    H6235482   5.536   4.324   2.264 -1.3983 -1.2193  2.5864
  111MOL    H6335483   5.567   4.485   2.205 -0.8206  0.1497  0.7082
  111MOL    H6435484   5.338   4.211   2.248 -1.1654 -1.1725 -1.1595
  111MOL    H6535485   5.137   4.173   2.109 -0.8447  0.6335  0.0760
  111MOL    C6635486   5.454   4.483   2.392  0.2859  0.2206 -0.5878
  111MOL    C6735487   5.575   4.488   2.489 -0.3941  0.0593 -0.1348
  111MOL    C6835488   5.593   4.380   2.577  0.5297 -0.2243  0.5222
  111MOL    C6935489   5.710   4.363   2.652  0.6806 -0.3486 -0.6540
  111MOL    C7035490   5.804   4.469   2.653  0.3230 -0.0931 -0.3652
  111MOL    C7135491   5.932   4.468   2.734  0.5154  0.0570  0.2966
  111MOL    C7235492   5.783   4.578   2.561  0.3512 -0.0601 -0.8417
  111MOL    C7335493   5.671   4.590   2.482 -0.0220 -0.4419 -0.2401
  111MOL    H7435494   5.369   4.424   2.428  0.5643  0.7683  1.0049
  111MOL    H7535495   5.418   4.583   2.368 -1.1061 -0.4762 -1.5081
  111MOL    H7635496   5.514   4.307   2.578  0.8433 -0.6356 -1.9122
  111MOL    H7735497   5.737   4.274   2.706 -1.6726 -0.8912 -0.2913
  111MOL    H7835498   5.893   4.444   2.833 -1.5894  0.6723 -0.3425
  111MOL    H7935499   5.984   4.562   2.755 -0.3888  1.0307 -1.6906
  111MOL    H8035500   5.868   4.645   2.558  0.3208  0.1087  1.2420
  111MOL    H8135501   5.656   4.675   2.418 -0.6608  0.8884  1.6382
  111MOL    C8235502   6.029   4.364   2.684 -0.1796  0.3936 -0.5070
  111MOL    C8335503   6.152   4.345   2.772  0.7833 -0.6524  0.3573
  111MOL    C8435504   6.165   4.228   2.851  0.1783 -0.2154 -0.6270
  111MOL    C8535505   6.291   4.193   2.907 -0.2431  1.2041  0.7652
  111MOL    C8635506   6.399   4.276   2.893 -0.5307  0.1232 -0.1995
  111MOL    C8735507   6.538   4.241   2.938 -0.0159  0.4663  0.0112
  111MOL    C8835508   6.380   4.405   2.823 -0.6007  0.6276  1.3241
  111MOL    C8935509   6.263   4.429   2.753  0.0332 -1.0826  1.0835
  111MOL    H9035510   6.071   4.391   2.588  2.4103 -1.4170  0.0930
  111MOL    H9135511   5.966   4.275   2.678  0.9365 -0.3615 -1.0254
  111MOL    H9235512   6.081   4.161   2.857 -3.0661  3.3713 -3.4244
  111MOL    H9335513   6.311   4.098   2.953  1.0624  0.2481 -1.6636
  111MOL    H9435514   6.523   4.215   3.043 -0.9103  0.6423 -0.0655
  111MOL    H9535515   6.601   4.329   2.949 -0.5289  0.5463  2.9045
  111MOL    H9635516   6.463   4.474   2.813 -2.4559  3.1591  2.8929
  111MOL    H9735517   6.252   4.523   2.700 -0.3522 -1.7209  0.0156
  111MOL    C9835518   6.610   4.135   2.852  0.5032 -0.6753 -0.4999
  111MOL    C9935519   6.760   4.120   2.883 -1.0195 -0.5638 -0.1290
  111MOL   C10035520   6.862   4.209   2.838  0.7593 -0.5258 -0.4377
  111MOL   C10135521   6.996   4.173   2.854 -0.0088  0.2383 -0.4361
  111MOL   C10235522   7.027   4.054   2.928  0.0780  0.2864 -0.3503
  111MOL   C10335523   7.172   4.030   2.956  0.2051  0.7235  0.5824
  111MOL   C10435524   6.930   3.965   2.973  0.3006  0.6948 -0.5737
  111MOL   C10535525   6.797   3.999   2.954 -0.0659 -0.3265 -0.2383
  111MOL   H10635526   6.598   4.154   2.746 -2.8418  0.3823 -0.0186
  111MOL   H10735527   6.559   4.040   2.867  0.0298 -0.6286 -1.7844
  111MOL   H10835528   6.824   4.301   2.797  0.0868  0.1830  1.7201
  111MOL   H10935529   7.061   4.256   2.832 -0.9178  0.7512 -1.2288
  111MOL   H11035530   7.192   3.923   2.954  0.3743  0.7620  0.1788
  111MOL   H11135531   7.240   4.081   2.888  0.2574 -0.7489 -0.4943
  111MOL   H11235532   6.954   3.876   3.029  0.1535  1.9869  1.6400
  111MOL   H11335533   6.721   3.933   2.993 -1.4412  0.5678 -1.3130
  111MOL   C11435534   7.212   4.072   3.098 -0.1289 -0.0898 -0.8833
  111MOL   C11535535   7.357   4.032   3.113  0.0580  0.1906  0.4785
  111MOL   C11635536   7.467   4.114   3.083 -0.3455 -0.3076 -0.6124
  111MOL   C11735537   7.598   4.064   3.101 -0.7236  0.4975 -0.0807
  111MOL   C11835538   7.622   3.935   3.143  0.0088 -0.6944 -0.7600
  111MOL   C11935539   7.766   3.882   3.160 -0.2985 -0.5355  0.0850
  111MOL   C12035540   7.514   3.849   3.178  0.1740  1.0994  0.2228
  111MOL   C12135541   7.381   3.902   3.168  0.3536  0.4263  0.1977
  111MOL   H12235542   7.151   4.026   3.176 -2.5365 -1.3771 -3.4087
  111MOL   H12335543   7.201   4.180   3.110  0.0521  0.4769 -4.9006
  111MOL   H12435544   7.446   4.214   3.050  3.8611  1.1095  0.6865
  111MOL   H12535545   7.689   4.116   3.073 -1.1308  1.1969 -0.1274
  111MOL   H12635546   7.761   3.777   3.131 -0.3779 -0.5285  0.0726
  111MOL   H12735547   7.837   3.935   3.096  0.9372  0.3472  2.1265
  111MOL   H12835548   7.516   3.754   3.230  1.8444 -0.2828 -2.2177
  111MOL   H12935549   7.298   3.844   3.204  0.6339  0.5816  1.1098
  111MOL   C13035550   7.817   3.902   3.306 -0.7683 -0.0872 -0.0233
  111MOL   C13135551   7.963   3.858   3.324  0.2565 -0.2862 -0.3266
  111MOL   C13235552   7.992   3.736   3.390  0.4196  0.1786  0.6292
  111MOL   C13335553   8.129   3.704   3.420  0.8627 -0.3942 -0.2743
  111MOL   C13435554   8.233   3.790   3.378 -0.0167  0.3218 -0.2146
  111MOL   C13535555   8.378   3.756   3.388 -0.3349  0.1998 -0.0922
  111MOL   C13635556   8.196   3.907   3.308 -0.3790  0.1848  0.0585
  111MOL   C13735557   8.062   3.948   3.284  0.5524  0.4954 -0.0776
  111MOL   H13835558   7.757   3.837   3.370  2.1906 -0.7852  2.1590
  111MOL   H13935559   7.800   4.002   3.347  1.2238  0.1323  0.3281
  111MOL   H14035560   7.914   3.667   3.418 -1.8157  2.1869 -0.3528
  111MOL   H14135561   8.148   3.612   3.473 -0.9572  0.2166  1.5066
  111MOL   H14235562   8.391   3.653   3.355  0.0985  0.9007 -2.1600
  111MOL   H14335563   8.444   3.801   3.313  0.9868 -1.9062 -0.2154
  111MOL   H14435564   8.277   3.965   3.267 -0.7578  0.4421 -0.3320
  111MOL   H14535565   8.048   4.042   3.234  0.2128  0.3446 -0.2673
  111MOL   C14635566   8.432   3.766   3.530 -0.0052  0.5378  0.1004
  111MOL   C14735567   8.578   3.718   3.534 -0.3727  0.3916 -0.1585
  111MOL   C14835568   8.624   3.588   3.556 -0.2005  0.2518  0.2573
  111MOL   C14935569   8.760   3.559   3.577 -0.2163  0.3338  0.4841
  111MOL   C15035570   8.852   3.662   3.562  0.3402 -0.6512  0.7181
  111MOL   C15135571   9.001   3.630   3.580 -0.6022  0.0518 -0.6285
  111MOL   C15235572   8.810   3.792   3.536 -0.5732 -0.2339 -0.3887
  111MOL   C15335573   8.675   3.820   3.528 -0.1950  0.0662 -0.1771
  111MOL   H15435574   8.384   3.683   3.582 -0.4364 -0.0101 -1.1519
  111MOL   H15535575   8.413   3.867   3.566 -1.9238  0.1722  0.1652
  111MOL   H15635576   8.547   3.513   3.572 -0.6568  1.0533  2.0449
  111MOL   H15735577   8.786   3.455   3.592  0.2818  0.4514  0.4448
  111MOL   H15835578   9.015   3.533   3.532  1.9766 -0.0894  0.3604
  111MOL   H15935579   9.054   3.706   3.522  0.1404  0.4184  0.5133
  111MOL   H16035580   8.881   3.873   3.541  0.5223 -1.2329  0.6576
  111MOL   H16135581   8.653   3.925   3.522  0.0542  0.1672  0.6768
  111MOL   C16235582   9.053   3.627   3.722 -0.3728  0.1525 -0.3472
  111MOL   C16335583   9.213   3.613   3.727  0.4609  0.0495 -0.4237
  111MOL   C16435584   9.300   3.717   3.715  0.1552  0.6315 -0.2297
  111MOL   C16535585   9.439   3.693   3.739 -0.5785 -0.4776 -0.0444
  111MOL   C16635586   9.482   3.560   3.762  0.3002 -0.4678  0.1481
  111MOL   C16735587   9.636   3.531   3.774  0.1300  0.2609 -0.0161
  111MOL   C16835588   9.395   3.455   3.773 -0.5319 -0.1920 -0.1171
  111MOL   C16935589   9.255   3.479   3.756 -0.4036  0.8288  0.1017
  111MOL   H17035590   9.008   3.548   3.781  1.4286 -1.2470 -0.7876
  111MOL   H17135591   9.024   3.722   3.767 -2.1326 -0.0395 -1.0152
  111MOL   H17235592   9.266   3.817   3.694 -1.3666 -0.1471 -1.5487
  111MOL   H17335593   9.510   3.771   3.716  1.0553 -1.8573  0.1955
  111MOL   H17435594   9.660   3.426   3.758 -2.4848 -0.5227  0.8729
  111MOL   H17535595   9.691   3.585   3.697  0.0546  0.1475 -0.1474
  111MOL   H17635596   9.429   3.354   3.791 -1.0398  0.0931  2.6005
  111MOL   H17735597   9.172   3.412   3.767 -0.2977  0.9827  2.1795
  111MOL   C17835598   9.694   3.567   3.914  0.8026  0.6704  0.4474
  111MOL   C17935599   9.848   3.541   3.924 -0.0767  0.2004 -0.1939
  111MOL   C18035600   9.939   3.645   3.899  0.6365 -0.3332  0.1623
  111MOL   C18135601  10.077   3.621   3.903 -0.0776  0.4536  0.8033
  111MOL   C18235602  10.127   3.492   3.928 -0.2895 -0.1477  0.1599
  111MOL   C18335603  10.275   3.467   3.921  0.4508 -0.1269  0.4876
  111MOL   C18435604  10.034   3.391   3.952 -0.3796 -0.1822  0.0538
  111MOL   C18535605   9.898   3.413   3.945  0.2724  0.1220  0.6641
  111MOL   H18635606   9.648   3.507   3.993 -0.8424  0.7115 -0.4608
  111MOL   H18735607   9.681   3.670   3.947 -0.3522 -0.2878  3.1573
  111MOL   H18835608   9.905   3.739   3.858 -1.2429 -1.6057 -1.2993
  111MOL   H18935609  10.144   3.696   3.864  1.2339 -1.3672 -0.5136
  111MOL   H19035610  10.276   3.364   3.885 -0.1559  0.5180 -1.4223
  111MOL   H19135611  10.316   3.532   3.844 -1.2230 -0.6504 -0.8718
  111MOL   H19235612  10.074   3.294   3.976 -1.5908 -0.8838 -0.6907
  111MOL   H19335613   9.831   3.328   3.950  1.3089 -0.8094 -0.7601
  111MOL   C19435614  10.351   3.505   4.048 -0.4329 -0.6806  0.0342
  111MOL   C19535615  10.291   3.451   4.172 -0.0870  0.2242 -0.5409
  111MOL   C19635616  10.228   3.534   4.265 -0.1432 -0.7149 -0.2157
  111MOL   C19735617  10.172   3.476   4.377  0.2796 -0.1931 -0.2609
  111MOL   C19835618  10.166   3.334   4.391 -0.2528  0.2394  0.4888
  111MOL   C19935619  10.091   3.270   4.507  0.3356 -1.0260  0.1614
  111MOL   C20035620  10.219   3.252   4.290  0.1032  0.3307  0.5496
  111MOL   C20135621  10.284   3.310   4.182  0.1479 -0.1598  0.8196
  111MOL   H20235622  10.350   3.613   4.063 -1.4904 -1.0346  2.8660
  111MOL   H20335623  10.455   3.471   4.048 -0.2615 -0.1564 -0.7047
  111MOL   H20435624  10.238   3.641   4.262  3.0986 -1.0274 -2.5057
  111MOL   H20535625  10.125   3.537   4.453 -1.0153 -0.3122 -0.9533
  111MOL   H20635626  10.156   3.229   4.585  1.7484  0.5174 -0.1761
  111MOL   H20735627  10.030   3.348   4.554  1.0239 -1.2070  1.3719
  111MOL   H20835628  10.223   3.144   4.300  3.1964  0.2389 -0.8241
  111MOL   H20935629  10.321   3.246   4.103  1.3059 -0.3624  1.5167
  111MOL   C21035630  10.008   3.154   4.476  0.2765  0.1857  1.2396
  111MOL   C21135631   9.906   3.176   4.364  0.0638 -0.0686 -0.1233
  111MOL   C21235632   9.793   3.265   4.378  1.0586 -0.4722 -0.2562
  111MOL   C21335633   9.691   3.275   4.278 -0.7096  0.0744  0.0838
  111MOL   C21435634   9.707   3.201   4.159  0.3331 -0.6491  0.2744
  111MOL   C21535635   9.598   3.201   4.050 -0.7899  0.6667 -0.1461
  111MOL   C21635636   9.820   3.117   4.141  0.2360 -0.0217  0.0777
  111MOL   C21735637   9.915   3.107   4.238 -0.0767 -0.2384 -0.1820
  111MOL   H21835638   9.953   3.125   4.566 -0.6083 -0.1847  0.5876
  111MOL   H21935639  10.068   3.069   4.444 -0.7014  0.2651 -0.9152
  111MOL   H22035640   9.767   3.306   4.474  1.7984  0.9959 -0.6735
  111MOL   H22135641   9.601   3.329   4.303 -0.9183 -0.3195  0.1947
  111MOL   H22235642   9.534   3.289   4.061  1.1604  1.8359  2.3803
  111MOL   H22335643   9.650   3.195   3.955 -0.2227 -0.9639  0.2476
  111MOL   H22435644   9.825   3.070   4.044 -2.6677 -2.3155  0.9609
  111MOL   H22535645   9.999   3.042   4.219  0.2545  0.5020 -1.2784
  111MOL   C22635646   9.504   3.078   4.062 -0.3994  0.4031  0.5469
  111MOL   C22735647   9.362   3.105   4.007  0.9739  0.0366 -0.3233
  111MOL   C22835648   9.284   3.210   4.049  0.3698  0.3847 -0.5834
  111MOL   C22935649   9.149   3.231   4.004 -0.0158 -0.1602  0.4134
  111MOL   C23035650   9.090   3.136   3.924  0.2273  0.3315 -0.3236
  111MOL   C23135651   8.943   3.138   3.880 -0.7498  1.4665  0.4750
  111MOL   C23235652   9.162   3.019   3.894 -0.4388  0.0854  0.0191
  111MOL   C23335653   9.296   3.001   3.932  0.0756 -0.4945  0.7441
  111MOL   H23435654   9.495   3.057   4.168 -0.6120 -1.1376  0.2422
  111MOL   H23535655   9.548   2.989   4.016  0.0521  0.3969  0.9808
  111MOL   H23635656   9.327   3.286   4.113  0.2528  0.1402 -0.2125
  111MOL   H23735657   9.099   3.320   4.041  1.0160  0.6420 -0.0870
  111MOL   H23835658   8.918   3.061   3.807  0.9205 -0.4755  1.8895
  111MOL   H23935659   8.900   3.101   3.973  1.5318  0.9439  1.3744
  111MOL   H24035660   9.116   2.943   3.834  0.5166  0.6724 -1.4943
  111MOL   H24135661   9.352   2.910   3.917  0.5974  0.0570 -0.7700
  111MOL   C24235662   8.903   3.278   3.819  0.2042  0.2492 -0.4631
  111MOL   C24335663   8.752   3.284   3.796 -0.5865 -0.8204  0.1432
  111MOL   C24435664   8.672   3.366   3.876  0.4732  0.0673 -0.0522
  111MOL   C24535665   8.529   3.371   3.855  0.4346  0.2902 -0.7617
  111MOL   C24635666   8.471   3.296   3.749 -0.4410 -0.0468  0.2776
  111MOL   C24735667   8.319   3.297   3.731  0.5894 -0.3645 -0.1766
  111MOL   C24835668   8.551   3.221   3.664  0.0701  0.1651 -0.2126
  111MOL   C24935669   8.693   3.224   3.681 -0.0705 -0.1638 -0.1951
  111MOL   H25035670   8.938   3.360   3.882 -0.8344  2.2836 -2.4605
  111MOL   H25135671   8.955   3.301   3.726 -0.1679  0.3307 -0.6525
  111MOL   H25235672   8.711   3.419   3.962 -0.1682 -0.6691  0.7047
  111MOL   H25335673   8.465   3.431   3.919 -1.7516 -1.8821 -0.8314
  111MOL   H25435674   8.292   3.205   3.679  2.4328  0.6046 -2.9370
  111MOL   H25535675   8.276   3.290   3.831  1.8056  2.1668  0.5591
  111MOL   H25635676   8.521   3.164   3.577  1.0882 -0.9515  0.1574
  111MOL   H25735677   8.761   3.170   3.617  1.0350  0.7130  0.2124
  111MOL   C25835678   8.263   3.413   3.653  0.1343 -0.2292 -0.1668
  111MOL   C25935679   8.112   3.414   3.618 -0.2255  0.2866  0.3986
  111MOL   C26035680   8.018   3.461   3.709  0.0994 -0.4080  0.2314
  111MOL   C26135681   7.883   3.461   3.684  0.4919  0.3956  0.7157
  111MOL   C26235682   7.836   3.420   3.555  0.1272  0.0820  1.0668
  111MOL   C26335683   7.688   3.428   3.528 -0.0403 -0.3759 -0.5140
  111MOL   C26435684   7.928   3.373   3.456  0.3041 -0.1927  0.3394
  111MOL   C26535685   8.066   3.372   3.494  0.0210 -0.4714  0.5061
  111MOL   H26635686   8.319   3.432   3.562 -0.2744  2.8210  0.1513
  111MOL   H26735687   8.284   3.509   3.702 -0.4187  0.4607 -1.2578
  111MOL   H26835688   8.049   3.490   3.808 -1.1806 -1.9482  1.1176
  111MOL   H26935689   7.825   3.497   3.768 -1.1853  0.7948 -0.5708
  111MOL   H27035690   7.665   3.360   3.447 -0.5564  0.6929 -1.2722
  111MOL   H27135691   7.625   3.389   3.608 -0.3846  0.2044 -0.5058
  111MOL   H27235692   7.891   3.333   3.363 -0.5708 -3.3556  1.9597
  111MOL   H27335693   8.133   3.336   3.417 -0.4327 -1.8904  0.7655
  111MOL   C27435694   7.647   3.561   3.470  0.0034 -0.9945 -0.8773
  111MOL   C27535695   7.503   3.555   3.423 -0.1103  0.7817 -0.1171
  111MOL   C27635696   7.471   3.494   3.297  0.1201 -0.0616 -0.1397
  111MOL   C27735697   7.340   3.499   3.244 -0.1180 -0.1007 -0.2284
  111MOL   C27835698   7.240   3.546   3.323  0.2048 -0.3510  0.1808
  111MOL   C27935699   7.092   3.542   3.279  0.2174  0.2284 -0.2392
  111MOL   C28035700   7.269   3.605   3.449  0.5296  0.5234  0.0764
  111MOL   C28135701   7.400   3.610   3.497 -0.1033  0.3546  1.0839
  111MOL   H28235702   7.666   3.645   3.536  2.2576 -1.9366 -0.2686
  111MOL   H28335703   7.711   3.585   3.385 -0.1509  2.5162 -0.0590
  111MOL   H28435704   7.546   3.442   3.239  1.5401 -1.8538  3.1251
  111MOL   H28535705   7.310   3.458   3.148  1.1777  0.7059 -0.9890
  111MOL   H28635706   7.085   3.491   3.183  0.0762  0.2409 -0.2343
  111MOL   H28735707   7.034   3.479   3.346  3.7008 -1.5427  1.2408
  111MOL   H28835708   7.195   3.647   3.516 -2.5495 -3.1542 -0.7898
  111MOL   H28935709   7.414   3.661   3.591  1.7955 -0.5549  1.3045
  111MOL   C29035710   7.034   3.684   3.248  1.2270  1.0791 -0.2511
  111MOL   C29135711   6.883   3.666   3.214 -0.1648 -0.0994 -0.2753
  111MOL   C29235712   6.776   3.696   3.304  0.8746 -0.3251 -0.2404
  111MOL   C29335713   6.647   3.699   3.259 -0.7269  0.6783  0.0927
  111MOL   C29435714   6.619   3.667   3.122 -0.4938  0.0551 -0.0078
  111MOL   C29535715   6.472   3.661   3.081 -0.6885  0.1593  0.3228
  111MOL   C29635716   6.726   3.632   3.032 -0.7822  0.5842  0.5290
  111MOL   C29735717   6.856   3.634   3.085 -0.8317  1.0889  0.5850
  111MOL   H29835718   7.089   3.730   3.167  0.9395  1.9309  0.0291
  111MOL   H29935719   7.042   3.754   3.331 -1.7320  1.6746 -0.3883
  111MOL   H30035720   6.799   3.714   3.408 -0.6248 -1.7533  0.3589
  111MOL   H30135721   6.563   3.729   3.319 -0.0638 -1.5232  2.1960
  111MOL   H30235722   6.467   3.594   2.996 -0.7812 -0.4038  0.7707
  111MOL   H30335723   6.417   3.618   3.165 -0.0311 -2.4913 -0.5867
  111MOL   H30435724   6.717   3.595   2.931  1.2585  0.3854  0.3904
  111MOL   H30535725   6.935   3.607   3.016 -2.5828 -0.4797 -0.8711
  111MOL   C30635726   6.424   3.807   3.044 -0.1009  0.3797  0.5341
  111MOL   C30735727   6.278   3.808   3.017  0.0164 -0.1620 -0.2589
  111MOL   C30835728   6.239   3.771   2.888  0.1770  0.1915  0.0039
  111MOL   C30935729   6.102   3.780   2.845  0.2279  0.6416 -0.3079
  111MOL   C31035730   6.007   3.813   2.938 -0.4044 -0.2919 -0.7027
  111MOL   C31135731   5.869   3.852   2.897  0.9612  0.6410  0.0949
  111MOL   C31235732   6.039   3.845   3.072 -0.4312 -0.5522  0.5613
  111MOL   C31335733   6.179   3.849   3.110  0.0502 -0.3153 -0.0841
  111MOL   H31435734   6.483   3.838   2.958 -2.0135  0.4683 -0.7843
  111MOL   H31535735   6.429   3.870   3.133  1.6368  1.4791 -0.3256
  111MOL   H31635736   6.314   3.746   2.815  1.0031 -2.6870  1.7583
  111MOL   H31735737   6.064   3.765   2.745 -2.6232 -0.4859  0.8682
  111MOL   H31835738   5.795   3.869   2.976  1.6411  0.1760  0.8460
  111MOL   H31935739   5.867   3.940   2.833  0.7346  0.9947  0.5848
  111MOL   H32035740   5.959   3.874   3.139 -0.9556  1.3602 -0.8667
  111MOL   H32135741   6.211   3.896   3.202  0.0506  0.6787 -0.5916
  111MOL   H32235742   5.839   3.762   2.844  0.0055  0.5675  0.7402
  112MOL     C135743   5.540   4.190   7.451 -0.0899  0.4476 -0.5234
  112MOL     C235744   5.567   4.291   7.560 -0.4572  0.0452  0.7524
  112MOL     C335745   5.471   4.398   7.567  0.2018 -0.6498  0.0301
  112MOL     C435746   5.496   4.510   7.653 -0.8359 -0.3196  0.1381
  112MOL     C535747   5.608   4.504   7.737  0.4389  0.2188 -0.1059
  112MOL     C635748   5.636   4.620   7.829 -0.5287  0.3272  0.4569
  112MOL     C735749   5.683   4.387   7.751 -0.9841 -0.5807 -0.3744
  112MOL     C835750   5.679   4.293   7.647  0.1872 -0.0407  0.8599
  112MOL     H935751   5.481   4.109   7.494  0.7619 -0.5751 -1.2623
  112MOL    H1035752   5.486   4.232   7.367  0.2893 -1.2425 -1.6484
  112MOL    H1135753   5.390   4.408   7.495 -0.0159  1.0694  0.4949
  112MOL    H1235754   5.437   4.600   7.639 -0.9460 -0.5482 -0.8816
  112MOL    H1335755   5.543   4.652   7.877 -1.8369 -1.0534 -1.0731
  112MOL    H1435756   5.696   4.584   7.912  2.1340  1.9615 -0.6962
  112MOL    H1535757   5.762   4.387   7.824 -0.1837  1.9463 -1.1642
  112MOL    H1635758   5.747   4.209   7.639 -1.8131 -1.5613 -0.9468
  112MOL    H1735759   5.634   4.152   7.410  0.4749 -0.4666  1.5331
  112MOL    C1835760   5.710   4.736   7.759  0.2625 -0.2971 -0.1743
  112MOL    C1935761   5.836   4.698   7.683 -0.5036 -0.0775  0.0840
  112MOL    C2035762   5.827   4.614   7.567 -0.7081 -0.0097  0.4298
  112MOL    C2135763   5.949   4.564   7.503 -0.2794  0.1839  0.3155
  112MOL    C2235764   6.076   4.603   7.556 -0.3297  0.4883  0.5634
  112MOL    C2335765   6.204   4.549   7.499 -0.4600  0.5843  0.4527
  112MOL    C2435766   6.077   4.694   7.666 -0.0858 -0.4337  0.3033
  112MOL    C2535767   5.963   4.742   7.734  0.5854 -0.1844  0.5790
  112MOL    H2635768   5.651   4.786   7.682  2.0091  0.7649 -0.8432
  112MOL    H2735769   5.744   4.813   7.828 -1.1708  1.9069 -1.8646
  112MOL    H2835770   5.730   4.592   7.525 -0.4601  2.3630 -1.5180
  112MOL    H2935771   5.941   4.495   7.421 -0.7530 -0.1622  0.6507
  112MOL    H3035772   6.206   4.512   7.397 -1.7769 -0.9739  0.9647
  112MOL    H3135773   6.231   4.463   7.561  1.4589  0.7584 -0.0973
  112MOL    H3235774   6.168   4.720   7.717 -0.0804 -0.5694  0.3636
  112MOL    H3335775   5.964   4.816   7.812 -1.2917 -0.7603  1.1768
  112MOL    C3435776   6.327   4.649   7.500 -0.6456 -0.9988 -0.4344
  112MOL    C3535777   6.462   4.581   7.471  0.4898 -0.0078  0.2641
  112MOL    C3635778   6.556   4.548   7.570  0.7779 -0.8825 -0.4642
  112MOL    C3735779   6.690   4.504   7.550  0.2699  0.3703 -0.1854
  112MOL    C3835780   6.726   4.483   7.411 -0.8877  0.1066 -0.3216
  112MOL    C3935781   6.863   4.430   7.382  0.5849 -0.6289  0.3530
  112MOL    C4035782   6.628   4.499   7.312 -0.3770 -1.1889 -0.5685
  112MOL    C4135783   6.504   4.555   7.338 -0.1195 -0.1669 -1.0689
  112MOL    H4235784   6.348   4.690   7.599 -0.4669  0.2789 -0.9898
  112MOL    H4335785   6.301   4.725   7.427 -0.5819 -0.4169  0.1445
  112MOL    H4435786   6.522   4.556   7.672  0.7272  0.7052 -0.5879
  112MOL    H4535787   6.754   4.484   7.635 -2.2547 -1.4556  1.3817
  112MOL    H4635788   6.913   4.445   7.478 -0.0416  0.8240  0.4772
  112MOL    H4735789   6.847   4.326   7.354  0.0442 -0.3838 -0.2534
  112MOL    H4835790   6.660   4.479   7.211  0.1969 -2.8626 -0.0664
  112MOL    H4935791   6.446   4.585   7.252  1.0700 -0.8225 -2.1017
  112MOL    C5035792   6.947   4.496   7.273 -0.9121  0.1901  0.5495
  112MOL    C5135793   7.085   4.443   7.259  0.0955 -0.3666 -0.2764
  112MOL    C5235794   7.105   4.351   7.161  0.4921  0.9745 -0.6413
  112MOL    C5335795   7.231   4.289   7.145  0.2205  0.6784 -0.6228
  112MOL    C5435796   7.330   4.307   7.246 -0.0053  0.3937 -0.0666
  112MOL    C5535797   7.467   4.260   7.225  0.3877 -0.0695 -0.2571
  112MOL    C5635798   7.303   4.392   7.358 -0.4456 -0.3429 -0.0216
  112MOL    C5735799   7.182   4.457   7.359  0.1929  0.4162  0.3066
  112MOL    H5835800   6.960   4.603   7.289 -0.7248  0.4262 -1.1624
  112MOL    H5935801   6.891   4.498   7.180 -0.4043 -0.3304  0.2299
  112MOL    H6035802   7.022   4.337   7.094 -1.0087 -3.2898  1.9195
  112MOL    H6135803   7.246   4.229   7.057  0.1589 -1.8563  1.0689
  112MOL    H6235804   7.531   4.266   7.313 -0.3706  0.3292  0.2665
  112MOL    H6335805   7.462   4.157   7.189 -0.7708  0.6554 -2.2161
  112MOL    H6435806   7.379   4.408   7.433  0.2362 -1.8416 -0.3766
  112MOL    H6535807   7.153   4.516   7.445  2.3509  1.2279  0.5238
  112MOL    C6635808   7.536   4.338   7.119 -1.0053  0.0202  0.2937
  112MOL    C6735809   7.678   4.281   7.095  0.6639  0.0423  0.6928
  112MOL    C6835810   7.696   4.182   6.998  0.1506 -0.2894 -0.0988
  112MOL    C6935811   7.822   4.129   6.986  0.0685  0.3324 -0.0182
  112MOL    C7035812   7.934   4.166   7.066  0.3086  0.3016  0.1874
  112MOL    C7135813   8.074   4.097   7.054  0.1047  0.6347  0.1526
  112MOL    C7235814   7.912   4.268   7.160 -0.1678  1.2130  0.1947
  112MOL    C7335815   7.786   4.328   7.182 -0.3170  0.3043  0.1750
  112MOL    H7435816   7.544   4.443   7.149  0.7521 -0.3830  1.3511
  112MOL    H7535817   7.475   4.346   7.029 -0.1956  2.7836 -0.0607
  112MOL    H7635818   7.620   4.146   6.930 -0.6446 -0.7462  1.0006
  112MOL    H7735819   7.842   4.048   6.917  0.3514 -0.1649  0.6368
  112MOL    H7835820   8.068   3.999   7.008 -1.2570  0.5926  0.3937
  112MOL    H7935821   8.098   4.074   7.158 -2.8630 -0.4702  0.6550
  112MOL    H8035822   7.989   4.277   7.235 -0.1928 -2.0162  0.6897
  112MOL    H8135823   7.770   4.402   7.259  2.2587 -0.0255  1.0778
  112MOL    C8235824   8.170   4.184   6.973  0.1516 -0.1019 -0.1880
  112MOL    C8335825   8.303   4.113   6.967 -0.8720  0.0815 -0.2563
  112MOL    C8435826   8.346   4.047   6.852 -1.0536 -0.5809  0.5824
  112MOL    C8535827   8.475   3.992   6.844 -0.0398  0.6439  0.0199
  112MOL    C8635828   8.568   4.007   6.951 -0.9568  0.4850 -0.0339
  112MOL    C8735829   8.709   3.953   6.941  0.7645 -0.3721  0.4665
  112MOL    C8835830   8.532   4.074   7.068  0.2712 -0.3769  0.2092
  112MOL    C8935831   8.395   4.125   7.075  1.0101 -1.0262 -0.1504
  112MOL    H9035832   8.190   4.277   7.026  0.9798  0.3841 -1.3459
  112MOL    H9135833   8.132   4.195   6.872 -0.1439 -0.3620 -0.1050
  112MOL    H9235834   8.285   4.049   6.764  0.7732  2.7484 -0.6874
  112MOL    H9335835   8.519   3.950   6.755  1.1553  1.3937  0.2399
  112MOL    H9435836   8.704   3.852   6.902 -1.0626  0.9657 -2.9289
  112MOL    H9535837   8.745   3.946   7.044 -0.7927  2.5097  1.2676
  112MOL    H9635838   8.602   4.109   7.142 -3.1855  3.3555  1.9135
  112MOL    H9735839   8.355   4.179   7.160  2.8830 -0.3156  0.3024
  112MOL    C9835840   8.807   4.043   6.864 -0.0583  0.0545  0.4099
  112MOL    C9935841   8.941   3.967   6.853 -0.6607 -0.9545 -0.2097
  112MOL   C10035842   9.033   3.974   6.957 -0.7357 -0.1521 -0.1138
  112MOL   C10135843   9.160   3.913   6.959 -0.0129  0.0575 -1.5370
  112MOL   C10235844   9.195   3.833   6.846  0.1993  0.1242 -0.7912
  112MOL   C10335845   9.329   3.760   6.846  0.5155 -0.1075 -0.0747
  112MOL   C10435846   9.111   3.824   6.734 -0.5341 -0.5972  0.6120
  112MOL   C10535847   8.985   3.895   6.739 -0.4971  0.5743 -0.7156
  112MOL   H10635848   8.810   4.137   6.919  1.5957  0.0293  0.3764
  112MOL   H10735849   8.763   4.064   6.766 -2.0264 -0.7530  1.0790
  112MOL   H10835850   9.006   4.017   7.052  2.9660 -1.2976  1.5810
  112MOL   H10935851   9.227   3.926   7.042 -1.1496 -2.5431 -0.1515
  112MOL   H11035852   9.380   3.748   6.942 -0.1388 -0.4498  0.2321
  112MOL   H11135853   9.334   3.665   6.793 -1.1004 -0.7559  0.9011
  112MOL   H11235854   9.143   3.777   6.642  2.8434  1.4902  0.6139
  112MOL   H11335855   8.924   3.883   6.651 -2.7940 -0.9726  1.0283
  112MOL   C11435856   9.436   3.839   6.769 -0.3666 -0.3061 -0.0618
  112MOL   C11535857   9.569   3.766   6.758  0.2313  1.2413  0.6123
  112MOL   C11635858   9.658   3.778   6.865  0.2009  0.5917  0.1931
  112MOL   C11735859   9.786   3.720   6.852  0.0687 -0.3717 -0.5922
  112MOL   C11835860   9.826   3.665   6.727 -0.6548 -0.3385  0.4491
  112MOL   C11935861   9.960   3.602   6.713 -0.5948 -0.5936 -0.1168
  112MOL   C12035862   9.732   3.663   6.623  0.2468 -0.0124  0.7322
  112MOL   C12135863   9.605   3.708   6.636  0.7465 -1.1256  0.6326
  112MOL   H12235864   9.439   3.941   6.804 -1.1542  0.1181 -1.1914
  112MOL   H12335865   9.400   3.862   6.668 -0.4391 -2.0528 -0.4543
  112MOL   H12435866   9.628   3.809   6.965 -0.5314  4.0849 -1.0259
  112MOL   H12535867   9.855   3.723   6.935  1.3924  0.6212 -1.7077
  112MOL   H12635868  10.003   3.600   6.813  0.2826  1.5617 -0.4348
  112MOL   H12735869   9.947   3.495   6.694  0.0897 -0.6802 -0.1053
  112MOL   H12835870   9.755   3.619   6.527  3.0893  1.6133  0.6246
  112MOL   H12935871   9.537   3.699   6.553  0.7879  0.4445  0.4252
  112MOL   C13035872  10.049   3.663   6.603 -0.6271  0.3804 -0.4733
  112MOL   C13135873  10.175   3.581   6.564 -0.0137  0.2635 -0.6625
  112MOL   C13235874  10.300   3.620   6.607 -0.3767 -0.2638 -0.5679
  112MOL   C13335875  10.416   3.568   6.543 -0.3546 -0.5092 -0.0083
  112MOL   C13435876  10.399   3.477   6.437 -0.2901  1.0847 -0.0032
  112MOL   C13535877  10.524   3.421   6.364  0.5572 -0.3132  0.2362
  112MOL   C13635878  10.267   3.431   6.404  0.7827 -0.9898 -0.0233
  112MOL   C13735879  10.155   3.479   6.471  0.6113  0.2686 -0.3518
  112MOL   H13835880  10.084   3.760   6.639  0.3980 -0.2290  0.2187
  112MOL   H13935881   9.990   3.673   6.512 -1.8213 -0.4145  0.2050
  112MOL   H14035882  10.304   3.699   6.681 -2.8413 -1.6666  1.1179
  112MOL   H14135883  10.517   3.582   6.577  0.2540  1.0156 -2.3515
  112MOL   H14235884  10.602   3.493   6.389  3.7408 -3.0067 -1.5174
  112MOL   H14335885  10.558   3.334   6.422  0.6496 -1.6971 -1.8218
  112MOL   H14435886  10.243   3.364   6.323 -0.2374  0.8649 -1.2665
  112MOL   H14535887  10.055   3.454   6.438  1.0428 -1.1803 -0.5639
  112MOL   C14635888  10.506   3.389   6.214  0.1824  0.2627 -0.5274
  112MOL   C14735889  10.623   3.320   6.145 -0.0272 -0.5600  0.0500
  112MOL   C14835890  10.657   3.185   6.175 -0.1565  0.2816  0.2487
  112MOL   C14935891  10.769   3.129   6.114 -0.2184 -0.4380  0.8184
  112MOL   C15035892  10.840   3.201   6.011  0.9440  0.2425  0.6270
  112MOL   C15135893  10.954   3.140   5.933  0.5117  0.8090  0.3995
  112MOL   C15235894  10.800   3.333   5.982 -0.5734  0.4689 -0.0270
  112MOL   C15335895  10.693   3.389   6.045  0.5361 -0.4970  1.3061
  112MOL   H15435896  10.480   3.481   6.161  3.0398  0.0205 -2.5200
  112MOL   H15535897  10.429   3.314   6.195 -0.7885  1.2876 -0.6188
  112MOL   H15635898  10.602   3.136   6.253 -1.2211  1.3638  0.1996
  112MOL   H15735899  10.804   3.032   6.146  3.3184  1.1221  1.9366
  112MOL   H15835900  11.012   3.222   5.892 -1.0313  2.7962  2.0798
  112MOL   H15935901  11.019   3.093   6.008  3.0677  0.4786 -1.9498
  112MOL   H16035902  10.842   3.390   5.900  0.1057  0.3959  0.2600
  112MOL   H16135903  10.674   3.492   6.021  0.3383 -0.9233 -0.4438
  112MOL   C16235904  10.913   3.044   5.828  0.0806 -0.7956 -0.2522
  112MOL   C16335905  11.035   2.989   5.758 -0.2465 -0.5638  0.4954
  112MOL   C16435906  11.113   3.073   5.667 -0.4579 -0.0987 -0.4044
  112MOL   C16535907  11.219   3.010   5.602 -0.2182  0.1437 -0.3477
  112MOL   C16635908  11.259   2.875   5.626  0.2121  0.1128  0.0880
  112MOL   C16735909  11.392   2.830   5.572  0.2595 -0.1559  0.2845
  112MOL   C16835910  11.174   2.797   5.708 -0.4375 -0.4182 -0.4979
  112MOL   C16935911  11.065   2.858   5.778 -0.1271 -0.2374 -0.5989
  112MOL   H17035912  10.861   3.094   5.746  0.2726 -0.0970  0.0494
  112MOL   H17135913  10.852   2.964   5.870  0.5786 -1.1075 -0.1232
  112MOL   H17235914  11.084   3.176   5.655  1.9461  0.4495 -1.8644
  112MOL   H17335915  11.278   3.076   5.540 -2.0467  0.9977 -1.2121
  112MOL   H17435916  11.397   2.868   5.469  1.7514  1.5405  0.9514
  112MOL   H17535917  11.470   2.876   5.633  0.6201 -0.6913  0.2344
  112MOL   H17635918  11.199   2.692   5.719 -2.5622 -0.6679  2.8135
  112MOL   H17735919  10.994   2.805   5.840  1.3593 -2.5555 -0.7987
  112MOL   C17835920  11.407   2.682   5.565 -0.0158  0.0540 -0.5817
  112MOL   C17935921  11.522   2.629   5.482 -0.4708  0.2808  0.5246
  112MOL   C18035922  11.500   2.514   5.404 -0.7825  0.7680  0.8161
  112MOL   C18135923  11.605   2.452   5.331  0.9061 -0.5951  0.1764
  112MOL   C18235924  11.731   2.515   5.326 -0.2431  0.1910 -0.2821
  112MOL   C18335925  11.848   2.466   5.240  0.2384  0.2057 -0.1713
  112MOL   C18435926  11.752   2.634   5.402 -0.0848  0.3154  0.2876
  112MOL   C18535927  11.650   2.685   5.485 -0.4285 -0.4019 -0.0601
  112MOL   H18635928  11.315   2.635   5.530 -0.3913  0.9861 -0.8380
  112MOL   H18735929  11.414   2.654   5.670  1.1454 -0.8851 -0.8913
  112MOL   H18835930  11.398   2.480   5.393 -0.3422 -0.3348  0.0741
  112MOL   H18935931  11.582   2.364   5.273  1.0643 -0.8744  0.5320
  112MOL   H19035932  11.950   2.485   5.274 -0.3282  0.7705  1.2175
  112MOL   H19135933  11.840   2.357   5.238  0.1271  0.2319 -1.3624
  112MOL   H19235934  11.847   2.685   5.389 -0.3577  0.4195 -1.4609
  112MOL   H19335935  11.671   2.774   5.543 -0.4666  0.9402 -2.0567
  112MOL   C19435936  11.826   2.525   5.101  0.0614  0.3863 -0.3482
  112MOL   C19535937  11.918   2.466   4.997  0.1009 -0.5850  0.1204
  112MOL   C19635938  12.056   2.467   5.012 -0.0445 -0.7118 -0.1345
  112MOL   C19735939  12.137   2.418   4.906  0.4431  0.3351 -0.3387
  112MOL   C19835940  12.081   2.364   4.784 -0.3051 -0.3816 -0.1523
  112MOL   C19935941  12.176   2.306   4.675  0.5029 -0.2710  0.1604
  112MOL   C20035942  11.941   2.374   4.772 -0.1927 -0.2742  0.2725
  112MOL   C20135943  11.862   2.421   4.874  0.6388 -0.4966 -0.1820
  112MOL   H20235944  11.847   2.632   5.100  1.0689  0.2095  0.4739
  112MOL   H20335945  11.724   2.503   5.070 -0.1390  1.4402 -0.4792
  112MOL   H20435946  12.103   2.503   5.102 -1.3654 -1.9341  1.0586
  112MOL   H20535947  12.245   2.412   4.910  0.3191 -2.9527 -0.5275
  112MOL   H20635948  12.253   2.238   4.711  0.6874  1.1272  2.5351
  112MOL   H20735949  12.106   2.257   4.608 -0.9761  0.7512  0.9419
  112MOL   H20835950  11.888   2.337   4.686 -0.4419 -1.4117  0.9152
  112MOL   H20935951  11.755   2.427   4.857  0.9336  2.5350 -1.2951
  112MOL   C21035952  12.249   2.425   4.600  0.0431 -0.6732  0.7101
  112MOL   C21135953  12.377   2.380   4.523  0.4294 -0.2699 -0.1826
  112MOL   C21235954  12.383   2.266   4.439  0.4182 -0.0434 -0.9315
  112MOL   C21335955  12.506   2.220   4.391 -0.3455  0.6633  0.6322
  112MOL   C21435956  12.625   2.288   4.416  0.8759 -0.4089 -0.2427
  112MOL   C21535957  12.760   2.230   4.357 -0.4187  0.2524 -0.4714
  112MOL   C21635958  12.617   2.409   4.488 -0.1800 -0.5254 -0.1301
  112MOL   C21735959  12.497   2.453   4.546 -0.6362  0.3734 -0.1494
  112MOL   H21835960  12.284   2.482   4.687  1.0657  0.9952 -0.7639
  112MOL   H21935961  12.179   2.495   4.553  1.2353 -0.4812 -0.7988
  112MOL   H22035962  12.293   2.209   4.421 -0.0993  0.3867  0.2220
  112MOL   H22135963  12.506   2.127   4.336  1.1802  0.8064  0.3852
  112MOL   H22235964  12.745   2.162   4.274 -2.3409  0.9590 -0.7092
  112MOL   H22335965  12.820   2.308   4.310  0.1305  0.3669  0.4053
  112MOL   H22435966  12.699   2.478   4.501 -1.2071  0.8320 -0.7205
  112MOL   H22535967  12.495   2.545   4.603  0.7978 -0.3873  1.1717
  112MOL   C22635968  12.853   2.169   4.470 -0.5564  0.5949 -0.2904
  112MOL   C22735969  12.982   2.102   4.430 -0.2534  0.1630 -0.6372
  112MOL   C22835970  12.986   1.969   4.392 -0.3847  0.3362 -0.5266
  112MOL   C22935971  13.111   1.909   4.355  0.4153  0.6718 -0.3930
  112MOL   C23035972  13.229   1.984   4.353 -0.5750 -0.1277  0.4593
  112MOL   C23135973  13.355   1.932   4.294 -0.8463  0.6417  0.2848
  112MOL   C23235974  13.232   2.114   4.411 -0.3609  0.7943  0.1820
  112MOL   C23335975  13.108   2.166   4.453 -0.4235  0.0921  0.4414
  112MOL   H23435976  12.800   2.096   4.530 -0.8808  0.0013 -1.2978
  112MOL   H23535977  12.888   2.253   4.531 -1.0763  0.3150  0.4016
  112MOL   H23635978  12.901   1.902   4.387 -0.1940 -0.0966  1.5906
  112MOL   H23735979  13.108   1.806   4.324  3.5087  0.2512  0.5485
  112MOL   H23835980  13.333   1.841   4.238 -1.4237  0.6209  0.5486
  112MOL   H23935981  13.400   2.012   4.235 -2.0754  0.3450 -1.0834
  112MOL   H24035982  13.323   2.171   4.404  0.0596 -0.1346 -2.1766
  112MOL   H24135983  13.102   2.265   4.497 -3.4841 -0.0879  0.5524
  112MOL   C24235984  13.464   1.899   4.406  0.5679 -0.2950  0.2288
  112MOL   C24335985  13.597   1.845   4.350 -0.3309  0.7531 -0.2757
  112MOL   C24435986  13.709   1.925   4.352 -0.1113  0.1701 -0.3323
  112MOL   C24535987  13.830   1.883   4.298  0.8966 -0.3116  0.1919
  112MOL   C24635988  13.847   1.755   4.241  0.2219 -0.3505 -0.4388
  112MOL   C24735989  13.984   1.709   4.190  0.2567 -0.0909  0.5143
  112MOL   C24835990  13.730   1.673   4.237 -0.1887  0.0399  0.3652
  112MOL   C24935991  13.611   1.710   4.294  0.5940 -0.5067 -0.0880
  112MOL   H25035992  13.486   1.990   4.461 -2.1742  0.1382  0.6940
  112MOL   H25135993  13.420   1.817   4.464  0.0210 -0.2300 -0.0864
  112MOL   H25235994  13.699   2.023   4.397  0.7762  0.0172  0.1979
  112MOL   H25335995  13.909   1.956   4.290  1.3414 -0.8514 -0.3776
  112MOL   H25435996  13.967   1.639   4.108  0.7728 -0.3522  0.6311
  112MOL   H25535997  14.036   1.796   4.150 -0.2472  0.4484  1.0195
  112MOL   H25635998  13.748   1.572   4.202  2.4288  1.2214 -1.9031
  112MOL   H25735999  13.527   1.642   4.297 -1.5496  2.1241  1.9404
  112MOL   C25836000  14.067   1.650   4.302 -0.2529 -0.0212 -0.2207
  112MOL   C25936001  14.209   1.612   4.262  0.0772  0.6871  0.2816
  112MOL   C26036002  14.306   1.709   4.234 -0.8089 -0.0628 -0.1036
  112MOL   C26136003  14.437   1.666   4.205  0.6074 -0.6196  0.0532
  112MOL   C26236004  14.467   1.529   4.198 -0.8487 -0.5615  0.8299
  112MOL   C26336005  14.608   1.481   4.159  0.0790 -0.2672 -0.7174
  112MOL   C26436006  14.371   1.427   4.216  0.2993 -0.0248  0.2232
  112MOL   C26536007  14.244   1.471   4.252 -0.5309  0.2709 -0.1152
  112MOL   H26636008  14.020   1.568   4.356  1.8849  0.2216  2.0936
  112MOL   H26736009  14.082   1.713   4.390 -1.8404  0.6892 -0.4302
  112MOL   H26836010  14.282   1.814   4.233  0.4969  0.2740  1.8512
  112MOL   H26936011  14.510   1.741   4.177  0.2317  0.8155  2.7813
  112MOL   H27036012  14.594   1.391   4.099 -1.3455  0.2174 -1.1425
  112MOL   H27136013  14.647   1.557   4.090  0.6712 -0.8404 -1.0141
  112MOL   H27236014  14.395   1.323   4.204  0.8293  0.0381  0.7353
  112MOL   H27336015  14.177   1.388   4.269 -2.2760  1.5663 -0.5896
  112MOL   C27436016  14.717   1.469   4.261 -0.3955  0.4735 -0.6599
  112MOL   C27536017  14.850   1.416   4.214 -0.0817 -0.3176  0.1487
  112MOL   C27636018  14.957   1.512   4.193 -0.5079 -0.4054 -0.5267
  112MOL   C27736019  15.088   1.466   4.166 -0.2311  0.3082  0.2932
  112MOL   C27836020  15.120   1.331   4.145  0.6803  0.1303  0.0858
  112MOL   C27936021  15.266   1.296   4.117  0.2928  0.0116 -0.0648
  112MOL   C28036022  15.009   1.235   4.157  0.0528 -0.4442  1.2857
  112MOL   C28136023  14.874   1.279   4.185  0.3463  0.5274  0.3571
  112MOL   H28236024  14.733   1.569   4.303  3.1308  0.5038 -1.8707
  112MOL   H28336025  14.677   1.407   4.342 -2.6491  0.3726 -1.8165
  112MOL   H28436026  14.946   1.614   4.227 -3.1222 -1.2823  1.4030
  112MOL   H28536027  15.168   1.539   4.163  0.7378 -0.8090 -3.0470
  112MOL   H28636028  15.261   1.203   4.060  0.3714  0.2816 -0.5157
  112MOL   H28736029  15.308   1.371   4.050 -0.3175 -0.6549 -1.2197
  112MOL   H28836030  15.027   1.131   4.138  1.2296 -0.3257  1.7058
  112MOL   H28936031  14.789   1.214   4.197 -0.0996  1.0274 -0.0318
  112MOL   C29036032  15.342   1.266   4.251  0.5975  0.6292 -0.1605
  112MOL   C29136033  15.494   1.234   4.229  0.2478  0.6264 -0.8484
  112MOL   C29236034  15.574   1.348   4.208 -0.0734 -0.6780  0.5515
  112MOL   C29336035  15.710   1.334   4.195  1.0260 -0.2152  0.1974
  112MOL   C29436036  15.770   1.209   4.200 -0.4616 -0.2296  0.0329
  112MOL   C29536037  15.921   1.196   4.183  0.3086  0.0747  0.3334
  112MOL   C29636038  15.694   1.089   4.210 -0.1249  0.0071  0.0488
  112MOL   C29736039  15.551   1.105   4.231 -0.1081 -0.2845  0.5002
  112MOL   H29836040  15.295   1.178   4.294 -1.5108  1.3413 -0.9351
  112MOL   H29936041  15.332   1.347   4.323 -1.1640  2.9853 -2.9590
  112MOL   H30036042  15.531   1.447   4.203  1.0554 -0.2688 -1.4977
  112MOL   H30136043  15.764   1.423   4.166  0.7876 -0.5488 -1.2906
  112MOL   H30236044  15.940   1.096   4.221 -0.4857 -0.8356 -1.6528
  112MOL   H30336045  15.942   1.194   4.077 -3.5422  0.9789 -0.5513
  112MOL   H30436046  15.748   0.996   4.208 -0.0823  0.0522 -1.5466
  112MOL   H30536047  15.496   1.013   4.245 -2.1028  0.8906  0.6105
  112MOL   C30636048  15.997   1.303   4.265  0.8111  0.0627  0.4824
  112MOL   C30736049  16.143   1.279   4.247 -0.3448  0.1381  0.0823
  112MOL   C30836050  16.233   1.363   4.181 -0.3293 -0.4228 -0.2174
  112MOL   C30936051  16.369   1.326   4.172  0.3326 -0.9730  0.3197
  112MOL   C31036052  16.424   1.208   4.224  0.3742 -0.3191 -1.1772
  112MOL   C31136053  16.573   1.184   4.202 -0.1052 -0.4572  0.2571
  112MOL   C31236054  16.334   1.122   4.289  0.4494  0.5301 -0.5691
  112MOL   C31336055  16.196   1.154   4.301 -0.2288 -0.5337  0.3710
  112MOL   H31436056  15.980   1.295   4.373 -0.5891  0.2581  0.2896
  112MOL   H31536057  15.977   1.404   4.231  1.0161  0.5326  1.7211
  112MOL   H31636058  16.193   1.451   4.134  0.3538  0.5139  0.9193
  112MOL   H31736059  16.449   1.392   4.142 -0.5463  1.1486  2.4456
  112MOL   H31836060  16.606   1.082   4.218  0.0388 -0.6974 -1.4697
  112MOL   H31936061  16.591   1.203   4.096 -2.1401 -0.2857 -0.0785
  112MOL   H32036062  16.384   1.034   4.327 -0.8858 -0.6247 -1.4154
  112MOL   H32136063  16.127   1.095   4.359  1.0244  0.9105  3.4649
  112MOL   H32236064  16.629   1.254   4.264  1.2320 -0.7827 -0.5610
  113MOL     C136065   7.791   7.714   3.202 -0.4756  0.0121  0.3204
  113MOL     C236066   7.930   7.652   3.218  0.0203 -0.0281 -0.5707
  113MOL     C336067   8.047   7.726   3.254  0.1924  0.8484 -0.8396
  113MOL     C436068   8.175   7.672   3.263  0.2834 -0.3719  0.4483
  113MOL     C536069   8.193   7.538   3.233  0.0246 -0.1027 -0.1400
  113MOL     C636070   8.331   7.478   3.250  0.5837  0.1566 -0.3337
  113MOL     C736071   8.080   7.462   3.205  0.0974  0.2578  0.2895
  113MOL     C836072   7.948   7.512   3.196  0.2450 -0.3226  0.0176
  113MOL     H936073   7.722   7.630   3.201 -0.9189  0.3485  1.4035
  113MOL    H1036074   7.769   7.795   3.272  1.9604  0.4324  0.6237
  113MOL    H1136075   8.037   7.831   3.276 -0.5412  1.3327 -3.2494
  113MOL    H1236076   8.254   7.735   3.302  1.8947 -2.7316  1.0992
  113MOL    H1336077   8.407   7.549   3.282  0.1052  0.6395 -0.2683
  113MOL    H1436078   8.320   7.407   3.332 -0.8292  1.2404  0.4420
  113MOL    H1536079   8.098   7.357   3.187  1.0932  0.7307 -1.6384
  113MOL    H1636080   7.860   7.455   3.172  0.1705 -0.2567  0.1333
  113MOL    H1736081   7.804   7.760   3.104  0.1471 -1.5075 -0.3158
  113MOL    C1836082   8.389   7.410   3.122 -0.5324  0.1196 -0.3270
  113MOL    C1936083   8.532   7.376   3.155 -0.2683  0.5467 -0.1150
  113MOL    C2036084   8.568   7.244   3.198 -0.0362 -0.2169  0.2009
  113MOL    C2136085   8.705   7.211   3.208 -0.2500  0.3011 -0.2693
  113MOL    C2236086   8.811   7.295   3.164  1.0323  0.8867  0.2492
  113MOL    C2336087   8.953   7.255   3.175 -0.3734 -0.1158 -0.0103
  113MOL    C2436088   8.777   7.419   3.121 -0.5593  0.0334 -0.4194
  113MOL    C2536089   8.644   7.462   3.126 -0.1243  0.8363 -0.5485
  113MOL    H2636090   8.332   7.320   3.097  1.4515 -0.9273 -1.1705
  113MOL    H2736091   8.383   7.474   3.034  1.2358 -0.4201 -0.8569
  113MOL    H2836092   8.495   7.167   3.220 -0.3059  0.0674  0.2986
  113MOL    H2936093   8.734   7.114   3.247  0.7649  0.6418 -0.1669
  113MOL    H3036094   8.975   7.267   3.281  1.5430  0.6230 -0.4797
  113MOL    H3136095   9.017   7.333   3.134 -0.2636 -0.2968 -0.1834
  113MOL    H3236096   8.860   7.481   3.091 -0.1728  0.4626  1.4987
  113MOL    H3336097   8.637   7.564   3.093  0.5380  1.1602  0.2985
  113MOL    C3436098   8.986   7.112   3.131 -0.4877 -0.3477 -0.2132
  113MOL    C3536099   9.128   7.083   3.137 -0.2269 -0.8897  0.5524
  113MOL    C3636100   9.218   7.141   3.049  0.5201 -0.0235 -0.4469
  113MOL    C3736101   9.354   7.107   3.055 -0.1693 -0.5512  0.0386
  113MOL    C3836102   9.404   7.013   3.151 -0.2194  0.4999 -0.2990
  113MOL    C3936103   9.548   6.967   3.139 -0.6657  0.0384  0.0830
  113MOL    C4036104   9.316   6.959   3.247  0.1394 -0.2080 -0.1979
  113MOL    C4136105   9.176   6.993   3.232  0.2378 -0.9287 -0.4156
  113MOL    H4236106   8.954   7.103   3.027  1.9329 -0.1817 -1.0032
  113MOL    H4336107   8.934   7.041   3.195 -1.0208  1.2031  1.1119
  113MOL    H4436108   9.182   7.203   2.967  0.1539 -2.0021 -1.8251
  113MOL    H4536109   9.420   7.142   2.977 -0.0599 -0.5673  0.1227
  113MOL    H4636110   9.588   6.979   3.039  0.4038 -2.1028  0.2318
  113MOL    H4736111   9.607   7.032   3.204 -0.4351 -0.9969  0.9202
  113MOL    H4836112   9.347   6.890   3.323 -0.1769  0.0884  0.2029
  113MOL    H4936113   9.098   6.959   3.298  0.2323 -1.9295 -0.9221
  113MOL    C5036114   9.574   6.819   3.182 -0.7199 -0.1949  0.5523
  113MOL    C5136115   9.718   6.778   3.206  0.0817  0.6290  0.5609
  113MOL    C5236116   9.830   6.843   3.151  0.9529 -0.3232  0.2989
  113MOL    C5336117   9.963   6.789   3.181  0.4062 -0.3653 -0.5053
  113MOL    C5436118   9.982   6.678   3.265  0.8029 -0.3226 -0.6010
  113MOL    C5536119  10.124   6.644   3.308  0.1743 -0.6687 -0.2608
  113MOL    C5636120   9.867   6.614   3.311 -0.1781  0.1010  0.2463
  113MOL    C5736121   9.738   6.660   3.276  0.4033 -0.2527 -0.0511
  113MOL    H5836122   9.527   6.743   3.119  1.5793 -2.4160  1.4254
  113MOL    H5936123   9.531   6.802   3.281 -0.2855  0.0832  0.7914
  113MOL    H6036124   9.823   6.934   3.094  1.2876  1.1088  2.4935
  113MOL    H6136125  10.047   6.848   3.149  0.4056  0.5841  1.1976
  113MOL    H6236126  10.174   6.731   3.350 -0.1922 -0.4095 -0.3648
  113MOL    H6336127  10.124   6.570   3.389  2.3282 -0.8890 -0.4279
  113MOL    H6436128   9.872   6.524   3.371 -0.5449  0.5345  0.9400
  113MOL    H6536129   9.650   6.614   3.318  0.0815 -0.8512 -1.3726
  113MOL    C6636130  10.212   6.599   3.183  0.1122  0.0606  0.3642
  113MOL    C6736131  10.345   6.565   3.232 -0.1191 -0.2814 -0.3797
  113MOL    C6836132  10.371   6.474   3.329 -0.1119  0.5008 -0.5908
  113MOL    C6936133  10.507   6.443   3.368  0.0923 -0.7982  0.1577
  113MOL    C7036134  10.614   6.506   3.298 -0.5630 -0.2152  0.1353
  113MOL    C7136135  10.756   6.469   3.338 -0.0898  0.3442 -0.8829
  113MOL    C7236136  10.584   6.592   3.190  0.2505  0.7573  0.4918
  113MOL    C7336137  10.449   6.629   3.167  0.0034  1.2058  0.1470
  113MOL    H7436138  10.200   6.675   3.106  2.0630 -0.5616 -0.5818
  113MOL    H7536139  10.164   6.511   3.140 -2.9033  1.8545 -0.0964
  113MOL    H7636140  10.292   6.417   3.374  2.9453 -3.3391  0.2120
  113MOL    H7736141  10.527   6.375   3.449  0.2333  0.3919  1.1423
  113MOL    H7836142  10.757   6.408   3.429  2.0798 -0.3005 -1.3180
  113MOL    H7936143  10.803   6.563   3.369  1.9249 -0.6205 -0.9253
  113MOL    H8036144  10.656   6.641   3.126  0.0347  1.1874  0.5710
  113MOL    H8136145  10.426   6.697   3.086 -0.1666  1.0836  0.0934
  113MOL    C8236146  10.833   6.398   3.235  0.2249  0.5198  0.2462
  113MOL    C8336147  10.978   6.379   3.281 -0.0232  0.3378 -0.5903
  113MOL    C8436148  11.072   6.481   3.264 -0.1863 -0.4581  0.6086
  113MOL    C8536149  11.205   6.452   3.298 -0.0864  0.6981 -0.5566
  113MOL    C8636150  11.240   6.332   3.362  0.2324 -0.2633  0.1310
  113MOL    C8736151  11.386   6.315   3.408 -0.2296 -0.0174 -0.2137
  113MOL    C8836152  11.137   6.236   3.395 -1.1222 -0.3204  0.1665
  113MOL    C8936153  11.011   6.261   3.348 -0.1813 -0.0341  0.1142
  113MOL    H9036154  10.827   6.466   3.150 -0.5860  0.2181  0.0619
  113MOL    H9136155  10.789   6.302   3.209  2.5666 -0.4977 -0.0557
  113MOL    H9236156  11.045   6.574   3.215  3.0522  0.9912  1.4520
  113MOL    H9336157  11.269   6.538   3.286  1.2699 -0.4280 -1.4603
  113MOL    H9436158  11.385   6.304   3.517 -0.5335 -1.2835 -0.3297
  113MOL    H9536159  11.444   6.405   3.387 -0.9858 -0.0866 -2.7130
  113MOL    H9636160  11.170   6.147   3.447 -0.4454  1.3051  2.5894
  113MOL    H9736161  10.930   6.196   3.379 -0.2896 -0.5473 -1.1827
  113MOL    C9836162  11.452   6.189   3.356 -0.0696  0.3498 -0.3855
  113MOL    C9936163  11.596   6.173   3.393 -0.3813  0.4061  0.5302
  113MOL   C10036164  11.692   6.273   3.360  0.7274 -0.3532  0.2616
  113MOL   C10136165  11.825   6.254   3.397 -0.6641  0.0978 -0.6885
  113MOL   C10236166  11.875   6.134   3.457 -0.7328  0.0426  0.0320
  113MOL   C10336167  12.015   6.121   3.516 -0.2313 -0.1148  0.6546
  113MOL   C10436168  11.779   6.031   3.482  0.0635  0.3651 -0.1919
  113MOL   C10536169  11.641   6.051   3.444  0.2025 -0.2810  0.6585
  113MOL   H10636170  11.448   6.202   3.248  0.6672 -0.5591 -0.5280
  113MOL   H10736171  11.400   6.103   3.397  2.1387 -1.0611 -0.4961
  113MOL   H10836172  11.659   6.358   3.302  1.7944 -0.5490 -0.6504
  113MOL   H10936173  11.899   6.332   3.385 -0.1029 -0.3018  0.0876
  113MOL   H11036174  12.027   6.185   3.603  2.0903 -0.7964  0.8652
  113MOL   H11136175  12.039   6.021   3.553  1.3062 -0.2007 -0.5131
  113MOL   H11236176  11.816   5.936   3.517  0.8505  0.5130 -0.6060
  113MOL   H11336177  11.579   5.965   3.459 -0.5640  0.2632  0.6421
  113MOL   C11436178  12.107   6.154   3.402  0.0639  0.3942  1.1855
  113MOL   C11536179  12.250   6.136   3.449 -0.0964 -1.1154  0.7485
  113MOL   C11636180  12.309   6.232   3.534  0.1015  0.2457  0.1303
  113MOL   C11736181  12.444   6.227   3.560  0.2229  0.3540 -0.4466
  113MOL   C11836182  12.528   6.128   3.504 -0.0797 -0.1363  0.3679
  113MOL   C11936183  12.674   6.138   3.533  0.1655  0.5058  0.4749
  113MOL   C12036184  12.478   6.025   3.426  0.0516 -0.4559 -0.0507
  113MOL   C12136185  12.339   6.033   3.395 -0.6624  0.0657  0.2759
  113MOL   H12236186  12.091   6.253   3.359 -0.7949 -0.4706 -0.5135
  113MOL   H12336187  12.087   6.082   3.323  0.9653  1.2200  0.1817
  113MOL   H12436188  12.245   6.301   3.588  0.9072  2.0722 -1.2119
  113MOL   H12536189  12.479   6.314   3.613 -1.5771  1.7289 -1.4544
  113MOL   H12636190  12.729   6.085   3.454  0.8216 -0.9290  1.8718
  113MOL   H12736191  12.712   6.240   3.533  2.1781 -0.2027 -1.0073
  113MOL   H12836192  12.539   5.943   3.389 -0.5307 -1.1651  0.5427
  113MOL   H12936193  12.302   5.954   3.332  0.4601 -0.4953  0.3015
  113MOL   C13036194  12.715   6.087   3.678 -0.5212  0.1173  0.3834
  113MOL   C13136195  12.861   6.107   3.714  0.0497 -0.9487 -0.0964
  113MOL   C13236196  12.910   6.226   3.773  0.0685  0.3184 -0.3278
  113MOL   C13336197  13.048   6.248   3.811  0.5259 -0.0164 -0.6521
  113MOL   C13436198  13.143   6.143   3.792  0.6270 -0.0847 -0.8029
  113MOL   C13536199  13.293   6.163   3.825 -0.2827  0.3131 -1.0808
  113MOL   C13636200  13.093   6.027   3.732  0.2768 -0.2388 -0.1835
  113MOL   C13736201  12.955   6.004   3.698 -0.5225 -0.1062  0.2910
  113MOL   H13836202  12.692   5.984   3.707  0.8193  0.1549  1.6554
  113MOL   H13936203  12.653   6.139   3.752  0.2893  2.4629 -0.5418
  113MOL   H14036204  12.834   6.295   3.806  1.2461  1.6769 -0.4048
  113MOL   H14136205  13.082   6.336   3.863  0.1692 -0.4709  0.3483
  113MOL   H14236206  13.346   6.095   3.758  2.2292  1.3360 -0.2061
  113MOL   H14336207  13.313   6.265   3.790  2.4120 -0.3195 -1.5003
  113MOL   H14436208  13.163   5.947   3.711 -0.2612 -0.9219  0.6116
  113MOL   H14536209  12.923   5.906   3.666 -1.1389 -0.3536  1.5932
  113MOL   C14636210  13.331   6.142   3.978 -0.0457 -0.1473 -0.0456
  113MOL   C14736211  13.236   6.223   4.071 -0.6892  0.2868  0.0858
  113MOL   C14836212  13.126   6.160   4.130  0.1322  0.2061  0.2698
  113MOL   C14936213  13.045   6.231   4.223 -0.0751  0.0736 -1.0479
  113MOL   C15036214  13.072   6.367   4.249  0.2005 -0.1131 -0.7622
  113MOL   C15136215  12.978   6.454   4.329 -0.1161  0.1473  0.7739
  113MOL   C15236216  13.182   6.430   4.187 -0.1521 -0.1976 -0.0291
  113MOL   C15336217  13.264   6.355   4.100  0.2564 -0.5042 -0.2669
  113MOL   H15436218  13.433   6.163   4.011 -0.4327 -0.0200  1.1193
  113MOL   H15536219  13.314   6.037   4.001 -0.1393 -0.2851 -0.7524
  113MOL   H15636220  13.104   6.058   4.104 -1.2843  0.2336  1.2704
  113MOL   H15736221  12.957   6.179   4.259 -0.0079  1.3318  1.0420
  113MOL   H15836222  12.882   6.402   4.324 -0.4890  0.8880  0.1195
  113MOL   H15936223  13.010   6.459   4.433  1.7492 -1.7634  0.3329
  113MOL   H16036224  13.201   6.532   4.217 -0.2124 -0.2120  0.0616
  113MOL   H16136225  13.353   6.398   4.057  0.7370 -0.2231  0.9796
  113MOL   C16236226  12.973   6.596   4.269  0.5093  0.1833 -0.7177
  113MOL   C16336227  12.848   6.674   4.289  0.6334  0.2268 -0.2038
  113MOL   C16436228  12.813   6.709   4.418  0.1240 -0.5952  0.6843
  113MOL   C16536229  12.705   6.796   4.444  0.7113  0.5496 -0.9946
  113MOL   C16636230  12.619   6.839   4.339 -0.2614 -0.7888 -0.2066
  113MOL   C16736231  12.493   6.917   4.369 -0.3091 -0.2554 -0.8751
  113MOL   C16836232  12.659   6.804   4.212 -0.4492  0.0529 -0.2452
  113MOL   C16936233  12.772   6.722   4.185  0.1962 -0.4062 -0.2276
  113MOL   H17036234  12.983   6.594   4.160  2.2142 -0.3079 -0.5706
  113MOL   H17136235  13.057   6.651   4.312  0.5167 -0.2642 -0.1510
  113MOL   H17236236  12.860   6.660   4.502 -0.7994 -0.6429  1.1811
  113MOL   H17336237  12.664   6.807   4.544 -1.4214  0.2785 -1.8046
  113MOL   H17436238  12.449   6.959   4.279  1.9857  3.0556 -0.5281
  113MOL   H17536239  12.420   6.852   4.418  0.6497  0.3709  1.4577
  113MOL   H17636240  12.602   6.831   4.124  2.0770 -1.2316 -2.3534
  113MOL   H17736241  12.785   6.696   4.081  2.7095 -1.2640  0.2758
  113MOL   C17836242  12.524   7.032   4.468 -0.1659  0.2534 -0.1019
  113MOL   C17936243  12.391   7.087   4.512 -0.3622 -0.3957  0.6676
  113MOL   C18036244  12.305   7.017   4.601 -0.0735  0.0830 -0.8676
  113MOL   C18136245  12.189   7.077   4.654  0.5562 -0.1695  0.3787
  113MOL   C18236246  12.161   7.210   4.607 -0.5737  0.2493  0.3221
  113MOL   C18336247  12.042   7.286   4.668  0.0237  0.0496  0.0407
  113MOL   C18436248  12.247   7.283   4.522  0.1340 -0.1925 -0.4232
  113MOL   C18536249  12.362   7.221   4.474  0.3666  0.2074 -0.3686
  113MOL   H18636250  12.580   7.110   4.418 -0.8842  1.3575  0.7706
  113MOL   H18736251  12.581   7.005   4.557  0.3935  1.8153  0.0252
  113MOL   H18836252  12.338   6.922   4.639  2.3167  1.9036  1.8033
  113MOL   H18936253  12.134   7.024   4.731  0.1331  0.6454  0.6502
  113MOL   H19036254  12.004   7.348   4.587 -0.2890 -1.1512 -0.7559
  113MOL   H19136255  11.957   7.221   4.688 -0.9158  0.7103 -1.6743
  113MOL   H19236256  12.227   7.387   4.500 -3.8654 -0.4212  1.5896
  113MOL   H19336257  12.433   7.271   4.409 -0.1918 -0.0872 -1.2146
  113MOL   C19436258  12.073   7.384   4.785  0.4758 -0.6499 -0.5002
  113MOL   C19536259  11.944   7.436   4.849 -0.7302  0.1981 -0.5323
  113MOL   C19636260  11.898   7.375   4.968 -0.1648 -0.1233 -0.4041
  113MOL   C19736261  11.776   7.426   5.029 -0.2329 -0.7406 -0.1124
  113MOL   C19836262  11.703   7.526   4.958 -0.5681 -0.3869 -0.1236
  113MOL   C19936263  11.582   7.587   5.025  0.1016 -0.6162 -0.4576
  113MOL   C20036264  11.750   7.587   4.838 -0.0958 -0.2009  1.0169
  113MOL   C20136265  11.865   7.537   4.783 -0.6374 -0.0472 -0.1200
  113MOL   H20236266  12.121   7.472   4.742 -2.2779  0.9900 -0.2864
  113MOL   H20336267  12.140   7.332   4.854 -0.9452 -0.3300  1.1354
  113MOL   H20436268  11.950   7.290   5.010 -0.0696  0.4252  0.6200
  113MOL   H20536269  11.737   7.368   5.111  1.0807 -1.4016  0.0613
  113MOL   H20636270  11.502   7.577   4.952  0.8535 -1.0714 -1.2257
  113MOL   H20736271  11.545   7.525   5.107 -1.6430  1.5929  0.4603
  113MOL   H20836272  11.692   7.661   4.785  1.1904 -0.3867 -0.6803
  113MOL   H20936273  11.892   7.570   4.684 -1.5037 -1.8824 -0.9907
  113MOL   C21036274  11.596   7.731   5.075  0.0097  0.0171 -0.0150
  113MOL   C21136275  11.459   7.777   5.127 -0.1001 -0.6857  0.1041
  113MOL   C21236276  11.401   7.895   5.073 -0.4520  0.1905 -0.3871
  113MOL   C21336277  11.281   7.942   5.125 -0.2036 -0.0084 -0.0630
  113MOL   C21436278  11.214   7.877   5.223 -0.4506 -0.1783 -0.5756
  113MOL   C21536279  11.078   7.922   5.274  0.3326 -0.3191  0.3411
  113MOL   C21636280  11.269   7.762   5.285  0.7011  0.1052  0.0899
  113MOL   C21736281  11.397   7.717   5.241  0.2436 -0.2261 -0.9781
  113MOL   H21836282  11.639   7.798   5.000  2.5779 -1.4629  0.0824
  113MOL   H21936283  11.670   7.738   5.155  0.6011  2.6486 -0.7413
  113MOL   H22036284  11.448   7.951   4.994  0.4209 -0.8444 -0.6181
  113MOL   H22136285  11.246   8.034   5.082 -3.1878 -2.4049 -2.9998
  113MOL   H22236286  11.015   7.948   5.188  0.5243 -3.1317 -0.7124
  113MOL   H22336287  11.031   7.841   5.330 -1.8663 -1.6758 -3.2292
  113MOL   H22436288  11.222   7.707   5.366 -2.1977  0.7756 -1.0690
  113MOL   H22536289  11.438   7.636   5.300  1.0255  0.9856  0.1504
  113MOL   C22636290  11.084   8.049   5.372  0.4362  0.7901  0.1591
  113MOL   C22736291  10.947   8.105   5.408 -0.0418  0.5545 -0.6912
  113MOL   C22836292  10.863   8.153   5.310 -0.5439 -0.1505  0.2797
  113MOL   C22936293  10.738   8.214   5.334 -0.0259  0.4637 -0.3169
  113MOL   C23036294  10.697   8.221   5.468  0.9171  0.1045 -0.0344
  113MOL   C23136295  10.564   8.290   5.507  0.6748  0.4096  0.0833
  113MOL   C23236296  10.783   8.188   5.575 -0.4730  0.3706 -0.1429
  113MOL   C23336297  10.907   8.115   5.543  0.6766  0.0368  0.0534
  113MOL   H23436298  11.139   8.128   5.320 -0.2342  1.8749  1.0658
  113MOL   H23536299  11.139   8.020   5.461  0.2643  0.8177  0.2728
  113MOL   H23636300  10.896   8.153   5.207 -0.1673  3.0009  0.3536
  113MOL   H23736301  10.687   8.257   5.249  0.0912  1.9798  0.3737
  113MOL   H23836302  10.487   8.228   5.462 -0.8562  1.7409  0.8185
  113MOL   H23936303  10.555   8.278   5.615 -0.0890  1.4278  0.1439
  113MOL   H24036304  10.765   8.194   5.681  0.6866  1.6460  0.0079
  113MOL   H24136305  10.964   8.090   5.632  1.1152  0.0869 -0.2110
  113MOL   C24236306  10.558   8.439   5.476 -0.1736 -0.0585  0.0493
  113MOL   C24336307  10.431   8.511   5.521  0.3105 -0.1550 -0.3587
  113MOL   C24436308  10.304   8.463   5.481  0.2491 -0.6454  0.4559
  113MOL   C24536309  10.188   8.529   5.523  0.5917  0.5221  0.7054
  113MOL   C24636310  10.198   8.649   5.596  0.2564  0.2739 -0.9570
  113MOL   C24736311  10.071   8.710   5.639  1.0420  0.3446  0.1166
  113MOL   C24836312  10.326   8.700   5.622  0.5048  0.3557  0.0432
  113MOL   C24936313  10.443   8.635   5.587  0.5410 -0.4529 -0.0538
  113MOL   H25036314  10.641   8.483   5.533 -0.4092 -0.2473  0.5442
  113MOL   H25136315  10.580   8.460   5.371 -0.2995  1.0464  0.2384
  113MOL   H25236316  10.295   8.370   5.427 -0.7619  0.5513 -1.5161
  113MOL   H25336317  10.093   8.480   5.505 -0.6491  3.1327 -0.1415
  113MOL   H25436318  10.027   8.644   5.714  0.0286  0.8361 -0.0262
  113MOL   H25536319  10.078   8.804   5.695  1.2859  0.4822 -0.1418
  113MOL   H25636320  10.321   8.797   5.671 -1.2228 -0.2071  1.0146
  113MOL   H25736321  10.543   8.664   5.616  1.6894 -3.5090 -0.6813
  113MOL   C25836322   9.981   8.744   5.518 -0.5094  0.1033 -0.6819
  113MOL   C25936323   9.839   8.771   5.556 -0.3650 -0.0676  0.0414
  113MOL   C26036324   9.793   8.904   5.586  0.4087  0.3572  0.4263
  113MOL   C26136325   9.664   8.930   5.627 -0.6255 -0.7029  0.5026
  113MOL   C26236326   9.579   8.828   5.666 -0.3913  0.0301  0.1075
  113MOL   C26336327   9.453   8.855   5.739  0.2657 -0.5466 -0.1534
  113MOL   C26436328   9.628   8.694   5.649  0.2540 -0.2375 -0.3151
  113MOL   C26536329   9.751   8.665   5.583 -0.0877  0.3916 -0.0060
  113MOL   H26636330   9.975   8.654   5.457  1.3199 -1.1812  0.9646
  113MOL   H26736331  10.032   8.821   5.461  1.8435 -1.1181 -0.2936
  113MOL   H26836332   9.862   8.985   5.571  2.0680 -1.1194 -0.0433
  113MOL   H26936333   9.628   9.030   5.646 -0.3976 -0.0882 -2.1112
  113MOL   H27036334   9.433   8.779   5.814  1.0141  1.7112  2.4309
  113MOL   H27136335   9.469   8.948   5.794 -1.3965  0.3642 -1.1651
  113MOL   H27236336   9.568   8.609   5.678 -0.2686 -0.4479 -1.9472
  113MOL   H27336337   9.786   8.565   5.564 -3.1258 -0.8592  0.7035
  113MOL   C27436338   9.351   8.863   5.633 -0.3459  0.4817 -0.4426
  113MOL   C27536339   9.227   8.913   5.692 -0.3294 -0.1049  0.9972
  113MOL   C27636340   9.144   8.810   5.746  0.4000 -0.5381  0.7883
  113MOL   C27736341   9.024   8.846   5.815 -0.9295  0.2073  0.0071
  113MOL   C27836342   8.984   8.984   5.816 -0.2870 -0.1044 -0.8011
  113MOL   C27936343   8.856   9.036   5.882 -0.1420  0.4470 -0.0417
  113MOL   C28036344   9.071   9.080   5.762  0.8162 -0.0588 -0.0550
  113MOL   C28136345   9.193   9.045   5.705 -0.1934 -0.3773  0.0505
  113MOL   H28236346   9.385   8.937   5.560  2.6167 -0.8491 -0.4829
  113MOL   H28336347   9.353   8.767   5.581 -1.6752  0.7915 -1.0845
  113MOL   H28436348   9.181   8.709   5.732 -0.2398 -0.6168 -0.4340
  113MOL   H28536349   8.958   8.769   5.852 -1.2189  1.2574  1.7408
  113MOL   H28636350   8.821   8.957   5.948  0.3912  1.0718  0.9984
  113MOL   H28736351   8.884   9.122   5.944  0.0534  0.9264 -0.7861
  113MOL   H28836352   9.048   9.185   5.772  1.5098  0.2257 -1.3549
  113MOL   H28936353   9.256   9.129   5.678 -0.2677 -0.0972  0.7423
  113MOL   C29036354   8.753   9.073   5.777  0.2754 -0.4290  0.6588
  113MOL   C29136355   8.621   9.102   5.836 -0.2743 -0.1171  0.6680
  113MOL   C29236356   8.535   8.995   5.876  1.2083  0.5320 -0.1509
  113MOL   C29336357   8.412   9.021   5.936  0.7932 -0.1795  0.0674
  113MOL   C29436358   8.379   9.159   5.952 -0.2470  0.5206  0.2579
  113MOL   C29536359   8.249   9.192   6.020  0.2666 -0.2607 -0.2550
  113MOL   C29636360   8.457   9.264   5.908 -0.5924 -0.2508  0.4010
  113MOL   C29736361   8.576   9.235   5.844  0.0703  0.2964  0.0442
  113MOL   H29836362   8.750   8.998   5.698 -1.4958  1.9653 -1.6355
  113MOL   H29936363   8.783   9.163   5.723 -1.1231  0.5926  1.5722
  113MOL   H30036364   8.571   8.893   5.872  0.7899  0.0536  4.8686
  113MOL   H30136365   8.351   8.942   5.976  0.6488  0.2353  0.6855
  113MOL   H30236366   8.226   9.108   6.085 -0.8052 -0.1082 -0.4359
  113MOL   H30336367   8.248   9.282   6.082 -0.4479 -0.4249 -0.0263
  113MOL   H30436368   8.422   9.365   5.926  0.3663  0.0214  0.7962
  113MOL   H30536369   8.628   9.317   5.796  0.0077 -0.8139 -1.9866
  113MOL   C30636370   8.143   9.203   5.916  0.6695  0.7301 -0.6216
  113MOL   C30736371   8.010   9.248   5.974 -0.9465  0.1315  0.3107
  113MOL   C30836372   8.004   9.382   6.025 -0.6639 -0.0958  0.3639
  113MOL   C30936373   7.881   9.427   6.079  0.1116  0.4943  0.9647
  113MOL   C31036374   7.768   9.340   6.090  0.0887 -0.1247  0.8111
  113MOL   C31136375   7.636   9.386   6.149 -0.3554  0.1816 -0.3960
  113MOL   C31236376   7.780   9.206   6.045  0.4388 -0.7414 -0.5566
  113MOL   C31336377   7.900   9.159   5.984  0.0259 -0.1530  0.0126
  113MOL   H31436378   8.127   9.111   5.859  0.1375 -0.2414  1.0425
  113MOL   H31536379   8.182   9.274   5.844  0.0989  0.9421 -0.7229
  113MOL   H31636380   8.092   9.443   6.009  0.3895 -1.4688  0.8037
  113MOL   H31736381   7.865   9.530   6.106 -2.4033  0.7956 -1.4095
  113MOL   H31836382   7.650   9.434   6.246  1.1851  1.0478 -1.0130
  113MOL   H31936383   7.578   9.461   6.095  0.2864  1.8825  1.2228
  113MOL   H32036384   7.707   9.129   6.064 -1.8614  1.8457  1.6145
  113MOL   H32136385   7.907   9.058   5.945 -3.5360 -0.0463 -1.0117
  113MOL   H32236386   7.573   9.304   6.181  0.6201 -0.9980 -1.4217
  114MOL     C136387   2.062   5.980   3.756  0.5927 -0.7875  0.3864
  114MOL     C236388   2.183   5.924   3.821 -0.1628 -0.5702 -0.2480
  114MOL     C336389   2.273   5.850   3.738 -0.0956  0.1936 -0.1160
  114MOL     C436390   2.399   5.824   3.793  0.4259 -0.0134  0.0525
  114MOL     C536391   2.434   5.848   3.928  0.0902  0.0085  0.6584
  114MOL     C636392   2.573   5.821   3.980  0.0882 -0.2012  0.2367
  114MOL     C736393   2.335   5.888   4.017 -0.1709  0.2388  0.5959
  114MOL     C836394   2.213   5.932   3.960  1.0501 -0.4458 -0.0757
  114MOL     H936395   1.993   6.024   3.827 -1.7751  1.5139 -3.1577
  114MOL    H1036396   2.088   6.055   3.681 -0.7392  2.3022  2.9133
  114MOL    H1136397   2.266   5.845   3.631  0.1027  0.0188 -0.1212
  114MOL    H1236398   2.467   5.784   3.720 -1.2451 -0.4226 -1.3018
  114MOL    H1336399   2.605   5.911   4.033  2.6859  0.0396 -1.6160
  114MOL    H1436400   2.558   5.743   4.054  2.5823 -0.3739  0.6000
  114MOL    H1536401   2.357   5.890   4.123 -0.8192 -1.8550  0.8022
  114MOL    H1636402   2.142   5.984   4.023  3.8205  1.6678  1.4200
  114MOL    H1736403   2.006   5.902   3.704 -1.7388 -0.4640  2.3326
  114MOL    C1836404   2.680   5.789   3.873  0.2137 -0.0106 -0.6674
  114MOL    C1936405   2.822   5.765   3.919  0.2300  0.7616  0.0346
  114MOL    C2036406   2.894   5.663   3.858  0.5173 -0.3773 -0.1536
  114MOL    C2136407   3.026   5.644   3.905 -0.3316  0.3374  0.3185
  114MOL    C2236408   3.090   5.724   4.003  0.0983  0.4384 -0.3659
  114MOL    C2336409   3.239   5.714   4.016 -0.2413 -0.2438  0.0130
  114MOL    C2436410   3.020   5.831   4.053  0.0630  0.8174 -0.0062
  114MOL    C2536411   2.888   5.852   4.010  0.5001  0.3092  0.2079
  114MOL    H2636412   2.640   5.697   3.831 -2.0947 -0.9992  3.4411
  114MOL    H2736413   2.681   5.865   3.795 -0.9664 -0.9771 -1.6533
  114MOL    H2836414   2.847   5.586   3.799 -1.7521 -1.2292  2.6521
  114MOL    H2936415   3.082   5.573   3.847 -0.1789  1.4518 -0.9208
  114MOL    H3036416   3.281   5.814   4.009 -3.6905  1.4462  2.1545
  114MOL    H3136417   3.286   5.655   3.937  3.5760  0.6393  1.4887
  114MOL    H3236418   3.069   5.910   4.109 -1.7548  1.1944  1.0966
  114MOL    H3336419   2.837   5.945   4.032 -1.1088 -0.6797  0.6667
  114MOL    C3436420   3.288   5.634   4.139  0.1776 -0.1004  0.6794
  114MOL    C3536421   3.437   5.612   4.144  0.8065  0.8852  0.3811
  114MOL    C3636422   3.514   5.674   4.248 -0.4755  0.2526  0.2399
  114MOL    C3736423   3.656   5.670   4.249 -0.5475 -0.2069  0.2281
  114MOL    C3836424   3.718   5.594   4.149  1.2031 -0.0998  0.0648
  114MOL    C3936425   3.872   5.581   4.159 -0.7150 -0.3514  0.0288
  114MOL    C4036426   3.642   5.519   4.047  0.6089 -0.6432  0.1405
  114MOL    C4136427   3.502   5.536   4.046  0.0630 -0.3092  0.4669
  114MOL    H4236428   3.240   5.536   4.133 -2.5803  1.3319 -2.8526
  114MOL    H4336429   3.246   5.680   4.229 -0.2165  0.0340  0.4279
  114MOL    H4436430   3.472   5.721   4.336 -0.3904  0.5330  0.1315
  114MOL    H4536431   3.713   5.722   4.325 -0.1960 -0.0124 -0.1614
  114MOL    H4636432   3.911   5.598   4.059  2.3303 -0.8969  1.0508
  114MOL    H4736433   3.917   5.665   4.213  1.3956  0.3063 -2.6713
  114MOL    H4836434   3.700   5.466   3.974  0.9805  1.3582 -1.0494
  114MOL    H4936435   3.454   5.504   3.955 -0.0295  1.7830 -0.2434
  114MOL    C5036436   3.926   5.453   4.220 -0.2441 -0.1026  0.2256
  114MOL    C5136437   4.065   5.427   4.196  0.0353  0.3196 -0.0182
  114MOL    C5236438   4.116   5.358   4.088 -0.4260  0.1561  0.9531
  114MOL    C5336439   4.253   5.331   4.070 -0.2581 -0.2143  0.1054
  114MOL    C5436440   4.344   5.381   4.160  0.2253  0.0794 -0.4351
  114MOL    C5536441   4.491   5.361   4.141  0.5347 -0.0004  0.1264
  114MOL    C5636442   4.300   5.459   4.267  0.7191  0.2179  0.2057
  114MOL    C5736443   4.162   5.486   4.285  0.0653 -0.0148 -1.4736
  114MOL    H5836444   3.877   5.369   4.171  0.5913  0.1332 -1.0271
  114MOL    H5936445   3.910   5.435   4.327 -0.9749 -2.2564 -0.2159
  114MOL    H6036446   4.050   5.323   4.009  1.3398 -2.5046  0.5791
  114MOL    H6136447   4.284   5.272   3.985  0.3156 -0.1558  0.2722
  114MOL    H6236448   4.498   5.283   4.065  1.9031 -1.0227  1.2678
  114MOL    H6336449   4.527   5.455   4.100  0.8603 -0.2712 -0.2156
  114MOL    H6436450   4.363   5.494   4.348 -0.0456  0.3729  0.7417
  114MOL    H6536451   4.129   5.538   4.374 -2.0275 -2.7992 -0.5628
  114MOL    C6636452   4.573   5.321   4.263  0.3246  0.0615  0.0314
  114MOL    C6736453   4.720   5.307   4.232 -0.0407  0.0574 -0.0207
  114MOL    C6836454   4.789   5.411   4.165  0.5421 -0.3224 -0.6936
  114MOL    C6936455   4.923   5.392   4.124 -0.9177 -0.5931 -0.0502
  114MOL    C7036456   4.997   5.281   4.165  0.0569 -0.0621  0.5248
  114MOL    C7136457   5.143   5.272   4.137  0.2368  0.1519 -0.0329
  114MOL    C7236458   4.935   5.183   4.247  0.1674 -0.3314  0.3788
  114MOL    C7336459   4.799   5.196   4.277  0.4818  0.0461  0.1111
  114MOL    H7436460   4.535   5.227   4.304 -1.2747 -0.4154 -2.4638
  114MOL    H7536461   4.564   5.398   4.339  1.2014  2.4602 -2.2438
  114MOL    H7636462   4.730   5.497   4.135  0.6671  0.7261  1.9541
  114MOL    H7736463   4.962   5.475   4.068 -1.7760  0.7666  1.3209
  114MOL    H7836464   5.169   5.338   4.055  0.4864  0.0521 -0.0328
  114MOL    H7936465   5.177   5.173   4.107  0.7553  0.6619 -1.1333
  114MOL    H8036466   4.990   5.095   4.278  0.6405 -0.5583 -1.0792
  114MOL    H8136467   4.751   5.113   4.326 -1.1319  0.1181 -1.2865
  114MOL    C8236468   5.217   5.327   4.259  0.4545  0.1861  0.0200
  114MOL    C8336469   5.374   5.318   4.253  0.3021 -0.0627  0.0146
  114MOL    C8436470   5.454   5.403   4.172 -0.1178  0.6065  0.6508
  114MOL    C8536471   5.596   5.392   4.165  0.3127  0.4177 -0.0156
  114MOL    C8636472   5.658   5.291   4.246 -0.1289 -0.1377 -0.2297
  114MOL    C8736473   5.810   5.277   4.236 -0.3123 -0.2661  0.6969
  114MOL    C8836474   5.582   5.218   4.338 -0.8980 -0.0592  0.2257
  114MOL    C8936475   5.444   5.235   4.342 -0.1928 -0.1884 -0.0433
  114MOL    H9036476   5.193   5.271   4.350  1.0676 -1.4496 -0.8025
  114MOL    H9136477   5.190   5.432   4.268  1.6424  0.4109  0.9778
  114MOL    H9236478   5.408   5.489   4.126 -2.4787 -0.5980  0.7189
  114MOL    H9336479   5.653   5.461   4.105 -0.6338  1.3107  0.1059
  114MOL    H9436480   5.831   5.279   4.129  1.0665 -0.5389  0.9592
  114MOL    H9536481   5.840   5.181   4.276 -1.8722  0.1074  2.8333
  114MOL    H9636482   5.628   5.145   4.402  0.4643  1.0345  0.5019
  114MOL    H9736483   5.387   5.165   4.402  0.1927  0.1563  0.7205
  114MOL    C9836484   5.878   5.399   4.301  0.6873 -0.1692 -0.2420
  114MOL    C9936485   6.030   5.412   4.293  0.5426 -0.0881 -0.3020
  114MOL   C10036486   6.076   5.525   4.223  0.5829  0.3050 -0.2665
  114MOL   C10136487   6.219   5.539   4.209 -0.6073 -0.3368 -0.0591
  114MOL   C10236488   6.307   5.437   4.254  0.2957  0.0845 -0.0923
  114MOL   C10336489   6.454   5.463   4.227 -0.0056  0.3504  0.2637
  114MOL   C10436490   6.257   5.326   4.319 -0.5809 -0.6249  0.1733
  114MOL   C10536491   6.119   5.315   4.346  0.7292  0.3531  0.3704
  114MOL   H10636492   5.851   5.400   4.407  1.5732 -0.9411 -0.0037
  114MOL   H10736493   5.825   5.490   4.273 -0.6849 -0.7210  0.5011
  114MOL   H10836494   6.003   5.592   4.179  0.2595 -0.0790 -0.3132
  114MOL   H10936495   6.262   5.628   4.166  2.1319 -0.7282  1.7492
  114MOL   H11036496   6.503   5.374   4.267  0.2416  0.0226 -0.7353
  114MOL   H11136497   6.489   5.485   4.126  0.1286 -0.9442  0.0090
  114MOL   H11236498   6.330   5.254   4.352  0.8980  0.4378 -0.7652
  114MOL   H11336499   6.079   5.223   4.385  0.3942  0.4839  0.3370
  114MOL   C11436500   6.524   5.568   4.315 -0.4496  0.2456  0.6732
  114MOL   C11536501   6.479   5.710   4.285 -0.4129  0.2216 -0.0391
  114MOL   C11636502   6.550   5.781   4.185  0.0909  0.0896  0.1013
  114MOL   C11736503   6.501   5.907   4.139  0.0485 -0.0161 -0.1392
  114MOL   C11836504   6.382   5.957   4.196 -0.0072  0.5653 -0.6485
  114MOL   C11936505   6.316   6.077   4.135 -0.5298 -0.0468 -0.3242
  114MOL   C12036506   6.318   5.889   4.300 -0.1121 -0.7773  0.5933
  114MOL   C12136507   6.366   5.762   4.344  0.1494 -0.2042  0.6539
  114MOL   H12236508   6.631   5.559   4.298 -0.6634  1.5600 -1.4966
  114MOL   H12336509   6.509   5.551   4.422  1.3517  0.6981  1.0088
  114MOL   H12436510   6.642   5.743   4.142  0.2884  0.8436 -0.1665
  114MOL   H12536511   6.551   5.952   4.054 -1.5532  1.8959 -0.1045
  114MOL   H12636512   6.258   6.142   4.200  2.3847  0.7955  1.5427
  114MOL   H12736513   6.402   6.142   4.121  1.4732 -2.1933  1.4168
  114MOL   H12836514   6.224   5.931   4.332 -0.9960 -1.5924 -0.9037
  114MOL   H12936515   6.328   5.702   4.425 -0.0778 -1.4156 -0.3421
  114MOL   C13036516   6.239   6.044   4.006  0.2408  1.1349 -0.5671
  114MOL   C13136517   6.092   6.012   4.017  0.4829  0.0235 -0.0809
  114MOL   C13236518   6.045   5.910   4.104 -0.1854 -1.0083 -0.4499
  114MOL   C13336519   5.907   5.881   4.108  0.0717  0.5887  0.2996
  114MOL   C13436520   5.814   5.950   4.035 -0.6924 -0.2132  0.1299
  114MOL   C13536521   5.665   5.932   4.061 -0.3703 -0.1614 -0.0795
  114MOL   C13636522   5.866   6.062   3.964  0.2398  0.8169  0.9156
  114MOL   C13736523   6.004   6.086   3.942  0.2966 -0.2488 -0.5656
  114MOL   H13836524   6.291   5.965   3.951  0.2931 -0.9207  2.3084
  114MOL   H13936525   6.246   6.131   3.942 -0.4482  2.2578  0.8580
  114MOL   H14036526   6.114   5.850   4.162  1.8072  1.8167  0.1947
  114MOL   H14136527   5.873   5.808   4.180  0.0752 -0.5072 -0.8110
  114MOL   H14236528   5.657   5.992   4.152  0.2140 -0.9131  0.4672
  114MOL   H14336529   5.603   5.986   3.990 -1.1468  0.7027  1.2292
  114MOL   H14436530   5.803   6.123   3.902 -1.1953 -1.8219 -0.3220
  114MOL   H14536531   6.041   6.164   3.876 -1.6390 -0.2462 -1.6867
  114MOL   C14636532   5.619   5.783   4.077 -0.3866 -0.3873 -0.0766
  114MOL   C14736533   5.474   5.768   4.108 -0.1527 -0.0999  0.8727
  114MOL   C14836534   5.379   5.782   4.002 -0.1217 -0.2905 -0.0550
  114MOL   C14936535   5.243   5.782   4.026  0.6581  0.2281  0.5681
  114MOL   C15036536   5.206   5.759   4.159 -0.5273 -0.6741  0.4490
  114MOL   C15136537   5.054   5.764   4.202 -0.3126  0.8283  0.4002
  114MOL   C15236538   5.296   5.746   4.266 -0.1496 -0.4416  0.0976
  114MOL   C15336539   5.431   5.750   4.239  0.1752 -0.8930  0.0927
  114MOL   H15436540   5.676   5.728   4.152  1.1226 -1.7163 -2.1409
  114MOL   H15536541   5.653   5.730   3.988  1.1053 -0.8915  0.7715
  114MOL   H15636542   5.407   5.782   3.898  1.4635  0.7201  0.3622
  114MOL   H15736543   5.167   5.792   3.950  1.7844 -0.5940 -0.6908
  114MOL   H15836544   5.002   5.788   4.110  0.5379  0.2352 -0.2482
  114MOL   H15936545   5.034   5.661   4.232 -0.6357  0.3689 -1.3456
  114MOL   H16036546   5.271   5.730   4.370  3.1010  1.3267  1.2257
  114MOL   H16136547   5.496   5.756   4.325 -0.2365  1.6568  0.2547
  114MOL   C16236548   5.017   5.871   4.304 -0.2621 -0.5307  0.5902
  114MOL   C16336549   4.870   5.845   4.338 -0.3088  0.2139  0.6183
  114MOL   C16436550   4.837   5.749   4.430  0.0194 -0.2117  0.0714
  114MOL   C16536551   4.706   5.722   4.470  1.0754  0.2906 -0.9952
  114MOL   C16636552   4.603   5.798   4.419  0.0465 -0.3392  0.0450
  114MOL   C16736553   4.454   5.759   4.445 -0.7219  0.2362  0.1431
  114MOL   C16836554   4.630   5.898   4.322  0.1097 -0.4395 -0.3725
  114MOL   C16936555   4.767   5.921   4.282 -0.7430 -0.1767 -0.2830
  114MOL   H17036556   5.028   5.966   4.252  1.8636 -1.6852 -1.1546
  114MOL   H17136557   5.086   5.869   4.388  0.9526  1.4454 -0.3333
  114MOL   H17236558   4.905   5.676   4.470  1.1177  1.1121  0.6410
  114MOL   H17336559   4.677   5.639   4.533  1.9900  0.0830 -0.8477
  114MOL   H17436560   4.394   5.743   4.356 -1.2498  0.6946  0.4083
  114MOL   H17536561   4.455   5.658   4.486 -1.2718 -0.1122 -0.6972
  114MOL   H17636562   4.550   5.955   4.275  1.2979  0.1385 -1.7318
  114MOL   H17736563   4.781   5.991   4.201 -2.1556  0.7609  0.2760
  114MOL   C17836564   4.379   5.848   4.538 -0.0264 -0.2519  0.3022
  114MOL   C17936565   4.236   5.790   4.551 -0.5069  0.1063  0.1121
  114MOL   C18036566   4.134   5.823   4.461 -0.3208  0.0362 -0.1605
  114MOL   C18136567   4.002   5.781   4.487  0.4501 -0.3186 -0.2686
  114MOL   C18236568   3.976   5.708   4.606  0.0550  0.8908  0.8412
  114MOL   C18336569   3.838   5.668   4.644 -0.3064 -0.2340  0.2940
  114MOL   C18436570   4.082   5.674   4.696  0.0101  0.9621  0.7146
  114MOL   C18536571   4.212   5.715   4.665 -0.6647  0.0627 -0.2638
  114MOL   H18636572   4.374   5.948   4.495  3.5612 -0.7153 -1.3741
  114MOL   H18736573   4.430   5.853   4.634  0.3715 -1.6968  0.1764
  114MOL   H18836574   4.155   5.877   4.369  0.4084 -2.8369 -1.7487
  114MOL   H18936575   3.926   5.820   4.420  1.4698 -0.8395 -1.7515
  114MOL   H19036576   3.757   5.654   4.573 -0.4452  2.1490 -0.0873
  114MOL   H19136577   3.854   5.576   4.700 -0.6904 -1.1935 -1.1393
  114MOL   H19236578   4.062   5.622   4.789 -1.3455  1.1296  0.5394
  114MOL   H19336579   4.298   5.687   4.723 -0.7047 -1.4158 -0.8982
  114MOL   C19436580   3.776   5.766   4.750  0.1088 -1.2285  0.0245
  114MOL   C19536581   3.663   5.698   4.824  0.2545 -0.1179  0.0384
  114MOL   C19636582   3.679   5.640   4.950  0.5828  0.2361  0.4923
  114MOL   C19736583   3.573   5.579   5.023  0.1179 -0.3675  0.1270
  114MOL   C19836584   3.444   5.576   4.957 -0.3346  0.0400  0.3994
  114MOL   C19936585   3.324   5.510   5.028 -0.4642 -0.3367  0.9422
  114MOL   C20036586   3.429   5.633   4.830 -0.2100 -0.6372 -0.2316
  114MOL   C20136587   3.538   5.690   4.762 -0.1642  0.6614 -0.8003
  114MOL   H20236588   3.735   5.853   4.699  0.1100 -0.8894  0.6100
  114MOL   H20336589   3.840   5.790   4.834 -1.2973 -3.0478  1.6513
  114MOL   H20436590   3.775   5.626   4.998  1.2118 -2.7905 -1.5357
  114MOL   H20536591   3.585   5.546   5.125 -3.2385  0.1575  0.7431
  114MOL   H20636592   3.246   5.496   4.954  0.9724  2.3555 -1.1544
  114MOL   H20736593   3.340   5.407   5.059  0.2421 -0.2830  0.7570
  114MOL   H20836594   3.341   5.617   4.768 -0.4198  2.0587 -0.6997
  114MOL   H20936595   3.513   5.735   4.667  0.1022 -0.3994 -1.3878
  114MOL   C21036596   3.268   5.603   5.130 -0.3353 -0.1323  0.3616
  114MOL   C21136597   3.140   5.556   5.194 -1.0543 -0.3099  0.6725
  114MOL   C21236598   3.012   5.611   5.165  0.4213 -1.3010  0.0292
  114MOL   C21336599   2.893   5.561   5.221 -0.1430  0.0772  0.0627
  114MOL   C21436600   2.900   5.457   5.314 -0.1435  0.6109 -0.0602
  114MOL   C21536601   2.772   5.408   5.370 -0.6064  0.0340  0.4165
  114MOL   C21636602   3.023   5.411   5.354  0.2369 -0.3951 -0.0413
  114MOL   C21736603   3.140   5.450   5.289 -0.4644  0.2806 -0.1814
  114MOL   H21836604   3.251   5.698   5.079 -0.0623 -0.2716  0.0088
  114MOL   H21936605   3.345   5.619   5.205  1.1898 -1.9487 -0.7703
  114MOL   H22036606   3.004   5.690   5.092 -1.9877 -0.3860  1.2139
  114MOL   H22136607   2.798   5.597   5.183 -0.4316  2.0190  2.4962
  114MOL   H22236608   2.788   5.349   5.460 -2.9420 -1.0337  0.1763
  114MOL   H22336609   2.703   5.490   5.392  1.2323  1.4143  1.1938
  114MOL   H22436610   3.032   5.333   5.428  3.2548  0.6569  0.7896
  114MOL   H22536611   3.235   5.413   5.323 -0.9202 -2.2323 -1.5163
  114MOL   C22636612   2.695   5.322   5.269  0.5733  0.6958 -0.1948
  114MOL   C22736613   2.550   5.290   5.304  0.0031  0.2702  0.2516
  114MOL   C22836614   2.512   5.161   5.342  0.2898  0.0292  0.0535
  114MOL   C22936615   2.374   5.127   5.355  0.6630 -0.2186  0.0031
  114MOL   C23036616   2.274   5.227   5.336  0.0902 -0.3325 -0.0408
  114MOL   C23136617   2.123   5.195   5.366 -0.4590 -0.1920  0.1609
  114MOL   C23236618   2.313   5.358   5.309 -0.1806 -0.0746 -0.1012
  114MOL   C23336619   2.452   5.391   5.287  0.5811  0.3118 -0.6666
  114MOL   H23436620   2.745   5.227   5.249 -0.8011 -0.4814  1.7847
  114MOL   H23536621   2.692   5.385   5.180  2.0436  1.6148  0.3956
  114MOL   H23636622   2.585   5.083   5.361  0.6093 -0.2317 -2.0858
  114MOL   H23736623   2.361   5.022   5.378  1.5628 -0.4336 -0.4323
  114MOL   H23836624   2.120   5.123   5.448 -1.4219  0.7942  1.0045
  114MOL   H23936625   2.082   5.287   5.409  0.9286 -0.1057  1.3155
  114MOL   H24036626   2.244   5.439   5.293  1.7000  2.0147  2.0213
  114MOL   H24136627   2.485   5.484   5.242  1.1961  0.5239  0.2309
  114MOL   C24236628   2.047   5.148   5.248 -0.0863  0.8316  0.0782
  114MOL   C24336629   1.894   5.138   5.281 -0.0552  0.4155 -0.3976
  114MOL   C24436630   1.809   5.083   5.187 -0.0692 -0.7078 -0.5638
  114MOL   C24536631   1.673   5.084   5.203  0.2932 -0.3010 -0.0658
  114MOL   C24636632   1.619   5.136   5.324 -0.3692 -1.1122  0.2673
  114MOL   C24736633   1.473   5.161   5.339 -0.4726  0.0387  0.0568
  114MOL   C24836634   1.703   5.169   5.432  0.7214  0.2579 -0.2901
  114MOL   C24936635   1.841   5.168   5.409 -0.4509  1.0222 -0.1129
  114MOL   H25036636   2.065   5.209   5.159  0.3372  0.5212 -0.0465
  114MOL   H25136637   2.079   5.048   5.222 -0.6391  0.9696 -1.1893
  114MOL   H25236638   1.849   5.045   5.095 -2.0327 -1.0034 -1.3250
  114MOL   H25336639   1.612   5.051   5.120  1.1635  0.9749 -1.2346
  114MOL   H25436640   1.449   5.239   5.412  0.0265 -0.5441  0.8548
  114MOL   H25536641   1.446   5.192   5.238  4.6985 -0.8792 -1.7278
  114MOL   H25636642   1.655   5.204   5.522  0.7475  1.6264 -0.7992
  114MOL   H25736643   1.908   5.199   5.488 -0.4939  1.5182 -0.2717
  114MOL   C25836644   1.390   5.032   5.362  0.0006 -0.5626 -0.1298
  114MOL   C25936645   1.241   5.053   5.405 -0.0155  0.6197  1.1949
  114MOL   C26036646   1.183   4.979   5.506  0.3848  0.3305 -0.3668
  114MOL   C26136647   1.050   5.005   5.551  0.2835 -0.0115 -0.0022
  114MOL   C26236648   0.968   5.094   5.478  1.0855  0.3283  0.1203
  114MOL   C26336649   0.820   5.117   5.518  0.1072 -0.1542 -0.3149
  114MOL   C26436650   1.027   5.159   5.372 -0.1190  0.6791  0.0649
  114MOL   C26536651   1.161   5.149   5.340 -0.2849 -0.0162  0.3797
  114MOL   H26636652   1.439   4.975   5.441 -1.0280 -1.8428 -0.3986
  114MOL   H26736653   1.384   4.972   5.272 -1.0179  0.5570 -0.8183
  114MOL   H26836654   1.242   4.905   5.559  2.6195  1.3176 -1.4088
  114MOL   H26936655   1.005   4.936   5.621 -0.4571 -1.9206 -2.2988
  114MOL   H27036656   0.820   5.209   5.577 -1.4184 -0.0193 -0.4913
  114MOL   H27136657   0.764   5.134   5.426 -0.7009 -1.1429 -0.0128
  114MOL   H27236658   0.968   5.230   5.315 -0.5541  0.6618  0.4922
  114MOL   H27336659   1.203   5.196   5.252  1.4146  0.5231  1.4659
  114MOL   C27436660   0.739   4.999   5.580 -0.2918 -0.4080  0.0490
  114MOL   C27536661   0.591   5.031   5.586  0.2503 -0.3992 -0.0244
  114MOL   C27636662   0.498   5.003   5.489 -0.7897  0.8253  0.2805
  114MOL   C27736663   0.360   5.029   5.500  0.4899  0.3296  0.0214
  114MOL   C27836664   0.310   5.098   5.609  0.0784  1.0026 -0.4602
  114MOL   C27936665   0.164   5.152   5.605  0.4377 -0.5353  0.1984
  114MOL   C28036666   0.406   5.123   5.716  0.6093 -0.9038 -0.3117
  114MOL   C28136667   0.543   5.098   5.703 -0.0131 -0.2249  0.0049
  114MOL   H28236668   0.756   4.909   5.521 -0.0742  0.6481 -1.5609
  114MOL   H28336669   0.771   4.967   5.679 -0.1144 -1.9835 -0.5044
  114MOL   H28436670   0.532   4.957   5.397 -1.0184  0.9111  0.1527
  114MOL   H28536671   0.292   5.014   5.417  2.7309 -1.7487 -1.5249
  114MOL   H28636672   0.157   5.253   5.646  0.4702  0.4368 -2.1063
  114MOL   H28736673   0.127   5.160   5.502 -0.3497 -0.9900  0.4387
  114MOL   H28836674   0.370   5.167   5.808  0.6722 -0.4277 -0.5161
  114MOL   H28936675   0.613   5.129   5.779  0.0781 -0.8597  0.1831
  114MOL   C29036676   0.068   5.063   5.690  0.3645  0.2221 -0.4908
  114MOL   C29136677  -0.077   5.095   5.685  0.2350  0.0229  0.3255
  114MOL   C29236678  -0.141   5.157   5.801  0.0112 -0.5676  0.3898
  114MOL   C29336679  -0.275   5.193   5.791 -0.7199 -0.6310  0.0326
  114MOL   C29436680  -0.342   5.169   5.668 -0.7667  0.4082 -0.0687
  114MOL   C29536681  -0.490   5.193   5.659  0.1382  0.2027  0.3924
  114MOL   C29636682  -0.271   5.114   5.560  0.6917  0.3358  0.4628
  114MOL   C29736683  -0.140   5.067   5.565 -0.3495  0.1720  0.3712
  114MOL   H29836684   0.099   5.051   5.794  0.0711 -2.0890 -0.6488
  114MOL   H29936685   0.071   4.958   5.663 -0.9630 -0.2708  1.1562
  114MOL   H30036686  -0.093   5.176   5.896  1.4461  1.9063 -0.7745
  114MOL   H30136687  -0.323   5.239   5.876  1.4235  1.1415  0.3112
  114MOL   H30236688  -0.515   5.299   5.664  0.4490  0.2991 -0.0531
  114MOL   H30336689  -0.526   5.151   5.565 -1.0927 -1.7746  1.7102
  114MOL   H30436690  -0.312   5.082   5.465  0.1283  0.8515  0.5275
  114MOL   H30536691  -0.078   5.020   5.489 -0.5325  0.8808 -0.2222
  114MOL   C30636692  -0.576   5.124   5.768 -0.3022  0.3065 -0.3885
  114MOL   C30736693  -0.719   5.157   5.774  0.0945 -0.0038 -0.1579
  114MOL   C30836694  -0.760   5.208   5.901  0.0125 -0.3904 -0.0889
  114MOL   C30936695  -0.897   5.229   5.927 -0.0051  0.2651  0.2266
  114MOL   C31036696  -0.989   5.206   5.824  0.0667  0.5304 -0.2596
  114MOL   C31136697  -1.139   5.224   5.851 -1.1046  0.2918  0.4213
  114MOL   C31236698  -0.946   5.159   5.697 -0.1274 -0.4148  0.1784
  114MOL   C31336699  -0.815   5.142   5.669 -0.7325  0.5697  0.7065
  114MOL   H31436700  -0.541   5.131   5.871 -1.7855 -0.0909  0.1466
  114MOL   H31536701  -0.581   5.017   5.747  1.4910 -0.0440  0.7886
  114MOL   H31636702  -0.694   5.209   5.987 -1.8203 -1.2776  1.3669
  114MOL   H31736703  -0.941   5.271   6.016 -0.1562  0.5528  0.0211
  114MOL   H31836704  -1.185   5.125   5.850  0.0156 -0.2664  1.4666
  114MOL   H31936705  -1.170   5.278   5.940 -0.9513  0.5319  0.3279
  114MOL   H32036706  -1.010   5.140   5.612 -0.1042  1.3920 -0.2635
  114MOL   H32136707  -0.788   5.107   5.571  0.0826  0.2950  1.0267
  114MOL   H32236708  -1.158   5.283   5.761  1.3044  0.5486  0.0204
  115MOL     C136709   0.169   5.457   1.429 -0.1653 -0.3745  0.0609
  115MOL     C236710   0.081   5.573   1.433  0.6645 -0.1864 -0.3005
  115MOL     C336711  -0.048   5.566   1.381  0.3625 -0.1951  0.7221
  115MOL     C436712  -0.134   5.678   1.381  0.5233  0.4144 -0.0567
  115MOL     C536713  -0.092   5.804   1.425  0.4263  0.5637 -0.0225
  115MOL     C636714  -0.191   5.923   1.416 -0.3981 -0.7969  0.4479
  115MOL     C736715   0.036   5.814   1.476 -1.0218 -0.3486  0.3788
  115MOL     C836716   0.124   5.700   1.483 -0.7097 -0.2105  0.0438
  115MOL     H936717   0.194   5.436   1.325 -0.4627  1.5587 -0.4233
  115MOL    H1036718   0.267   5.482   1.470  0.2330 -1.3866 -0.2795
  115MOL    H1136719  -0.084   5.473   1.339  0.3352  0.4568 -0.7299
  115MOL    H1236720  -0.232   5.659   1.342  1.7329 -1.7388 -2.1731
  115MOL    H1336721  -0.145   6.020   1.434 -1.6068 -0.2907  0.8813
  115MOL    H1436722  -0.236   5.932   1.317  0.6674  1.0838  0.1114
  115MOL    H1536723   0.085   5.908   1.495  1.3502 -1.6658  0.9834
  115MOL    H1636724   0.225   5.711   1.520  0.3001 -0.0695 -2.6010
  115MOL    H1736725   0.135   5.363   1.470  2.8411 -1.7885 -0.5493
  115MOL    C1836726  -0.300   5.915   1.525  0.2733 -0.3413  0.5893
  115MOL    C1936727  -0.407   6.019   1.527 -0.0074  0.2440  0.4437
  115MOL    C2036728  -0.394   6.137   1.604  0.2357 -0.2277  0.1165
  115MOL    C2136729  -0.499   6.233   1.609  0.4101  0.0954 -0.3586
  115MOL    C2236730  -0.612   6.211   1.530  0.3001 -0.3545 -0.5359
  115MOL    C2336731  -0.731   6.302   1.539  0.7572  0.1060  0.5371
  115MOL    C2436732  -0.619   6.094   1.448  0.2434 -0.3401 -0.3800
  115MOL    C2536733  -0.517   6.000   1.441  0.3271  0.8457 -0.4448
  115MOL    H2636734  -0.349   5.818   1.521  0.0863 -0.1889 -0.9283
  115MOL    H2736735  -0.248   5.917   1.621  0.9634  0.0180  0.2091
  115MOL    H2836736  -0.314   6.152   1.676 -0.2199 -1.8597  1.0104
  115MOL    H2936737  -0.483   6.313   1.679  1.8136 -1.1500  0.7870
  115MOL    H3036738  -0.761   6.312   1.435  0.9121 -0.3245  0.4530
  115MOL    H3136739  -0.690   6.400   1.566  1.1867  0.2599 -0.6284
  115MOL    H3236740  -0.710   6.068   1.395 -0.5264  1.4040  0.0653
  115MOL    H3336741  -0.527   5.910   1.383  3.2910 -0.1647  0.4782
  115MOL    C3436742  -0.840   6.266   1.641 -0.1030 -0.5832  0.4116
  115MOL    C3536743  -0.957   6.370   1.636 -0.3894  0.1676  0.6464
  115MOL    C3636744  -1.026   6.393   1.520  0.0724  0.0449  0.4717
  115MOL    C3736745  -1.135   6.482   1.512  0.9071 -0.2761  0.2280
  115MOL    C3836746  -1.179   6.545   1.633  0.0492 -0.2210  1.3171
  115MOL    C3936747  -1.305   6.636   1.635  0.8237 -0.1904 -0.0494
  115MOL    C4036748  -1.116   6.512   1.754  0.3412  0.0410  0.2477
  115MOL    C4136749  -1.009   6.422   1.764 -0.1769 -0.4013 -0.5796
  115MOL    H4236750  -0.790   6.263   1.738  0.0994  0.3473  0.3379
  115MOL    H4336751  -0.877   6.166   1.620 -1.0134  0.0216 -0.9247
  115MOL    H4436752  -1.010   6.331   1.433 -0.4392 -0.2575  0.5915
  115MOL    H4536753  -1.189   6.476   1.419 -0.2815 -1.2602  0.9785
  115MOL    H4636754  -1.301   6.720   1.704 -1.1214 -0.0277 -0.1166
  115MOL    H4736755  -1.313   6.681   1.537  0.2738  1.1051  0.5727
  115MOL    H4836756  -1.139   6.566   1.845  0.1032 -1.7475  1.2956
  115MOL    H4936757  -0.961   6.397   1.858  1.4907  3.0433 -0.4196
  115MOL    C5036758  -1.428   6.563   1.685 -0.2732 -0.2621 -0.3675
  115MOL    C5136759  -1.544   6.670   1.697 -0.4243  1.0794 -0.3640
  115MOL    C5236760  -1.596   6.714   1.816  0.1636 -0.4106  0.6030
  115MOL    C5336761  -1.712   6.796   1.825  0.4827 -0.2313 -0.4110
  115MOL    C5436762  -1.782   6.834   1.704 -0.3839 -0.5395 -0.2126
  115MOL    C5536763  -1.895   6.930   1.706 -0.3432  0.1468  0.5220
  115MOL    C5636764  -1.729   6.784   1.579 -0.0453  0.1864  0.2173
  115MOL    C5736765  -1.616   6.694   1.580 -0.3414  0.2772  0.0243
  115MOL    H5836766  -1.427   6.547   1.793  1.2372  3.0264  0.1825
  115MOL    H5936767  -1.444   6.465   1.641 -0.6930 -1.2037  1.8320
  115MOL    H6036768  -1.543   6.679   1.904  0.2401  0.9785  1.1210
  115MOL    H6136769  -1.757   6.831   1.917 -0.9124  0.1914 -1.2422
  115MOL    H6236770  -1.858   7.030   1.729  0.8309 -0.5707  1.7995
  115MOL    H6336771  -1.938   6.944   1.606  0.0610  0.6250  0.4109
  115MOL    H6436772  -1.778   6.804   1.484 -1.3278 -2.8911  0.1681
  115MOL    H6536773  -1.578   6.650   1.489  1.6633  0.7959  0.5796
  115MOL    C6636774  -2.012   6.899   1.799 -0.1639  0.1745  0.2021
  115MOL    C6736775  -2.128   6.995   1.783  0.3532  0.1129 -0.7373
  115MOL    C6836776  -2.205   7.026   1.894 -0.1947 -0.7920  0.1952
  115MOL    C6936777  -2.318   7.106   1.884  0.2926 -0.0389  0.6937
  115MOL    C7036778  -2.354   7.167   1.763  0.6831  0.1850  0.3106
  115MOL    C7136779  -2.478   7.259   1.753  0.1141 -0.4484 -0.1918
  115MOL    C7236780  -2.287   7.123   1.647  0.9995  0.1689  0.1970
  115MOL    C7336781  -2.172   7.040   1.656  0.2575  0.1949 -0.5726
  115MOL    H7436782  -1.974   6.914   1.900 -1.1817 -0.8553  0.7543
  115MOL    H7536783  -2.038   6.796   1.775 -2.9619  1.2029 -1.4032
  115MOL    H7636784  -2.159   6.999   1.988 -0.5404 -0.8999  0.3323
  115MOL    H7736785  -2.365   7.145   1.973 -1.0105 -2.1614  0.9706
  115MOL    H7836786  -2.483   7.326   1.667  0.9132  0.8771  0.7806
  115MOL    H7936787  -2.466   7.326   1.838  1.0474 -0.7795 -0.0584
  115MOL    H8036788  -2.321   7.153   1.549 -3.7665  3.9928  2.7910
  115MOL    H8136789  -2.114   7.005   1.572  0.1065  0.7490 -0.9064
  115MOL    C8236790  -2.611   7.173   1.770  0.2898 -0.4627 -0.1376
  115MOL    C8336791  -2.747   7.247   1.765 -0.2814 -0.5645  0.2066
  115MOL    C8436792  -2.839   7.240   1.658  0.4257  0.6569 -0.4861
  115MOL    C8536793  -2.955   7.319   1.653  0.0347  0.3980 -0.2996
  115MOL    C8636794  -2.980   7.417   1.750  0.5920  0.0483 -0.2284
  115MOL    C8736795  -3.099   7.513   1.744  0.2606 -0.0372  1.3167
  115MOL    C8836796  -2.891   7.424   1.864  0.0103 -0.0173 -0.7814
  115MOL    C8936797  -2.773   7.348   1.862  0.4714  1.3797 -0.2251
  115MOL    H9036798  -2.602   7.141   1.873 -0.7313  2.4293  0.9151
  115MOL    H9136799  -2.606   7.092   1.697  0.3101  0.5639 -1.2939
  115MOL    H9236800  -2.820   7.175   1.574  1.2966 -0.6913  0.7276
  115MOL    H9336801  -3.022   7.304   1.569 -0.6502 -0.9645  0.4699
  115MOL    H9436802  -3.059   7.604   1.699 -2.8645  0.2611 -1.0361
  115MOL    H9536803  -3.121   7.543   1.846  1.1978 -0.6520  1.7089
  115MOL    H9636804  -2.900   7.493   1.946 -0.6215 -2.3289  1.1545
  115MOL    H9736805  -2.705   7.360   1.945  0.5129 -0.4679  0.0196
  115MOL    C9836806  -3.215   7.457   1.658  0.4989  0.2187  0.0105
  115MOL    C9936807  -3.337   7.536   1.690  0.0783  0.4043 -0.0168
  115MOL   C10036808  -3.420   7.490   1.796  0.0757  0.8716  0.8949
  115MOL   C10136809  -3.538   7.558   1.835 -0.0315  0.2909  0.1534
  115MOL   C10236810  -3.582   7.661   1.751 -0.2409 -0.3456 -0.6890
  115MOL   C10336811  -3.713   7.729   1.783  0.0834 -0.1956 -0.2241
  115MOL   C10436812  -3.504   7.707   1.643 -0.4159  0.3152 -0.9708
  115MOL   C10536813  -3.380   7.645   1.611 -0.7103  1.1780 -0.0408
  115MOL   H10636814  -3.229   7.354   1.691 -0.6944  0.6823  1.0029
  115MOL   H10736815  -3.191   7.463   1.552  2.5968 -0.4258  0.4103
  115MOL   H10836816  -3.390   7.402   1.851 -0.8613 -0.7419 -1.0744
  115MOL   H10936817  -3.590   7.521   1.922  0.9623  0.2176  0.7270
  115MOL   H11036818  -3.712   7.736   1.892 -0.1394 -0.5882 -0.1972
  115MOL   H11136819  -3.702   7.834   1.754 -0.8792  0.3396  1.2691
  115MOL   H11236820  -3.537   7.791   1.584 -1.7809 -0.0861 -0.7981
  115MOL   H11336821  -3.320   7.689   1.533  1.3371  1.2005  1.4960
  115MOL   C11436822  -3.843   7.674   1.719 -0.4928  0.0253  0.9524
  115MOL   C11536823  -3.963   7.762   1.742 -0.3691 -0.7311 -0.2217
  115MOL   C11636824  -4.000   7.847   1.637 -0.3397  0.0689 -0.7749
  115MOL   C11736825  -4.123   7.921   1.659  0.2304  0.9560  0.0724
  115MOL   C11836826  -4.197   7.911   1.780 -0.1743  0.1787 -0.0633
  115MOL   C11936827  -4.328   7.985   1.789  0.9660 -0.5743 -0.5259
  115MOL   C12036828  -4.148   7.829   1.884  0.0154 -0.2204  0.3643
  115MOL   C12136829  -4.039   7.746   1.856 -0.4545  0.3834  0.1916
  115MOL   H12236830  -3.851   7.569   1.747 -1.3435  0.0241  0.7144
  115MOL   H12336831  -3.830   7.674   1.611 -2.0334 -1.3069  0.7491
  115MOL   H12436832  -3.942   7.849   1.546  1.3536 -1.5872  0.2376
  115MOL   H12536833  -4.166   7.979   1.578 -0.9659  0.6168  0.4466
  115MOL   H12636834  -4.340   8.010   1.895 -0.2086 -0.8507 -0.5897
  115MOL   H12736835  -4.323   8.071   1.723  3.7690 -0.7241 -0.5626
  115MOL   H12836836  -4.205   7.816   1.975  0.2920 -0.3347  0.5229
  115MOL   H12936837  -4.006   7.679   1.934 -1.7709  0.0358  0.4714
  115MOL   C13036838  -4.447   7.897   1.768 -0.4778  0.0290  0.5348
  115MOL   C13136839  -4.587   7.965   1.773 -0.3332 -0.6990 -0.6629
  115MOL   C13236840  -4.635   8.025   1.654  0.4610  0.9891 -1.0633
  115MOL   C13336841  -4.747   8.107   1.668  0.1431  0.3015  0.1579
  115MOL   C13436842  -4.818   8.116   1.791 -0.2566  0.5268 -0.2997
  115MOL   C13536843  -4.952   8.196   1.796 -0.5555 -0.1619 -0.1887
  115MOL   C13636844  -4.775   8.049   1.907  0.1090  0.4026  0.0337
  115MOL   C13736845  -4.658   7.972   1.896  0.2581 -0.4123  0.3389
  115MOL   H13836846  -4.449   7.804   1.826  3.1790 -1.4084 -1.4705
  115MOL   H13936847  -4.440   7.846   1.672 -0.1345 -1.8191  1.5034
  115MOL   H14036848  -4.573   8.024   1.566 -0.5333 -0.1082 -1.7672
  115MOL   H14136849  -4.780   8.163   1.582 -0.7218 -1.1923 -0.4980
  115MOL   H14236850  -4.976   8.240   1.893  1.5882 -1.4373  0.9389
  115MOL   H14336851  -4.937   8.276   1.724 -0.3765  0.8659  0.9673
  115MOL   H14436852  -4.822   8.058   2.004  0.2691  0.7026  0.0851
  115MOL   H14536853  -4.617   7.926   1.985  1.2101  0.6022  0.4294
  115MOL   C14636854  -5.081   8.120   1.759 -0.4727 -0.1180 -0.0477
  115MOL   C14736855  -5.204   8.197   1.778  0.1406  0.6182 -0.6207
  115MOL   C14836856  -5.253   8.281   1.674 -0.4971  0.1433  0.8144
  115MOL   C14936857  -5.370   8.359   1.693 -0.7016 -0.5368  0.3525
  115MOL   C15036858  -5.432   8.362   1.815  0.1723  0.0391  0.0396
  115MOL   C15136859  -5.556   8.443   1.835  0.2783 -0.6396 -0.2136
  115MOL   C15236860  -5.382   8.283   1.923  0.2754 -0.3797  0.5757
  115MOL   C15336861  -5.271   8.197   1.901  0.2255  0.1477 -0.2136
  115MOL   H15436862  -5.088   8.022   1.806  0.8631  0.2656  0.9530
  115MOL   H15536863  -5.076   8.099   1.652  0.1085  1.6587 -0.3793
  115MOL   H15636864  -5.209   8.278   1.575 -2.4907  2.0522 -0.1739
  115MOL   H15736865  -5.410   8.404   1.603 -1.9298 -0.8441  0.7440
  115MOL   H15836866  -5.537   8.508   1.921  3.9409 -0.7778 -0.8120
  115MOL   H15936867  -5.564   8.504   1.745  0.8278  0.6821  0.6039
  115MOL   H16036868  -5.446   8.271   2.009 -0.6419 -1.9486 -0.2942
  115MOL   H16136869  -5.234   8.135   1.981  1.7251  1.4876  0.1764
  115MOL   C16236870  -5.672   8.354   1.875 -0.5637  0.1815  0.0356
  115MOL   C16336871  -5.796   8.433   1.883 -0.6747  0.6940 -0.3845
  115MOL   C16436872  -5.861   8.471   2.003  0.5431 -0.1570  0.6933
  115MOL   C16536873  -5.969   8.560   2.005  0.2254  0.1097  0.3825
  115MOL   C16636874  -6.027   8.603   1.884 -0.4137  0.2899 -0.3224
  115MOL   C16736875  -6.150   8.693   1.890 -0.5454  0.5858 -0.0130
  115MOL   C16836876  -5.971   8.559   1.762 -0.0097 -0.5775 -0.3136
  115MOL   C16936877  -5.853   8.481   1.762  0.0530 -0.1279 -0.0867
  115MOL   H17036878  -5.663   8.307   1.973 -1.9286  0.5829  0.3704
  115MOL   H17136879  -5.684   8.280   1.797  2.1876 -1.5937  1.2490
  115MOL   H17236880  -5.835   8.427   2.098  2.5060  0.9094  0.6797
  115MOL   H17336881  -6.028   8.599   2.087 -1.3464  0.9186 -1.0929
  115MOL   H17436882  -6.122   8.775   1.955  2.4448 -0.1046 -0.3012
  115MOL   H17536883  -6.160   8.731   1.788  0.5048 -1.3403 -0.8872
  115MOL   H17636884  -6.008   8.589   1.665  1.7596 -2.2580 -1.5435
  115MOL   H17736885  -5.817   8.450   1.665  2.6766 -0.2756  0.9029
  115MOL   C17836886  -6.276   8.616   1.938  0.0757 -0.0632  0.3363
  115MOL   C17936887  -6.406   8.692   1.948 -0.0717 -0.5336  0.1350
  115MOL   C18036888  -6.460   8.733   2.072  0.7162 -0.0800 -0.1904
  115MOL   C18136889  -6.585   8.798   2.085  0.0985  0.0652  0.0712
  115MOL   C18236890  -6.667   8.808   1.967  0.1816 -0.2696  0.0166
  115MOL   C18336891  -6.803   8.874   1.984  0.3011  0.3743  0.3121
  115MOL   C18436892  -6.621   8.748   1.843 -0.4017  0.0447 -0.2214
  115MOL   C18536893  -6.484   8.705   1.828  0.1068 -0.0880 -0.6697
  115MOL   H18636894  -6.257   8.577   2.038  1.4065  0.9520  0.4932
  115MOL   H18736895  -6.300   8.534   1.871 -0.5015  0.2113  0.2048
  115MOL   H18836896  -6.411   8.721   2.167 -0.4875 -2.3036  0.1888
  115MOL   H18936897  -6.617   8.829   2.183  2.8180  0.0405  1.0034
  115MOL   H19036898  -6.856   8.840   1.895  2.0557  0.3139 -0.7466
  115MOL   H19136899  -6.855   8.815   2.060  1.0885  1.6790  1.8918
  115MOL   H19236900  -6.680   8.755   1.753 -0.3196  1.0394 -0.2083
  115MOL   H19336901  -6.438   8.663   1.740  1.3331  1.6900 -0.9083
  115MOL   C19436902  -6.812   9.025   1.986 -0.3049 -0.1107 -0.2385
  115MOL   C19536903  -6.953   9.072   1.958 -0.3268  0.1569 -0.2898
  115MOL   C19636904  -6.978   9.129   1.835  0.8839  0.3161  0.2878
  115MOL   C19736905  -7.109   9.177   1.805 -0.8902  0.0895  0.2349
  115MOL   C19836906  -7.210   9.165   1.901  0.8792  0.8000  0.2576
  115MOL   C19936907  -7.356   9.207   1.870 -0.1583 -0.2149 -0.2589
  115MOL   C20036908  -7.182   9.112   2.028  0.0825  0.6225  0.1918
  115MOL   C20136909  -7.051   9.065   2.055 -0.0139 -0.5849 -0.2659
  115MOL   H20236910  -6.752   9.070   1.906 -1.6280 -0.6027 -1.5297
  115MOL   H20336911  -6.771   9.053   2.083 -0.1701 -2.2807  0.3556
  115MOL   H20436912  -6.900   9.142   1.762 -0.4606  1.6841 -0.9276
  115MOL   H20536913  -7.133   9.213   1.706  1.0422 -0.1188 -0.3251
  115MOL   H20636914  -7.355   9.293   1.804  1.2547 -1.4124 -1.8145
  115MOL   H20736915  -7.395   9.133   1.801 -1.6047 -1.2972  1.6719
  115MOL   H20836916  -7.255   9.078   2.100  1.3309 -2.1256  0.2368
  115MOL   H20936917  -7.038   9.020   2.152  1.6844 -1.0192 -0.6777
  115MOL   C21036918  -7.445   9.209   1.988  0.4916  0.3024 -0.1939
  115MOL   C21136919  -7.584   9.265   1.958  0.2945  0.0584  0.9145
  115MOL   C21236920  -7.688   9.221   2.043  0.1350  0.1414  0.3489
  115MOL   C21336921  -7.822   9.276   2.036 -0.2514 -0.0253  0.2700
  115MOL   C21436922  -7.850   9.381   1.946  0.2818  0.2358 -0.0565
  115MOL   C21536923  -7.989   9.439   1.930  0.1615  0.1988  0.4405
  115MOL   C21636924  -7.750   9.422   1.854 -0.0846 -0.4304 -0.3792
  115MOL   C21736925  -7.618   9.367   1.866  0.3849 -0.1266 -0.3243
  115MOL   H21836926  -7.394   9.263   2.068  3.5146 -1.1446 -1.0480
  115MOL   H21936927  -7.452   9.104   2.017 -1.7773  0.5700  0.2611
  115MOL   H22036928  -7.662   9.159   2.128 -1.4228 -0.1926  0.6029
  115MOL   H22136929  -7.901   9.247   2.103 -0.1775  1.4944  1.0416
  115MOL   H22236930  -8.030   9.457   2.029 -2.5951 -0.1010 -0.5871
  115MOL   H22336931  -7.977   9.539   1.889  0.6570 -0.8909 -2.1844
  115MOL   H22436932  -7.767   9.508   1.792 -2.9745 -0.7025 -0.0365
  115MOL   H22536933  -7.543   9.403   1.798 -0.8711  1.1282 -1.0827
  115MOL   C22636934  -8.099   9.371   1.851 -0.2124  0.8693  0.1862
  115MOL   C22736935  -8.241   9.435   1.853  0.2697 -0.3508  0.0247
  115MOL   C22836936  -8.275   9.541   1.944 -0.5981  0.3744 -0.0107
  115MOL   C22936937  -8.401   9.602   1.935  1.0105 -0.5101 -0.8413
  115MOL   C23036938  -8.497   9.543   1.849 -0.0617  0.0083 -0.0726
  115MOL   C23136939  -8.633   9.594   1.836 -0.1304 -0.2508  0.2795
  115MOL   C23236940  -8.463   9.425   1.775 -0.1630  0.1920  1.0850
  115MOL   C23336941  -8.335   9.372   1.776  0.1596 -0.2691 -0.0250
  115MOL   H23436942  -8.114   9.269   1.888 -0.1142  1.0517  0.7282
  115MOL   H23536943  -8.067   9.359   1.747 -1.0026  1.1358 -0.0899
  115MOL   H23636944  -8.189   9.585   1.992 -0.2321  0.2624 -0.5537
  115MOL   H23736945  -8.424   9.680   2.006  3.3057 -1.1871  0.6952
  115MOL   H23836946  -8.684   9.552   1.749  0.1274 -1.7500  0.8379
  115MOL   H23936947  -8.694   9.544   1.911  0.8569 -1.2365  0.4460
  115MOL   H24036948  -8.542   9.384   1.715 -0.6715  1.5879  0.7869
  115MOL   H24136949  -8.315   9.285   1.714 -2.9882 -0.1141 -1.3732
  115MOL   C24236950  -8.639   9.747   1.839 -0.5472  0.7358 -0.3607
  115MOL   C24336951  -8.782   9.802   1.842  0.5834 -0.1372  0.1968
  115MOL   C24436952  -8.854   9.850   1.731  0.2655 -0.0407 -0.5609
  115MOL   C24536953  -8.993   9.877   1.740 -0.1794 -0.0883 -0.1828
  115MOL   C24636954  -9.056   9.878   1.866 -0.3092  0.6773  0.0822
  115MOL   C24736955  -9.196   9.907   1.887 -0.1770  0.3803 -0.0682
  115MOL   C24836956  -8.985   9.844   1.986 -0.6428  0.2836  0.0815
  115MOL   C24936957  -8.851   9.798   1.969  0.3363 -0.2833 -0.7140
  115MOL   H25036958  -8.595   9.781   1.933  1.3056 -0.6138 -0.7094
  115MOL   H25136959  -8.589   9.796   1.756  1.7753 -2.6267 -1.0332
  115MOL   H25236960  -8.792   9.827   1.646 -0.0780 -0.8700 -0.5832
  115MOL   H25336961  -9.051   9.889   1.650  0.3528 -0.9251 -0.6430
  115MOL   H25436962  -9.244   9.876   1.794  1.7577  1.0319 -1.3321
  115MOL   H25536963  -9.223   9.850   1.976  1.6625  0.3961  0.5315
  115MOL   H25636964  -9.045   9.858   2.074 -0.9577  0.3459 -0.1412
  115MOL   H25736965  -8.802   9.756   2.056  0.8626  0.3761 -0.6923
  115MOL   C25836966  -9.222  10.057   1.914  0.4026  0.0085 -0.3984
  115MOL   C25936967  -9.368  10.099   1.939 -0.0265 -0.2121 -0.9298
  115MOL   C26036968  -9.431  10.077   2.065 -0.2631 -0.2893  0.2069
  115MOL   C26136969  -9.563  10.128   2.092 -0.1328  0.3355  0.0684
  115MOL   C26236970  -9.631  10.204   1.994 -0.7586 -0.1397 -0.0100
  115MOL   C26336971  -9.768  10.256   2.020  0.0021  0.3294 -0.5240
  115MOL   C26436972  -9.569  10.213   1.870 -0.4567 -1.1671 -0.4679
  115MOL   C26536973  -9.444  10.161   1.842 -0.0062 -0.2964  0.8332
  115MOL   H26636974  -9.180  10.115   1.832  0.2879  2.0357  0.9629
  115MOL   H26736975  -9.167  10.093   2.000  0.0167  0.6185 -0.4081
  115MOL   H26836976  -9.391  10.016   2.145 -0.4348  0.3115  0.7554
  115MOL   H26936977  -9.604  10.107   2.190  0.8296 -1.7473  0.0399
  115MOL   H27036978  -9.751  10.314   2.111 -2.2431 -1.0734  0.8061
  115MOL   H27136979  -9.795  10.338   1.954 -0.5415  1.4836  1.1151
  115MOL   H27236980  -9.606  10.271   1.787  0.3782 -1.4649 -1.0464
  115MOL   H27336981  -9.393  10.187   1.750  0.1303  0.9466  1.2513
  115MOL   C27436982  -9.886  10.158   2.043 -0.1495 -0.1770 -0.0579
  115MOL   C27536983 -10.023  10.219   2.076  0.2655  0.3026 -0.4379
  115MOL   C27636984 -10.139  10.162   2.010 -0.1856 -0.2304 -0.5675
  115MOL   C27736985 -10.267  10.207   2.034 -0.5747  0.4282 -0.0856
  115MOL   C27836986 -10.290  10.297   2.140 -0.4252  0.4960  0.9726
  115MOL   C27936987 -10.432  10.337   2.177  0.1268 -0.7316  0.1388
  115MOL   C28036988 -10.176  10.344   2.212  0.2035 -0.0246 -0.1626
  115MOL   C28136989 -10.044  10.319   2.175  0.4732  0.3785 -0.1415
  115MOL   H28236990  -9.895  10.087   1.961 -0.2953 -0.6710  0.3790
  115MOL   H28336991  -9.864  10.093   2.128  0.0502 -0.3853 -0.2683
  115MOL   H28436992 -10.130  10.089   1.931  0.0227  0.5816 -1.3134
  115MOL   H28536993 -10.349  10.161   1.981 -0.1359  0.6412 -0.9706
  115MOL   H28636994 -10.450  10.274   2.264  1.2815  1.0956  1.7349
  115MOL   H28736995 -10.425  10.441   2.209 -1.5921 -0.4432 -0.3536
  115MOL   H28836996 -10.193  10.414   2.293  0.2085  0.0227 -0.2025
  115MOL   H28936997  -9.974  10.381   2.228  0.4879  1.6824 -1.6424
  115MOL   C29036998 -10.551  10.328   2.078  0.4743  0.5777  0.1575
  115MOL   C29136999 -10.673  10.401   2.129 -0.1058  0.7361 -0.5105
  115MOL   C29237000 -10.783  10.330   2.187 -0.5275 -0.6077 -0.7854
  115MOL   C29337001 -10.901  10.399   2.230 -0.0487  0.4246 -0.0399
  115MOL   C29437002 -10.920  10.537   2.214  0.5181 -0.1328 -0.0702
  115MOL   C29537003 -11.054  10.602   2.257  0.0776  0.2938  0.2236
  115MOL   C29637004 -10.814  10.610   2.155 -0.3893 -0.2381 -0.3578
  115MOL   C29737005 -10.694  10.539   2.119 -0.1519  0.9151 -0.1223
  115MOL   H29837006 -10.576  10.224   2.056  0.5560  0.6574 -0.3259
  115MOL   H29937007 -10.520  10.381   1.988  2.3231  0.2161  0.5745
  115MOL   H30037008 -10.777  10.223   2.191 -0.9130 -0.5800  2.4414
  115MOL   H30137009 -10.979  10.332   2.264 -0.5943 -0.4217 -2.8197
  115MOL   H30237010 -11.094  10.565   2.352  1.3104 -0.8766  0.2954
  115MOL   H30337011 -11.028  10.708   2.260 -1.5038  0.6787  0.8526
  115MOL   H30437012 -10.820  10.716   2.137 -0.0188 -0.2037 -0.2728
  115MOL   H30537013 -10.619  10.598   2.068 -0.5965 -0.4897 -2.5149
  115MOL   C30637014 -11.163  10.589   2.152 -0.7207  0.5571 -0.0615
  115MOL   C30737015 -11.284  10.682   2.164 -0.0441  0.1008  0.1629
  115MOL   C30837016 -11.404  10.641   2.231 -0.5581  0.2883  0.3381
  115MOL   C30937017 -11.505  10.731   2.264 -0.1508 -0.9005 -0.5368
  115MOL   C31037018 -11.499  10.859   2.199  0.0356  0.0947 -0.0147
  115MOL   C31137019 -11.614  10.957   2.215  0.7459  0.0493  0.1160
  115MOL   C31237020 -11.387  10.894   2.119 -0.4303  0.3304  0.0972
  115MOL   C31337021 -11.278  10.811   2.109  0.6274  1.0185 -0.2044
  115MOL   H31437022 -11.195  10.487   2.135  0.8187 -0.0085  0.3068
  115MOL   H31537023 -11.124  10.612   2.052 -0.3887  1.4775  0.2721
  115MOL   H31637024 -11.402  10.556   2.298  0.5519 -1.0058 -1.3066
  115MOL   H31737025 -11.580  10.702   2.336 -0.8933  2.3244  0.0781
  115MOL   H31837026 -11.568  11.045   2.260  1.6443 -0.8368  0.9551
  115MOL   H31937027 -11.652  10.987   2.117 -0.7557  0.4741  0.8106
  115MOL   H32037028 -11.384  10.995   2.083 -2.1439  1.2528  2.3963
  115MOL   H32137029 -11.193  10.837   2.048  1.1277  0.9811  0.4744
  115MOL   H32237030 -11.692  10.929   2.286 -0.7827  0.4468 -1.3664
  116MOL     C137031   2.790   5.778   6.967 -0.3339 -0.4206  0.7183
  116MOL     C237032   2.657   5.836   6.994  0.2420 -0.7058 -0.0904
  116MOL     C337033   2.586   5.902   6.895 -0.3764  0.6253  0.1352
  116MOL     C437034   2.469   5.974   6.924 -0.6243  0.6434 -0.3892
  116MOL     C537035   2.421   5.963   7.057  0.7384 -0.3595 -0.9026
  116MOL     C637036   2.303   6.047   7.103  0.3722 -0.3010 -0.1265
  116MOL     C737037   2.489   5.886   7.153  1.0478  0.5499  0.1634
  116MOL     C837038   2.613   5.831   7.127 -0.5815  0.0436 -0.0313
  116MOL     H937039   2.846   5.772   7.060 -3.1468 -1.4708  2.4050
  116MOL    H1037040   2.776   5.674   6.939 -1.1248  0.0347 -0.6622
  116MOL    H1137041   2.622   5.901   6.793  2.0838  2.3226  0.9322
  116MOL    H1237042   2.416   6.031   6.849  0.0651  1.0556 -0.5666
  116MOL    H1337043   2.303   6.084   7.205  1.0816 -0.1201 -0.1847
  116MOL    H1437044   2.300   6.142   7.050 -1.0555 -0.5289 -0.4675
  116MOL    H1537045   2.439   5.877   7.249  0.6540  3.2790  0.2494
  116MOL    H1637046   2.675   5.782   7.200  1.4399  0.5491 -1.3546
  116MOL    H1737047   2.852   5.834   6.896 -0.4555 -0.3005  0.7065
  116MOL    C1837048   2.178   5.966   7.068  0.4508 -0.4591 -0.2246
  116MOL    C1937049   2.047   6.037   7.110 -0.3436 -0.3276 -0.1187
  116MOL    C2037050   1.997   6.044   7.244  0.3454  0.0590 -0.2441
  116MOL    C2137051   1.885   6.119   7.278 -0.4115  0.0129  0.7425
  116MOL    C2237052   1.811   6.163   7.166  0.3095  0.8301  0.6247
  116MOL    C2337053   1.682   6.246   7.191  0.1177 -0.5583 -0.1755
  116MOL    C2437054   1.857   6.158   7.035  0.0131  0.0921 -0.9065
  116MOL    C2537055   1.976   6.095   7.007 -0.4193 -0.1653 -0.0146
  116MOL    H2637056   2.188   5.940   6.962  0.1892 -0.2154 -0.3085
  116MOL    H2737057   2.169   5.870   7.117 -0.2665 -0.7071 -0.8329
  116MOL    H2837058   2.045   5.991   7.325 -2.3547  0.7100  1.8384
  116MOL    H2937059   1.856   6.138   7.380  1.6806 -0.0522  1.3502
  116MOL    H3037060   1.664   6.322   7.115 -0.5037  0.9522  1.4524
  116MOL    H3137061   1.688   6.305   7.283  2.2288  1.7698 -1.7037
  116MOL    H3237062   1.792   6.194   6.957 -0.1725  4.0705  0.9589
  116MOL    H3337063   2.013   6.077   6.907  2.9362 -2.2651  1.5139
  116MOL    C3437064   1.572   6.148   7.220 -0.7271  0.5569 -0.0272
  116MOL    C3537065   1.439   6.209   7.227 -0.0707  0.2947  1.6357
  116MOL    C3637066   1.380   6.232   7.350  0.2961  0.2189 -0.3355
  116MOL    C3737067   1.257   6.309   7.351 -0.3208 -0.2864  0.2372
  116MOL    C3837068   1.195   6.350   7.233 -0.3449 -0.3771 -0.1072
  116MOL    C3937069   1.065   6.420   7.238 -0.5993 -0.0911 -0.4166
  116MOL    C4037070   1.264   6.335   7.111 -1.2796 -0.9191 -0.2994
  116MOL    C4137071   1.383   6.261   7.108  0.2048  0.4259  0.1250
  116MOL    H4237072   1.604   6.106   7.315  0.3847 -1.1656 -1.1512
  116MOL    H4337073   1.564   6.073   7.141  0.6695 -1.0052  1.2844
  116MOL    H4437074   1.415   6.193   7.445  0.1588  1.0903  0.0843
  116MOL    H4537075   1.212   6.332   7.447  0.9684 -0.4516  0.9002
  116MOL    H4637076   1.076   6.510   7.299  0.8326  0.6751 -1.7900
  116MOL    H4737077   1.042   6.460   7.139  1.3173 -0.8679 -1.1920
  116MOL    H4837078   1.228   6.364   7.013  1.4939 -1.4891 -1.5283
  116MOL    H4937079   1.431   6.224   7.018 -2.3578 -1.2086 -0.6361
  116MOL    C5037080   0.950   6.325   7.285 -0.4426 -0.0124  1.1226
  116MOL    C5137081   0.818   6.401   7.288  0.1303 -0.6210  0.2185
  116MOL    C5237082   0.773   6.461   7.413 -0.6961  0.0610  0.0643
  116MOL    C5337083   0.654   6.537   7.410  0.0033  0.0423 -0.9596
  116MOL    C5437084   0.579   6.551   7.289  0.0732  0.5199  0.6006
  116MOL    C5537085   0.456   6.634   7.275 -0.3977  0.0907  0.4896
  116MOL    C5637086   0.631   6.494   7.172  0.3257 -0.8434 -0.2583
  116MOL    C5737087   0.749   6.422   7.170  1.1146 -0.1596  0.3946
  116MOL    H5837088   0.973   6.287   7.385  1.0505  1.4972  1.3618
  116MOL    H5937089   0.934   6.239   7.219  1.3383  0.4130  0.1146
  116MOL    H6037090   0.824   6.441   7.506 -0.9367  1.0196  0.4007
  116MOL    H6137091   0.623   6.583   7.503 -0.9955 -0.2198 -1.1596
  116MOL    H6237092   0.436   6.687   7.368 -0.9275  1.3369 -0.3238
  116MOL    H6337093   0.467   6.709   7.197 -1.3464 -0.6220 -0.3377
  116MOL    H6437094   0.575   6.511   7.081 -0.4995  2.3493  0.7774
  116MOL    H6537095   0.784   6.383   7.075 -0.6987 -3.2869  0.9568
  116MOL    C6637096   0.338   6.554   7.222 -0.2994  0.2474 -0.1440
  116MOL    C6737097   0.205   6.628   7.228  0.1819  0.0017 -0.1913
  116MOL    C6837098   0.154   6.673   7.350 -0.0718  0.7000 -0.0379
  116MOL    C6937099   0.044   6.757   7.349 -0.1304  0.9523 -0.4109
  116MOL    C7037100  -0.025   6.794   7.232  0.0061 -0.5720 -0.4142
  116MOL    C7137101  -0.155   6.874   7.248 -0.0488 -0.6252 -0.7084
  116MOL    C7237102   0.016   6.740   7.107  0.1590  0.4044 -0.3648
  116MOL    C7337103   0.131   6.654   7.111 -0.0040 -0.5127 -0.0692
  116MOL    H7437104   0.332   6.468   7.288 -0.4507 -0.0583 -0.5519
  116MOL    H7537105   0.352   6.506   7.125 -2.3310 -2.8657  1.0239
  116MOL    H7637106   0.198   6.648   7.446 -0.8910  1.0822  0.4433
  116MOL    H7737107   0.013   6.791   7.447  2.1246 -0.1406  0.7252
  116MOL    H7837108  -0.166   6.887   7.355 -0.0917  2.8923 -1.0861
  116MOL    H7937109  -0.238   6.812   7.214 -1.8716  1.5237 -0.3198
  116MOL    H8037110  -0.029   6.765   7.011 -0.4072 -1.7876 -0.7093
  116MOL    H8137111   0.183   6.626   7.020  2.3908  2.6334  0.2669
  116MOL    C8237112  -0.170   7.005   7.170  0.3891  0.0599 -0.6015
  116MOL    C8337113  -0.313   7.064   7.181  0.9809  0.1877  0.1208
  116MOL    C8437114  -0.347   7.158   7.274  0.4706  0.1521 -0.3079
  116MOL    C8537115  -0.483   7.207   7.293 -0.3641 -0.3751  0.6016
  116MOL    C8637116  -0.579   7.168   7.200  0.5946  0.4465 -0.4823
  116MOL    C8737117  -0.721   7.215   7.221  0.7882 -0.0298  0.1797
  116MOL    C8837118  -0.547   7.071   7.104 -0.6218 -0.7148 -0.2262
  116MOL    C8937119  -0.415   7.015   7.097 -1.3622  0.0358 -0.2155
  116MOL    H9037120  -0.152   6.978   7.066  1.1935 -0.2622 -0.3848
  116MOL    H9137121  -0.092   7.073   7.205  1.5488 -0.6411 -1.7499
  116MOL    H9237122  -0.264   7.188   7.335  0.1579 -0.5453  0.4608
  116MOL    H9337123  -0.499   7.269   7.380  0.7810  0.6807  0.0670
  116MOL    H9437124  -0.746   7.212   7.327  0.1365  2.1206  0.1030
  116MOL    H9537125  -0.782   7.140   7.171  0.3516  0.6643 -0.3506
  116MOL    H9637126  -0.609   7.034   7.024  0.2019  0.1430 -1.2798
  116MOL    H9737127  -0.390   6.935   7.029 -0.6969  0.8852 -0.9746
  116MOL    C9837128  -0.743   7.356   7.171  0.0049  0.6228 -0.7693
  116MOL    C9937129  -0.879   7.400   7.229  0.1385  0.0431 -0.3171
  116MOL   C10037130  -0.869   7.501   7.331 -0.5470 -0.2393 -0.2617
  116MOL   C10137131  -0.990   7.534   7.393 -0.0953 -0.5147  0.3932
  116MOL   C10237132  -1.111   7.475   7.359  0.6117  0.3291 -0.3105
  116MOL   C10337133  -1.240   7.514   7.437  0.0153  1.2210  0.4004
  116MOL   C10437134  -1.118   7.383   7.256  0.3521 -0.2949  0.2508
  116MOL   C10537135  -0.998   7.334   7.196 -0.4076 -0.2591  0.9784
  116MOL   H10637136  -0.741   7.366   7.062  0.4759 -1.8923 -1.0229
  116MOL   H10737137  -0.673   7.430   7.210  0.7069  0.3475 -1.4760
  116MOL   H10837138  -0.771   7.540   7.354 -1.0455  0.0100  1.4910
  116MOL   H10937139  -0.980   7.602   7.476 -0.7917  0.7352 -0.5227
  116MOL   H11037140  -1.306   7.433   7.467  1.7230 -0.3078  0.1215
  116MOL   H11137141  -1.209   7.546   7.537  2.3777 -4.1095  1.5168
  116MOL   H11237142  -1.218   7.349   7.231  1.3667 -0.2841 -4.3332
  116MOL   H11337143  -1.000   7.261   7.116  2.7435  0.8414 -0.1593
  116MOL   C11437144  -1.329   7.611   7.360 -0.4696 -0.3954 -0.0617
  116MOL   C11537145  -1.454   7.658   7.437 -0.0510 -0.4261 -0.0564
  116MOL   C11637146  -1.445   7.776   7.516 -0.2241  0.0038  0.2165
  116MOL   C11737147  -1.554   7.813   7.598  0.0204  0.7121 -0.0809
  116MOL   C11837148  -1.672   7.735   7.600 -0.3423  0.4446 -0.7869
  116MOL   C11937149  -1.782   7.784   7.695  0.2343  0.7227 -0.0965
  116MOL   C12037150  -1.680   7.613   7.530 -0.4344 -0.2111 -0.2770
  116MOL   C12137151  -1.576   7.585   7.443 -0.5067  0.4599  0.4740
  116MOL   H12237152  -1.366   7.576   7.263  0.4133  1.8069 -1.2230
  116MOL   H12337153  -1.270   7.700   7.339 -1.4612 -0.2559 -2.3972
  116MOL   H12437154  -1.347   7.816   7.535 -0.3847  0.7940 -0.6068
  116MOL   H12537155  -1.545   7.902   7.659  0.4932 -0.4678  1.6196
  116MOL   H12637156  -1.869   7.718   7.704  1.1821 -0.5062  0.2518
  116MOL   H12737157  -1.734   7.789   7.793 -0.5529 -1.1227  0.4165
  116MOL   H12837158  -1.773   7.559   7.526  0.4337 -1.6290 -1.8136
  116MOL   H12937159  -1.569   7.496   7.382  1.0776 -1.3389  3.1803
  116MOL   C13037160  -1.839   7.911   7.635  0.2253 -0.4831 -0.5517
  116MOL   C13137161  -1.974   7.945   7.688 -1.1306 -0.1573  0.4642
  116MOL   C13237162  -1.983   8.062   7.768  0.0998  0.8312  0.1008
  116MOL   C13337163  -2.109   8.105   7.810  0.2715  1.1328 -0.8810
  116MOL   C13437164  -2.221   8.020   7.790  0.4211  0.7211  0.1055
  116MOL   C13537165  -2.356   8.050   7.844  0.4637 -0.8395  0.2944
  116MOL   C13637166  -2.208   7.906   7.708  0.3234  0.6991 -0.6586
  116MOL   C13737167  -2.086   7.869   7.652 -1.1808 -0.4082  0.1074
  116MOL   H13837168  -1.848   7.912   7.526  1.0464  2.7534 -0.6697
  116MOL   H13937169  -1.768   7.993   7.646 -1.3363  0.7672  0.5079
  116MOL   H14037170  -1.895   8.110   7.808 -0.2463  0.3185  1.5353
  116MOL   H14137171  -2.112   8.198   7.866  0.3551  0.8356 -0.3818
  116MOL   H14237172  -2.416   7.959   7.843 -0.1230 -0.4639  0.7981
  116MOL   H14337173  -2.339   8.080   7.947  2.6826  0.9621 -0.5449
  116MOL   H14437174  -2.292   7.843   7.685  0.5369  0.7449 -1.5773
  116MOL   H14537175  -2.086   7.785   7.584  0.5447  1.4662 -2.2709
  116MOL   C14637176  -2.434   8.157   7.771 -0.2749  0.2722 -0.1124
  116MOL   C14737177  -2.576   8.166   7.807  0.6062 -0.1109 -0.5882
  116MOL   C14837178  -2.606   8.233   7.930  0.2867  0.7528 -0.3885
  116MOL   C14937179  -2.744   8.254   7.956  0.5278 -0.1956  0.2163
  116MOL   C15037180  -2.848   8.209   7.868  0.3424  0.5961  0.4195
  116MOL   C15137181  -2.992   8.244   7.892  0.8426  0.7416 -0.1268
  116MOL   C15237182  -2.810   8.138   7.752  0.6711  0.5590 -0.2845
  116MOL   C15337183  -2.677   8.114   7.725 -0.4063  0.1399  0.7728
  116MOL   H15437184  -2.435   8.152   7.662  1.1396 -0.0116 -0.1253
  116MOL   H15537185  -2.381   8.253   7.769 -2.2910  1.3938 -1.4022
  116MOL   H15637186  -2.533   8.265   8.002  0.6657  2.3124 -1.4339
  116MOL   H15737187  -2.778   8.316   8.038  3.4254 -0.4164  1.6603
  116MOL   H15837188  -3.034   8.143   7.893 -1.8534  1.7137 -3.5605
  116MOL   H15937189  -3.008   8.271   7.996  2.0583 -1.1568  0.5767
  116MOL   H16037190  -2.885   8.111   7.680 -0.5349 -0.2162  1.2308
  116MOL   H16137191  -2.649   8.046   7.646 -1.3088 -0.6685  1.1353
  116MOL   C16237192  -3.072   8.336   7.787  0.6633  0.6814  0.2418
  116MOL   C16337193  -3.216   8.361   7.837  0.2090 -0.4817  0.4253
  116MOL   C16437194  -3.316   8.298   7.767  0.4028  0.3083 -0.5466
  116MOL   C16537195  -3.453   8.309   7.807  0.2895  0.7203 -0.7526
  116MOL   C16637196  -3.489   8.390   7.923  0.1248 -0.4066 -0.5828
  116MOL   C16737197  -3.625   8.384   7.981 -0.1365 -0.1256 -0.4968
  116MOL   C16837198  -3.384   8.465   7.987  0.0910  0.1736  0.1415
  116MOL   C16937199  -3.249   8.453   7.940  0.1034 -0.1215  0.6834
  116MOL   H17037200  -3.067   8.297   7.686  1.0046  0.7035  0.2489
  116MOL   H17137201  -3.014   8.427   7.772  0.9277 -0.0240 -3.4616
  116MOL   H17237202  -3.297   8.243   7.676  1.3634  1.2561 -0.9356
  116MOL   H17337203  -3.526   8.249   7.755  0.7122 -1.8852  1.5584
  116MOL   H17437204  -3.672   8.288   7.960 -0.5746 -0.0043 -0.0818
  116MOL   H17537205  -3.609   8.389   8.089 -2.6451  0.9364 -0.1532
  116MOL   H17637206  -3.393   8.535   8.069 -0.1293 -1.3414  1.4152
  116MOL   H17737207  -3.172   8.514   7.984  1.4019 -0.3702 -1.1784
  116MOL   C17837208  -3.703   8.498   7.916  0.5928 -0.0271 -0.5663
  116MOL   C17937209  -3.843   8.509   7.975 -0.7989  0.0374 -0.5593
  116MOL   C18037210  -3.857   8.574   8.098 -0.1347 -0.4037 -0.0941
  116MOL   C18137211  -3.985   8.597   8.154 -0.3769  0.3576 -1.0073
  116MOL   C18237212  -4.094   8.562   8.078 -0.0352 -0.3648 -0.3448
  116MOL   C18337213  -4.237   8.586   8.126 -0.0465 -0.0298  0.8789
  116MOL   C18437214  -4.080   8.491   7.956  0.5394 -1.0503  0.3142
  116MOL   C18537215  -3.953   8.469   7.906  0.2377  0.6577 -0.0860
  116MOL   H18637216  -3.714   8.472   7.810  0.3337 -1.1352 -0.2723
  116MOL   H18737217  -3.653   8.591   7.942 -0.8392  0.7367 -0.4834
  116MOL   H18837218  -3.772   8.619   8.147 -1.8667  3.1743 -0.2310
  116MOL   H18937219  -3.991   8.647   8.249  1.6367  0.5240 -0.9396
  116MOL   H19037220  -4.287   8.491   8.146 -3.2188  0.9778 -1.7167
  116MOL   H19137221  -4.242   8.643   8.219 -0.3007 -0.1347  0.9313
  116MOL   H19237222  -4.168   8.455   7.906 -0.2241  1.7456 -0.4226
  116MOL   H19337223  -3.949   8.414   7.814  0.2825  1.1334 -0.3691
  116MOL   C19437224  -4.324   8.661   8.028  0.2751 -0.6362  0.4991
  116MOL   C19537225  -4.458   8.711   8.077  0.0712 -0.7757  0.3383
  116MOL   C19637226  -4.576   8.629   8.084  0.5510  0.4557  0.7187
  116MOL   C19737227  -4.694   8.685   8.124  0.3556 -0.1926 -0.1528
  116MOL   C19837228  -4.694   8.820   8.173  0.3348 -0.1110  0.7813
  116MOL   C19937229  -4.824   8.875   8.224 -0.0228 -0.4101 -0.4007
  116MOL   C20037230  -4.575   8.897   8.179  0.4409 -0.0477  0.1396
  116MOL   C20137231  -4.457   8.842   8.129  0.1934  0.2270  0.1626
  116MOL   H20237232  -4.335   8.599   7.938 -2.1230  1.5712 -0.8054
  116MOL   H20337233  -4.261   8.744   7.998  0.2779 -0.8587 -0.1233
  116MOL   H20437234  -4.580   8.528   8.046 -3.1851  0.1552  1.7297
  116MOL   H20537235  -4.785   8.627   8.122 -0.5418  1.2443 -2.2975
  116MOL   H20637236  -4.872   8.801   8.288 -2.1348  1.3136  0.0845
  116MOL   H20737237  -4.791   8.960   8.284 -0.5836  0.4904 -1.3621
  116MOL   H20837238  -4.576   8.993   8.229  1.5685 -0.0204  0.1270
  116MOL   H20937239  -4.362   8.894   8.137  1.6356 -2.1918 -0.7868
  116MOL   C21037240  -4.916   8.924   8.109 -0.2404 -0.3794  0.2722
  116MOL   C21137241  -5.055   8.968   8.155 -0.1800 -0.2330  0.0244
  116MOL   C21237242  -5.070   9.095   8.216  0.6182 -0.2233  0.0149
  116MOL   C21337243  -5.192   9.143   8.258 -0.1658 -0.1448  0.4853
  116MOL   C21437244  -5.303   9.060   8.258 -0.2421  0.0401  0.2545
  116MOL   C21537245  -5.439   9.118   8.313  0.3635  0.5782 -0.0974
  116MOL   C21637246  -5.295   8.928   8.208 -0.6654  0.3063 -0.1419
  116MOL   C21737247  -5.172   8.887   8.147  0.0634  0.0845  0.2850
  116MOL   H21837248  -4.939   8.832   8.055  1.0976  0.3937 -1.6912
  116MOL   H21937249  -4.867   8.998   8.045 -2.2788  0.3650 -0.4564
  116MOL   H22037250  -4.994   9.169   8.233 -1.0294  1.3949  0.4346
  116MOL   H22137251  -5.206   9.242   8.299 -1.0751 -0.7398  1.6282
  116MOL   H22237252  -5.482   9.037   8.373  2.0316 -0.2336  0.0550
  116MOL   H22337253  -5.422   9.203   8.379  0.9689  0.9720 -0.7550
  116MOL   H22437254  -5.379   8.860   8.214 -0.3507 -0.2756 -1.9436
  116MOL   H22537255  -5.165   8.784   8.115 -0.4225 -1.2795  4.2517
  116MOL   C22637256  -5.534   9.160   8.202 -0.1622  0.4281 -0.2352
  116MOL   C22737257  -5.669   9.211   8.245  0.2362 -0.5701 -0.8416
  116MOL   C22837258  -5.675   9.331   8.319  0.3085 -0.4235 -0.5259
  116MOL   C22937259  -5.804   9.375   8.364  0.1379 -0.2272  0.6284
  116MOL   C23037260  -5.919   9.297   8.343  0.8335 -0.2784 -0.3322
  116MOL   C23137261  -6.051   9.342   8.398 -0.1405 -0.9006  0.1121
  116MOL   C23237262  -5.909   9.183   8.264 -0.2911  0.2089  0.6921
  116MOL   C23337263  -5.789   9.139   8.214 -0.0678 -0.6180 -0.5778
  116MOL   H23437264  -5.534   9.078   8.130 -2.2268  1.0846 -1.0152
  116MOL   H23537265  -5.492   9.240   8.142 -0.1467  0.9893  0.5183
  116MOL   H23637266  -5.581   9.381   8.336  0.9552 -2.4789  2.3694
  116MOL   H23737267  -5.815   9.464   8.424 -0.4759  0.8163 -0.9832
  116MOL   H23837268  -6.113   9.265   8.444  0.1014 -0.8266  0.5670
  116MOL   H23937269  -6.035   9.416   8.477 -1.1164  0.1088 -0.6076
  116MOL   H24037270  -5.998   9.125   8.243  1.1587 -1.0378 -2.2912
  116MOL   H24137271  -5.790   9.055   8.146 -1.4349 -1.2114  0.1656
  116MOL   C24237272  -6.136   9.401   8.286  0.2209  0.2322 -0.2103
  116MOL   C24337273  -6.270   9.443   8.327 -0.2080  0.1172 -0.0630
  116MOL   C24437274  -6.378   9.354   8.327 -0.1496 -0.0902  1.0365
  116MOL   C24537275  -6.494   9.396   8.388  0.7312 -0.0757  0.1489
  116MOL   C24637276  -6.507   9.523   8.434  0.3151 -1.0877 -0.5673
  116MOL   C24737277  -6.637   9.562   8.492  0.8197 -0.0278  0.1370
  116MOL   C24837278  -6.406   9.613   8.422  0.2695  0.1822 -0.0777
  116MOL   C24937279  -6.280   9.570   8.378  0.3728 -0.0990  0.7463
  116MOL   H25037280  -6.087   9.483   8.234  3.1995 -1.4926 -0.2044
  116MOL   H25137281  -6.144   9.324   8.210 -1.4162 -1.6175  1.7685
  116MOL   H25237282  -6.374   9.253   8.289 -2.2335  0.4199 -0.6456
  116MOL   H25337283  -6.578   9.328   8.399  0.2540  0.6590  1.0383
  116MOL   H25437284  -6.680   9.490   8.561 -1.2709  1.7608  0.7515
  116MOL   H25537285  -6.617   9.653   8.549 -1.1907  0.2886  0.3505
  116MOL   H25637286  -6.415   9.715   8.458 -0.0872 -0.3735  1.4356
  116MOL   H25737287  -6.191   9.631   8.384  1.3089 -1.4879  1.2824
  116MOL   C25837288  -6.750   9.587   8.386 -0.4252  0.3973  0.6156
  116MOL   C25937289  -6.876   9.648   8.441 -0.8138 -0.5187 -0.1085
  116MOL   C26037290  -6.984   9.564   8.447 -0.2588 -0.3706  0.1623
  116MOL   C26137291  -7.100   9.602   8.515 -0.5597 -0.3872 -0.5273
  116MOL   C26237292  -7.117   9.735   8.570  0.0433 -0.5896  0.6519
  116MOL   C26337293  -7.253   9.774   8.643 -0.8713  0.1384 -0.3673
  116MOL   C26437294  -7.004   9.816   8.572 -0.4907 -0.0678  0.2534
  116MOL   C26537295  -6.883   9.774   8.510 -0.5290  0.4195  0.2800
  116MOL   H26637296  -6.775   9.495   8.334 -1.5620  1.1559 -0.2018
  116MOL   H26737297  -6.718   9.657   8.308  1.1075 -0.9168  0.0345
  116MOL   H26837298  -6.981   9.464   8.407 -1.6854 -0.5649  0.5145
  116MOL   H26937299  -7.185   9.535   8.519 -0.0993 -0.9248  0.3230
  116MOL   H27037300  -7.298   9.681   8.678 -1.4287  0.1334 -1.0703
  116MOL   H27137301  -7.235   9.836   8.730  0.1009  0.0635 -0.5112
  116MOL   H27237302  -7.009   9.907   8.630 -1.1002 -0.5504  0.9660
  116MOL   H27337303  -6.801   9.844   8.519 -0.8213  0.8480 -0.3265
  116MOL   C27437304  -7.340   9.851   8.539  0.1105  0.1747  0.0386
  116MOL   C27537305  -7.477   9.874   8.585  0.2771  0.3890  0.3218
  116MOL   C27637306  -7.490   9.965   8.695  0.3302 -0.4107 -0.4237
  116MOL   C27737307  -7.615   9.982   8.753  0.2292  0.7359 -0.4667
  116MOL   C27837308  -7.732   9.929   8.689 -0.1711  0.3417  0.3104
  116MOL   C27937309  -7.870   9.959   8.742  0.2653  0.0433  0.0355
  116MOL   C28037310  -7.723   9.845   8.579 -0.2118 -0.2498 -0.2317
  116MOL   C28137311  -7.594   9.821   8.523 -0.1943 -0.2185  0.2718
  116MOL   H28237312  -7.310   9.954   8.521  0.1686  0.1321 -0.1137
  116MOL   H28337313  -7.338   9.799   8.443  0.3014 -0.6623  0.4901
  116MOL   H28437314  -7.404  10.019   8.731  1.0182 -2.1779  0.6477
  116MOL   H28537315  -7.619  10.041   8.843 -1.4405 -2.8316  1.9138
  116MOL   H28637316  -7.926   9.865   8.748 -0.6735  0.3825 -2.6220
  116MOL   H28737317  -7.873   9.980   8.849  1.0600  0.6480 -0.0644
  116MOL   H28837318  -7.798   9.787   8.528  1.8034 -2.7017 -0.5078
  116MOL   H28937319  -7.598   9.761   8.433 -2.4646  1.1441 -0.6127
  116MOL   C29037320  -7.949  10.066   8.666  0.2279 -0.4333  1.2098
  116MOL   C29137321  -8.091  10.081   8.710  0.0413 -0.5631  1.2499
  116MOL   C29237322  -8.189   9.991   8.672  0.1953  0.0116  0.6936
  116MOL   C29337323  -8.318  10.002   8.731  0.0810  0.0526 -0.1279
  116MOL   C29437324  -8.350  10.100   8.825  0.0116  0.5921  0.8383
  116MOL   C29537325  -8.488  10.081   8.884 -0.3555 -0.3915 -0.4101
  116MOL   C29637326  -8.250  10.194   8.866  0.6384 -0.2594 -0.0740
  116MOL   C29737327  -8.123  10.184   8.811 -0.8151  0.0548  0.3486
  116MOL   H29837328  -7.947  10.033   8.563 -2.6129  0.9606  0.6389
  116MOL   H29937329  -7.901  10.163   8.677 -1.3239  0.7594 -1.9550
  116MOL   H30037330  -8.173   9.925   8.588 -2.2197  2.1991 -1.6157
  116MOL   H30137331  -8.394   9.940   8.685  0.3034 -1.5764  1.6352
  116MOL   H30237332  -8.523   9.979   8.870 -2.8857  0.4889 -0.6766
  116MOL   H30337333  -8.471  10.099   8.990  0.7521  1.5969 -0.8981
  116MOL   H30437334  -8.286  10.269   8.935  0.8769  0.7811 -1.0632
  116MOL   H30537335  -8.042  10.242   8.852 -1.6756  1.9503 -0.5615
  116MOL   C30637336  -8.593  10.180   8.819 -0.1112  0.3070  0.3080
  116MOL   C30737337  -8.735  10.184   8.868  1.0712  0.1871 -0.1756
  116MOL   C30837338  -8.811  10.075   8.901 -0.4320 -0.2659  0.2315
  116MOL   C30937339  -8.945  10.096   8.945  0.6757  0.3797 -0.3535
  116MOL   C31037340  -9.000  10.223   8.970  0.3836  0.0241  0.5502
  116MOL   C31137341  -9.141  10.234   9.031 -0.1101 -0.1349  0.5627
  116MOL   C31237342  -8.924  10.339   8.935  1.2065  0.9092 -0.7857
  116MOL   C31337343  -8.795  10.313   8.889  0.4704 -0.1387  0.3885
  116MOL   H31437344  -8.597  10.143   8.716  2.1100  1.1594 -0.1250
  116MOL   H31537345  -8.553  10.282   8.810  0.2185  0.1888  0.4370
  116MOL   H31637346  -8.771   9.975   8.897  1.9643  0.6972 -0.1763
  116MOL   H31737347  -9.004  10.012   8.978  1.8377 -0.6835 -0.9585
  116MOL   H31837348  -9.147  10.217   9.139  0.4791  1.2221  0.8238
  116MOL   H31937349  -9.194  10.326   9.005  1.1981  0.3847 -0.2876
  116MOL   H32037350  -8.964  10.440   8.940  1.5468  0.9629  1.2994
  116MOL   H32137351  -8.728  10.397   8.875  0.1835  0.1476  0.7257
  116MOL   H32237352  -9.196  10.151   8.987  0.7095 -1.5956  2.2481
  117MOL     C137353   1.295   1.997   5.532  0.2584 -0.5265  0.3939
  117MOL     C237354   1.149   2.015   5.562 -0.3959  0.0548  0.5538
  117MOL     C337355   1.075   1.907   5.608 -0.6126  0.1917  0.1446
  117MOL     C437356   0.945   1.918   5.653  0.6556 -0.9255  0.6588
  117MOL     C537357   0.888   2.049   5.657 -0.7363  0.7095 -0.2025
  117MOL     C637358   0.752   2.075   5.725  0.2400  0.0055 -0.5193
  117MOL     C737359   0.960   2.162   5.603 -0.1577 -0.0383  0.4465
  117MOL     C837360   1.092   2.149   5.557 -0.3611  0.1375  0.2579
  117MOL     H937361   1.356   1.981   5.621 -0.8214  3.1299  1.9078
  117MOL    H1037362   1.311   1.909   5.470  0.8174 -0.1659  0.0150
  117MOL    H1137363   1.121   1.809   5.608  1.8603  1.3110 -0.8327
  117MOL    H1237364   0.893   1.835   5.698 -0.4203 -0.5797  0.0786
  117MOL    H1337365   0.737   2.004   5.806  1.0421  0.0127 -0.3515
  117MOL    H1437366   0.752   2.175   5.770 -1.2552 -0.5459  0.7478
  117MOL    H1537367   0.916   2.259   5.593  1.1877  0.6342  0.9072
  117MOL    H1637368   1.145   2.236   5.523  0.9232 -0.2423  1.2350
  117MOL    H1737369   1.326   2.081   5.469 -1.1665  0.8653  1.5263
  117MOL    C1837370   0.643   2.092   5.616  0.3077  0.8235  0.1702
  117MOL    C1937371   0.507   2.128   5.676 -0.5104  0.2793 -0.1765
  117MOL    C2037372   0.434   2.041   5.764  0.0244 -0.3231  0.1472
  117MOL    C2137373   0.308   2.065   5.810 -0.5527 -0.0406 -0.4390
  117MOL    C2237374   0.255   2.196   5.780  1.0084  0.1553  0.0277
  117MOL    C2337375   0.124   2.242   5.840 -0.2869  0.1071  0.3662
  117MOL    C2437376   0.328   2.285   5.695 -0.5923  0.5218 -0.0134
  117MOL    C2537377   0.454   2.254   5.641 -0.3461 -0.0610  0.2968
  117MOL    H2637378   0.672   2.163   5.538 -2.4048  1.0725 -0.6714
  117MOL    H2737379   0.624   1.999   5.563  1.6139 -0.0258  1.1579
  117MOL    H2837380   0.486   1.947   5.778 -0.3300 -0.4168  0.8472
  117MOL    H2937381   0.265   1.992   5.877 -0.4257 -1.7611 -2.1783
  117MOL    H3037382   0.150   2.301   5.929  1.1887  1.4619 -0.9418
  117MOL    H3137383   0.078   2.148   5.870 -0.7637  0.7786  1.8307
  117MOL    H3237384   0.284   2.383   5.682  1.3484  1.4512  0.1674
  117MOL    H3337385   0.509   2.325   5.581  1.3374 -1.5985 -0.0148
  117MOL    C3437386   0.039   2.325   5.734  0.2743 -0.3262  0.3762
  117MOL    C3537387  -0.106   2.346   5.776  0.8090 -0.4169  0.0665
  117MOL    C3637388  -0.196   2.237   5.795  0.3362 -0.8395  0.1285
  117MOL    C3737389  -0.325   2.257   5.847 -0.4241  0.5174 -0.1740
  117MOL    C3837390  -0.372   2.384   5.885 -0.3477  0.1136  0.2426
  117MOL    C3937391  -0.504   2.418   5.944  0.0813  0.2578 -0.0371
  117MOL    C4037392  -0.285   2.493   5.853 -0.1295  0.6188  0.3553
  117MOL    C4137393  -0.154   2.473   5.808  0.5082 -0.3760 -0.3101
  117MOL    H4237394   0.033   2.285   5.633  0.7973  0.0290  0.2016
  117MOL    H4337395   0.091   2.419   5.713  0.5249 -0.5489 -0.0026
  117MOL    H4437396  -0.159   2.141   5.764  0.7173 -1.2005  1.6458
  117MOL    H4537397  -0.373   2.162   5.867  2.6151 -1.0143  0.0524
  117MOL    H4637398  -0.525   2.333   6.009 -0.8705 -0.3599 -1.1375
  117MOL    H4737399  -0.496   2.511   6.001  0.9866 -0.0987  0.4208
  117MOL    H4837400  -0.306   2.596   5.879 -0.5557  0.9327 -1.1605
  117MOL    H4937401  -0.089   2.558   5.793  1.6239 -1.2150 -0.3734
  117MOL    C5037402  -0.619   2.428   5.836 -0.2078  0.4533 -0.0213
  117MOL    C5137403  -0.756   2.463   5.895 -0.6992 -0.0853  0.4150
  117MOL    C5237404  -0.865   2.372   5.891  0.6522 -0.7803  0.5336
  117MOL    C5337405  -0.989   2.408   5.939 -0.1395  0.8788 -0.5746
  117MOL    C5437406  -1.010   2.535   5.988  0.5110 -0.3436  0.2165
  117MOL    C5537407  -1.148   2.574   6.041  0.5692  0.3356 -0.0063
  117MOL    C5637408  -0.898   2.622   5.999 -0.0564 -0.1857 -0.3222
  117MOL    C5737409  -0.771   2.595   5.948 -0.2169  0.3869  0.4134
  117MOL    H5837410  -0.630   2.333   5.783 -0.1631  0.8319 -0.7124
  117MOL    H5937411  -0.581   2.503   5.766  0.8297  1.8753  2.0020
  117MOL    H6037412  -0.844   2.278   5.843 -0.6870 -1.1885  0.7288
  117MOL    H6137413  -1.069   2.337   5.926 -0.7724  1.3927  0.4899
  117MOL    H6237414  -1.187   2.495   6.105 -0.9470  1.7611  0.8646
  117MOL    H6337415  -1.138   2.662   6.103  1.6712  0.0670  0.2038
  117MOL    H6437416  -0.908   2.719   6.045 -0.0166 -0.7941  0.9789
  117MOL    H6537417  -0.686   2.662   5.950 -1.4283  1.9483  0.7927
  117MOL    C6637418  -1.259   2.584   5.929  0.3310  0.2807 -0.1723
  117MOL    C6737419  -1.383   2.630   6.008  0.1179  0.1769 -0.3551
  117MOL    C6837420  -1.394   2.762   6.054  0.0363  0.0594  0.1823
  117MOL    C6937421  -1.516   2.809   6.109  0.4943  0.1368 -0.3425
  117MOL    C7037422  -1.626   2.724   6.108  0.3107  0.3733 -0.1855
  117MOL    C7137423  -1.764   2.777   6.158  0.0965  0.2553 -0.2715
  117MOL    C7237424  -1.611   2.590   6.077 -0.1806  0.2377  0.1049
  117MOL    C7337425  -1.488   2.540   6.030 -0.1887 -0.4443  0.2399
  117MOL    H7437426  -1.276   2.484   5.888  2.2735 -0.7077  1.3676
  117MOL    H7537427  -1.226   2.647   5.846  1.3967 -0.8166 -0.5785
  117MOL    H7637428  -1.313   2.834   6.048 -2.3844  2.8495 -0.3627
  117MOL    H7737429  -1.526   2.909   6.148 -3.3900  0.6142 -2.2603
  117MOL    H7837430  -1.748   2.812   6.260 -0.2070  0.5888 -0.3350
  117MOL    H7937431  -1.834   2.693   6.157  0.6139 -0.1797 -0.9939
  117MOL    H8037432  -1.693   2.521   6.085 -0.0978  0.0961 -0.2459
  117MOL    H8137433  -1.482   2.437   6.000  1.2492 -0.8108  1.7251
  117MOL    C8237434  -1.831   2.884   6.064  0.0613  0.0835 -0.6392
  117MOL    C8337435  -1.961   2.942   6.118 -0.4498  0.1324  0.0414
  117MOL    C8437436  -2.071   2.949   6.037 -0.4194 -0.5700 -0.6856
  117MOL    C8537437  -2.184   3.006   6.089 -0.0703 -1.0483 -0.6625
  117MOL    C8637438  -2.196   3.056   6.217 -0.0031 -0.2877 -0.0243
  117MOL    C8737439  -2.323   3.127   6.259  0.3235 -0.0665 -0.3541
  117MOL    C8837440  -2.086   3.043   6.299 -0.0881  1.3113  0.1918
  117MOL    C8937441  -1.968   2.983   6.253 -0.1203  0.4751  0.0877
  117MOL    H9037442  -1.854   2.858   5.960  0.4009 -1.5608 -0.3221
  117MOL    H9137443  -1.766   2.970   6.050 -0.7782  0.6907 -0.8566
  117MOL    H9237444  -2.073   2.921   5.933 -0.3875 -0.1303 -0.8054
  117MOL    H9337445  -2.269   3.019   6.024 -0.1960  0.5505 -0.2052
  117MOL    H9437446  -2.381   3.142   6.168  0.0489 -1.4399 -0.4190
  117MOL    H9537447  -2.292   3.229   6.281  2.6287 -0.7689 -0.2216
  117MOL    H9637448  -2.084   3.093   6.395 -2.8942  1.7216  0.0835
  117MOL    H9737449  -1.885   2.976   6.321 -0.4972 -2.9767  0.2500
  117MOL    C9837450  -2.392   3.053   6.375  0.1042 -0.1458 -0.1957
  117MOL    C9937451  -2.521   3.115   6.422  0.0212 -0.0266 -0.1082
  117MOL   C10037452  -2.615   3.167   6.330  0.4888 -0.5322  0.8024
  117MOL   C10137453  -2.747   3.202   6.372  0.0246 -0.2668  0.2613
  117MOL   C10237454  -2.773   3.213   6.510  0.3426 -0.3636 -0.1042
  117MOL   C10337455  -2.884   3.300   6.575 -0.2866 -0.3752 -0.1136
  117MOL   C10437456  -2.670   3.172   6.598  0.3086 -0.2620 -0.8785
  117MOL   C10537457  -2.547   3.115   6.557  1.7216  0.0561 -0.1180
  117MOL   H10637458  -2.322   3.051   6.459 -0.8771 -1.3126  0.5989
  117MOL   H10737459  -2.424   2.952   6.351 -2.0237  1.0530 -2.7415
  117MOL   H10837460  -2.591   3.168   6.225 -2.0019  0.6166  0.1860
  117MOL   H10937461  -2.817   3.237   6.298  1.1780  1.1878 -0.1644
  117MOL   H11037462  -2.859   3.313   6.680  1.3431 -3.1351 -0.0960
  117MOL   H11137463  -2.881   3.397   6.526 -1.3064 -1.2744 -2.0228
  117MOL   H11237464  -2.687   3.181   6.705  4.5358  1.1821 -0.1963
  117MOL   H11337465  -2.475   3.074   6.627 -0.4365  0.9927  2.7714
  117MOL   C11437466  -3.027   3.240   6.565  0.4946 -0.1826 -0.4306
  117MOL   C11537467  -3.134   3.330   6.624  0.5710  0.5774 -0.0885
  117MOL   C11637468  -3.219   3.411   6.546  0.2401 -0.6365  0.7836
  117MOL   C11737469  -3.325   3.485   6.612  1.0849 -0.0513  0.2224
  117MOL   C11837470  -3.357   3.462   6.748 -0.2842  0.1440 -0.1687
  117MOL   C11937471  -3.481   3.515   6.814 -0.0674  0.2153 -0.6023
  117MOL   C12037472  -3.264   3.391   6.823 -0.3921 -0.1074 -0.0346
  117MOL   C12137473  -3.158   3.321   6.762  0.1409  0.0048  0.1091
  117MOL   H12237474  -3.036   3.138   6.602  2.0414  0.7050  2.5925
  117MOL   H12337475  -3.051   3.225   6.460  0.6487  0.0180 -0.4952
  117MOL   H12437476  -3.206   3.419   6.439 -0.3832  1.6625  0.8600
  117MOL   H12537477  -3.390   3.549   6.554  1.6341 -0.4316 -0.8332
  117MOL   H12637478  -3.460   3.545   6.917 -3.6622 -0.4880  0.4010
  117MOL   H12737479  -3.509   3.609   6.767 -1.4340 -0.0485 -0.3446
  117MOL   H12837480  -3.299   3.362   6.920 -0.1606  0.3077  0.1731
  117MOL   H12937481  -3.102   3.253   6.825  1.6846  0.4627 -0.7457
  117MOL   C13037482  -3.590   3.415   6.808 -0.3999  0.1299 -0.7999
  117MOL   C13137483  -3.721   3.481   6.861  0.4841  0.7016  0.0769
  117MOL   C13237484  -3.760   3.462   6.991 -0.5528 -0.4368 -1.2538
  117MOL   C13337485  -3.868   3.529   7.047  0.3620  0.7050 -0.3807
  117MOL   C13437486  -3.948   3.611   6.968 -0.6157  0.1251  0.2470
  117MOL   C13537487  -4.076   3.690   7.013 -0.2777  0.5880 -0.2808
  117MOL   C13637488  -3.907   3.632   6.833 -0.1102  0.2116  0.2479
  117MOL   C13737489  -3.794   3.572   6.776  0.0462  0.1847  0.0147
  117MOL   H13837490  -3.567   3.321   6.859  1.2400  0.0934 -1.5813
  117MOL   H13937491  -3.617   3.393   6.705 -0.0961 -1.8529 -0.4771
  117MOL   H14037492  -3.695   3.406   7.055 -0.9691 -0.2727 -0.6847
  117MOL   H14137493  -3.890   3.502   7.149 -0.8471 -1.4572 -1.1778
  117MOL   H14237494  -4.054   3.728   7.113 -1.5508 -1.2103  0.7066
  117MOL   H14337495  -4.094   3.776   6.947 -0.4312  0.5945 -0.2327
  117MOL   H14437496  -3.965   3.701   6.775 -1.2347 -1.3415 -0.5147
  117MOL   H14537497  -3.760   3.600   6.677  1.5684  0.0051  0.4655
  117MOL   C14637498  -4.201   3.599   7.011  0.1207  0.7614  0.5500
  117MOL   C14737499  -4.303   3.644   7.103 -0.3794 -0.5799 -0.5699
  117MOL   C14837500  -4.408   3.728   7.056 -0.2338  0.4132 -0.1181
  117MOL   C14937501  -4.509   3.744   7.147  0.5472 -0.5103 -0.4987
  117MOL   C15037502  -4.518   3.701   7.277 -0.3967 -0.9834 -0.3790
  117MOL   C15137503  -4.638   3.718   7.364 -0.2026 -0.6138 -0.2778
  117MOL   C15237504  -4.410   3.625   7.322 -0.1014  0.2037 -0.1110
  117MOL   C15337505  -4.308   3.592   7.233  0.0294 -0.6686 -0.6653
  117MOL   H15437506  -4.179   3.495   7.035 -1.3856 -0.2465 -2.1604
  117MOL   H15537507  -4.239   3.586   6.909  0.6000 -0.7095  0.5507
  117MOL   H15637508  -4.389   3.775   6.960  3.1474  0.9244  0.7154
  117MOL   H15737509  -4.584   3.816   7.114 -0.7364  0.3014  3.8890
  117MOL   H15837510  -4.607   3.775   7.451  4.0744 -1.7314 -0.9706
  117MOL   H15937511  -4.702   3.782   7.303  0.4001 -0.2622 -0.5478
  117MOL   H16037512  -4.422   3.579   7.419  0.3279 -0.6149 -0.4395
  117MOL   H16137513  -4.223   3.536   7.269  0.9471  0.1146 -1.5789
  117MOL   C16237514  -4.717   3.591   7.385  0.0477  0.6195 -0.2643
  117MOL   C16337515  -4.862   3.615   7.418 -0.3802 -1.2598 -0.4556
  117MOL   C16437516  -4.955   3.601   7.319 -0.0466  0.2157  0.2209
  117MOL   C16537517  -5.086   3.636   7.347  0.6953  0.0268 -0.0175
  117MOL   C16637518  -5.123   3.692   7.472 -0.1231 -0.7667 -0.1234
  117MOL   C16737519  -5.267   3.736   7.496  0.0659  0.3000  0.2265
  117MOL   C16837520  -5.026   3.713   7.573 -0.2841 -0.1097  0.2809
  117MOL   C16937521  -4.894   3.677   7.542  0.4482  0.1981  0.1348
  117MOL   H17037522  -4.664   3.526   7.454  0.4426 -0.3278 -1.4314
  117MOL   H17137523  -4.720   3.541   7.288  0.3959 -1.2752  0.6663
  117MOL   H17237524  -4.932   3.577   7.216 -0.0392  3.5521 -0.6155
  117MOL   H17337525  -5.157   3.637   7.266 -0.6835  2.7768  1.1600
  117MOL   H17437526  -5.331   3.648   7.487 -0.4329  0.5293  1.4480
  117MOL   H17537527  -5.280   3.754   7.603 -1.2612  1.8980 -0.1785
  117MOL   H17637528  -5.042   3.759   7.669  1.0427  2.2413 -0.5674
  117MOL   H17737529  -4.820   3.698   7.617  0.3595 -1.1399  0.6174
  117MOL   C17837530  -5.308   3.857   7.402 -0.3497 -0.0181 -0.4343
  117MOL   C17937531  -5.454   3.904   7.423 -0.7523  0.2348  0.1881
  117MOL   C18037532  -5.554   3.870   7.336  0.4122  0.1780  0.0821
  117MOL   C18137533  -5.688   3.907   7.369 -0.2934  0.6487  0.0123
  117MOL   C18237534  -5.723   3.978   7.485  0.4517 -0.6435 -1.1216
  117MOL   C18337535  -5.865   4.010   7.534  0.7021  0.5927  0.2622
  117MOL   C18437536  -5.616   4.023   7.564  0.0804  0.0924 -0.1455
  117MOL   C18537537  -5.486   3.975   7.536  0.5249  0.1387  0.0686
  117MOL   H18637538  -5.299   3.826   7.298  1.5736  1.5567 -0.7632
  117MOL   H18737539  -5.246   3.945   7.417 -0.2252  0.0559 -1.3544
  117MOL   H18837540  -5.525   3.820   7.244 -0.2381 -1.1522  0.5810
  117MOL   H18937541  -5.769   3.881   7.303 -2.6650  1.1090  2.6476
  117MOL   H19037542  -5.919   3.919   7.510  1.3453  0.3663 -0.3425
  117MOL   H19137543  -5.873   4.024   7.642 -1.9824 -2.0341  0.4411
  117MOL   H19237544  -5.630   4.088   7.649  1.1060  0.6203 -0.3766
  117MOL   H19337545  -5.404   4.007   7.599  1.6004  0.1021 -1.2870
  117MOL   C19437546  -5.929   4.124   7.458 -0.4150  0.5668 -0.2608
  117MOL   C19537547  -6.068   4.158   7.505 -0.1273  0.4431 -0.2955
  117MOL   C19637548  -6.172   4.065   7.491  0.7973  0.2907  0.3377
  117MOL   C19737549  -6.295   4.095   7.553 -0.6772  0.0396 -0.1872
  117MOL   C19837550  -6.318   4.220   7.613  0.2641 -0.1273 -0.1431
  117MOL   C19937551  -6.449   4.234   7.689  0.3451 -0.7736  0.0360
  117MOL   C20037552  -6.221   4.316   7.621 -0.1554 -0.0718 -0.5745
  117MOL   C20137553  -6.090   4.284   7.568  0.8028 -0.3501 -0.5901
  117MOL   H20237554  -5.946   4.107   7.352 -1.8106 -1.8599  0.3179
  117MOL   H20337555  -5.876   4.215   7.487 -0.7557  0.0806  1.9757
  117MOL   H20437556  -6.147   3.965   7.459  0.0900 -0.4484  2.0366
  117MOL   H20537557  -6.371   4.020   7.540  0.9507 -1.3654 -1.7987
  117MOL   H20637558  -6.461   4.146   7.751 -1.9570  0.6938  1.7342
  117MOL   H20737559  -6.451   4.329   7.742  0.8806  0.4186 -2.0190
  117MOL   H20837560  -6.239   4.416   7.658 -0.1445 -0.6300  0.9774
  117MOL   H20937561  -6.008   4.354   7.574  0.2911  0.2435 -0.4451
  117MOL   C21037562  -6.563   4.244   7.584 -0.7053 -0.3471 -0.0529
  117MOL   C21137563  -6.697   4.281   7.649 -0.7572  0.1908 -0.5962
  117MOL   C21237564  -6.813   4.199   7.639 -0.0311  0.2900 -0.0480
  117MOL   C21337565  -6.933   4.230   7.705  0.0928  0.5703 -0.0276
  117MOL   C21437566  -6.944   4.349   7.778 -0.1668  0.8581 -0.5321
  117MOL   C21537567  -7.081   4.388   7.832 -0.1131 -0.8354 -0.5079
  117MOL   C21637568  -6.836   4.433   7.791  0.2665 -0.2486 -0.5197
  117MOL   C21737569  -6.717   4.400   7.721  0.1193 -0.0522 -0.8655
  117MOL   H21837570  -6.580   4.150   7.533 -0.8457  0.3674 -1.3343
  117MOL   H21937571  -6.547   4.322   7.510 -1.0857  0.0563  0.2818
  117MOL   H22037572  -6.805   4.111   7.578 -1.2923 -0.3607  0.7158
  117MOL   H22137573  -7.012   4.157   7.694 -0.3546  1.0923 -0.2411
  117MOL   H22237574  -7.127   4.305   7.885  1.2354 -0.5963  1.0910
  117MOL   H22337575  -7.084   4.477   7.895  0.7410 -2.1733  1.4696
  117MOL   H22437576  -6.839   4.515   7.860  0.0284 -0.8548  0.1860
  117MOL   H22537577  -6.630   4.459   7.748  0.6745  0.2956 -3.2648
  117MOL   C22637578  -7.176   4.405   7.710 -0.2892 -0.2180 -0.5687
  117MOL   C22737579  -7.316   4.428   7.765 -0.0411 -0.0404 -0.9543
  117MOL   C22837580  -7.350   4.555   7.822  0.5123  0.9663 -0.1329
  117MOL   C22937581  -7.477   4.567   7.889  0.1662 -0.0476 -0.1778
  117MOL   C23037582  -7.571   4.468   7.883 -0.7587  0.6149 -0.5672
  117MOL   C23137583  -7.705   4.492   7.949  0.4140 -0.0238  0.5531
  117MOL   C23237584  -7.539   4.338   7.834  0.6164 -0.4696  0.0207
  117MOL   C23337585  -7.408   4.325   7.779 -0.5196  0.7395 -0.5692
  117MOL   H23437586  -7.186   4.318   7.644 -0.0780 -1.2063  0.6761
  117MOL   H23537587  -7.140   4.490   7.653 -0.0142 -1.2275 -1.9351
  117MOL   H23637588  -7.278   4.635   7.830  1.5893  0.1799 -1.6410
  117MOL   H23737589  -7.497   4.658   7.943 -0.0544 -0.1155 -0.1450
  117MOL   H23837590  -7.758   4.399   7.971  0.9467  0.2481  3.1579
  117MOL   H23937591  -7.687   4.531   8.049  0.5187  1.2004  0.0739
  117MOL   H24037592  -7.610   4.258   7.826 -0.7983  0.4007  2.9729
  117MOL   H24137593  -7.394   4.222   7.749  2.7091  0.6735  0.9316
  117MOL   C24237594  -7.792   4.585   7.859 -0.3293  0.0882 -0.1738
  117MOL   C24337595  -7.931   4.607   7.917  0.0441 -0.4369  0.4881
  117MOL   C24437596  -7.973   4.730   7.959 -0.2750 -0.7239 -0.5243
  117MOL   C24537597  -8.097   4.753   8.016  0.5032 -0.3563  0.4257
  117MOL   C24637598  -8.191   4.644   8.021 -0.0483  0.0730  0.2862
  117MOL   C24737599  -8.323   4.659   8.096  0.8943 -0.5492  0.0959
  117MOL   C24837600  -8.158   4.514   7.974 -0.2871 -0.6480 -0.1984
  117MOL   C24937601  -8.024   4.497   7.931  0.0091  0.3319 -0.5015
  117MOL   H25037602  -7.751   4.685   7.853  1.6861 -0.7507 -0.7544
  117MOL   H25137603  -7.790   4.538   7.761  0.5118 -0.6407  0.1765
  117MOL   H25237604  -7.900   4.810   7.955 -2.2833  1.1537 -1.0087
  117MOL   H25337605  -8.123   4.851   8.053  1.9082 -0.5320  1.9795
  117MOL   H25437606  -8.335   4.564   8.147  2.3962 -0.4075  0.7683
  117MOL   H25537607  -8.323   4.727   8.181 -1.3054 -2.6836  1.8592
  117MOL   H25637608  -8.224   4.429   7.972 -0.8654 -0.1948 -0.7155
  117MOL   H25737609  -7.995   4.398   7.898  0.6190  0.4615 -0.3637
  117MOL   C25837610  -8.434   4.689   8.001  0.1501 -0.3852 -0.2590
  117MOL   C25937611  -8.560   4.726   8.079  0.2693 -0.5675 -0.5060
  117MOL   C26037612  -8.658   4.626   8.110 -0.1830 -0.6142 -0.3593
  117MOL   C26137613  -8.773   4.668   8.183  0.9158 -0.5027 -0.2966
  117MOL   C26237614  -8.803   4.806   8.203  0.2041  0.5043 -0.0372
  117MOL   C26337615  -8.930   4.844   8.270  0.1712  0.0647 -0.7624
  117MOL   C26437616  -8.711   4.905   8.168  0.1946 -0.2547  0.1765
  117MOL   C26537617  -8.587   4.863   8.109 -0.0360 -0.2262 -0.8388
  117MOL   H26637618  -8.463   4.608   7.933 -2.5319 -0.7732  1.2623
  117MOL   H26737619  -8.405   4.770   7.933 -1.1818 -2.0226 -2.8660
  117MOL   H26837620  -8.643   4.523   8.084 -2.6612 -0.6085 -2.0461
  117MOL   H26937621  -8.841   4.590   8.217 -0.0477  0.3951 -0.1380
  117MOL   H27037622  -8.980   4.758   8.314 -0.1068  0.7729  0.3183
  117MOL   H27137623  -8.921   4.920   8.347  0.6283  0.5525 -1.2859
  117MOL   H27237624  -8.723   5.010   8.189  0.7430  0.4257 -2.6286
  117MOL   H27337625  -8.509   4.937   8.095  1.9099 -1.4200  3.0502
  117MOL   C27437626  -9.037   4.902   8.174 -0.0826  0.4823 -0.4522
  117MOL   C27537627  -9.179   4.927   8.233  0.3544  0.1682 -0.3810
  117MOL   C27637628  -9.259   4.815   8.262  0.1712 -0.3527  0.5661
  117MOL   C27737629  -9.390   4.835   8.309 -0.7601 -0.5315 -0.7400
  117MOL   C27837630  -9.444   4.967   8.317 -0.6565 -0.5271 -0.1921
  117MOL   C27937631  -9.582   4.989   8.386 -0.1823 -0.4202 -0.4652
  117MOL   C28037632  -9.359   5.079   8.287 -0.5603  0.2113 -0.1312
  117MOL   C28137633  -9.224   5.058   8.242  0.9137 -0.5493  0.0429
  117MOL   H28237634  -8.994   4.981   8.112 -2.4402 -0.8311 -3.8872
  117MOL   H28337635  -9.042   4.823   8.099 -0.3200  1.1422 -1.1491
  117MOL   H28437636  -9.218   4.716   8.248  0.9400  0.3337 -2.3762
  117MOL   H28537637  -9.459   4.758   8.341 -0.1191 -0.1173  1.7541
  117MOL   H28637638  -9.622   5.054   8.308 -0.3173  0.5366  0.3907
  117MOL   H28737639  -9.631   4.893   8.369 -2.4685  0.9223 -1.7443
  117MOL   H28837640  -9.385   5.179   8.317  2.2296 -0.0090  3.3274
  117MOL   H28937641  -9.158   5.137   8.209 -0.5940  0.1237 -1.4253
  117MOL   C29037642  -9.589   5.033   8.529  0.7222 -0.7488  0.2381
  117MOL   C29137643  -9.728   5.054   8.582  1.1197  0.2041 -0.5074
  117MOL   C29237644  -9.743   5.075   8.723  0.7317  0.1388 -0.5848
  117MOL   C29337645  -9.870   5.101   8.776 -0.1508 -0.6853  0.7395
  117MOL   C29437646  -9.985   5.097   8.694  0.0201  0.2096  0.4439
  117MOL   C29537647 -10.126   5.116   8.754 -0.0476  0.2027 -0.2934
  117MOL   C29637648  -9.968   5.056   8.559  0.3791 -0.1249 -0.2644
  117MOL   C29737649  -9.841   5.035   8.501 -1.0554  0.6745  0.3779
  117MOL   H29837650  -9.535   5.127   8.544 -1.4664  0.7990 -1.3988
  117MOL   H29937651  -9.528   4.964   8.588  1.3201 -0.8701 -0.5025
  117MOL   H30037652  -9.657   5.089   8.787 -0.1254  1.0071  0.3946
  117MOL   H30137653  -9.884   5.108   8.883 -2.3938 -2.3529  0.5998
  117MOL   H30237654 -10.192   5.056   8.691 -1.2208 -0.5078  1.5649
  117MOL   H30337655 -10.130   5.077   8.856 -0.1780  0.1849 -0.3057
  117MOL   H30437656 -10.054   5.033   8.498 -0.1496 -0.6681  0.6667
  117MOL   H30537657  -9.842   5.003   8.398 -0.4918  0.3725  0.4669
  117MOL   C30637658 -10.164   5.262   8.760  0.5303 -0.8534 -0.0429
  117MOL   C30737659 -10.303   5.304   8.820 -0.7787 -0.1274  0.0845
  117MOL   C30837660 -10.374   5.407   8.761 -0.8071  0.2135 -0.4678
  117MOL   C30937661 -10.497   5.445   8.821  0.7362 -0.5208 -0.6652
  117MOL   C31037662 -10.543   5.384   8.939  0.5573  0.1452  0.2741
  117MOL   C31137663 -10.673   5.440   8.984  0.2574  0.9629  0.0103
  117MOL   C31237664 -10.464   5.293   9.008  0.5344  0.9076 -0.1029
  117MOL   C31337665 -10.348   5.243   8.947 -0.5123  0.2510  0.1683
  117MOL   H31437666 -10.147   5.311   8.664  0.9465 -0.8619  0.0252
  117MOL   H31537667 -10.082   5.301   8.820  1.3835 -1.1751 -0.9885
  117MOL   H31637668 -10.347   5.460   8.672 -0.7257  1.3531  0.2261
  117MOL   H31737669 -10.557   5.518   8.768 -0.7616 -0.6106  0.8552
  117MOL   H31837670 -10.671   5.478   9.086  1.5749  1.6956 -0.2817
  117MOL   H31937671 -10.717   5.522   8.927  0.6862  1.8454  0.9328
  117MOL   H32037672 -10.483   5.236   9.099  0.2845 -0.8675 -1.2341
  117MOL   H32137673 -10.290   5.174   9.006 -2.0793 -1.6670 -0.4912
  117MOL   H32237674 -10.746   5.360   8.974 -0.4458  1.4341  1.2434
  118MOL     C137675   1.256   7.918   6.667 -0.4825 -0.6687 -0.7059
  118MOL     C237676   1.116   7.969   6.709  0.0892  0.2132 -0.6617
  118MOL     C337677   1.050   8.052   6.619  0.1140 -0.0665 -0.7822
  118MOL     C437678   0.932   8.114   6.652  0.5223 -0.0687 -0.1228
  118MOL     C537679   0.866   8.091   6.776  0.4272 -0.0365  0.5630
  118MOL     C637680   0.735   8.171   6.800 -0.0164  0.8783 -0.6272
  118MOL     C737681   0.929   8.006   6.870  0.6329 -0.1313  0.2866
  118MOL     C837682   1.052   7.940   6.835 -0.1236  0.6556 -0.0588
  118MOL     H937683   1.237   7.829   6.605 -0.9963 -1.2444  0.2642
  118MOL    H1037684   1.314   7.998   6.622  1.5578 -0.6699  1.8277
  118MOL    H1137685   1.102   8.063   6.525  0.7602 -2.3187 -0.7178
  118MOL    H1237686   0.881   8.175   6.578  0.5822 -0.1135 -0.2013
  118MOL    H1337687   0.719   8.199   6.904  1.5794  2.2547 -0.7192
  118MOL    H1437688   0.750   8.267   6.750 -3.4958  1.1986 -1.1761
  118MOL    H1537689   0.870   7.982   6.957  1.7178 -0.4594  0.9347
  118MOL    H1637690   1.100   7.880   6.911  2.5559  2.2109 -0.4651
  118MOL    H1737691   1.305   7.877   6.755  3.0239  2.1696 -1.2285
  118MOL    C1837692   0.608   8.114   6.743 -0.9073 -0.1488 -0.1238
  118MOL    C1937693   0.481   8.178   6.789 -0.0426 -0.3648 -0.5554
  118MOL    C2037694   0.447   8.159   6.927 -0.1483 -0.2383 -0.0348
  118MOL    C2137695   0.327   8.218   6.972  0.8031  0.0143  0.2223
  118MOL    C2237696   0.246   8.304   6.890  0.3988 -0.0387  0.2842
  118MOL    C2337697   0.118   8.371   6.939 -1.2413  0.2442  0.3165
  118MOL    C2437698   0.285   8.330   6.754 -0.2609 -0.4963  0.1608
  118MOL    C2537699   0.405   8.268   6.710 -0.0028  0.1091 -0.6984
  118MOL    H2637700   0.613   8.127   6.635 -0.5673  0.4030 -0.0429
  118MOL    H2737701   0.597   8.010   6.773 -1.3126 -0.0149  0.1937
  118MOL    H2837702   0.512   8.094   6.983 -0.9909  1.8297  3.5040
  118MOL    H2937703   0.305   8.196   7.075  0.1007  1.4023  0.3700
  118MOL    H3037704   0.114   8.468   6.891  0.3669  1.0322  1.7348
  118MOL    H3137705   0.136   8.380   7.046 -2.6678 -1.0975  0.6902
  118MOL    H3237706   0.228   8.393   6.687  0.3716 -0.6690 -0.5513
  118MOL    H3337707   0.453   8.291   6.616  3.2617  2.2697  1.3818
  118MOL    C3437708  -0.007   8.286   6.906 -0.3280  0.6021 -0.3566
  118MOL    C3537709  -0.132   8.359   6.962  0.1125 -0.1300 -0.1183
  118MOL    C3637710  -0.176   8.356   7.102  0.1935 -1.0277 -0.1777
  118MOL    C3737711  -0.301   8.420   7.140  0.1887  0.2771  0.3118
  118MOL    C3837712  -0.374   8.497   7.053 -0.5813  0.0647 -0.2634
  118MOL    C3937713  -0.484   8.595   7.101 -0.2806 -0.4598 -0.3323
  118MOL    C4037714  -0.330   8.498   6.920  0.2048 -0.0879  0.1184
  118MOL    C4137715  -0.208   8.437   6.875  0.4438  0.2050 -0.0732
  118MOL    H4237716   0.002   8.187   6.951 -2.2311 -0.1391 -1.5257
  118MOL    H4337717  -0.019   8.262   6.800 -0.5796  2.5495 -0.7852
  118MOL    H4437718  -0.133   8.297   7.181  0.6256 -0.0679  0.3084
  118MOL    H4537719  -0.326   8.405   7.244 -1.4307  0.1261 -0.0897
  118MOL    H4637720  -0.463   8.601   7.208 -3.0740  1.5171  0.1498
  118MOL    H4737721  -0.459   8.685   7.047 -1.6251  0.1386  0.0221
  118MOL    H4837722  -0.379   8.562   6.848  1.8392 -0.8377 -1.6916
  118MOL    H4937723  -0.186   8.450   6.770 -0.4972  0.3423 -0.2569
  118MOL    C5037724  -0.629   8.553   7.056 -0.2428  0.1272 -1.3323
  118MOL    C5137725  -0.749   8.607   7.151 -0.0875  0.0271 -0.0451
  118MOL    C5237726  -0.853   8.678   7.089  0.2293 -0.0964 -0.0049
  118MOL    C5337727  -0.962   8.732   7.162  0.3564  0.6969 -0.6023
  118MOL    C5437728  -0.963   8.705   7.302 -0.2190  0.2164 -0.5701
  118MOL    C5537729  -1.072   8.766   7.384 -0.6584 -0.1998  1.3056
  118MOL    C5637730  -0.865   8.626   7.366  0.4798  0.2689 -0.0930
  118MOL    C5737731  -0.756   8.578   7.290 -0.0028 -0.0356 -0.6009
  118MOL    H5837732  -0.641   8.446   7.066  1.0580  0.1451  0.5033
  118MOL    H5937733  -0.655   8.569   6.951  0.6540 -0.5123 -1.6526
  118MOL    H6037734  -0.847   8.693   6.982 -0.5317 -2.3273 -0.3785
  118MOL    H6137735  -1.045   8.789   7.122 -0.4713  0.7024  1.0661
  118MOL    H6237736  -1.034   8.811   7.475 -0.0949 -0.5911  1.2619
  118MOL    H6337737  -1.096   8.858   7.330  1.3828 -0.8393 -0.7571
  118MOL    H6437738  -0.856   8.617   7.473  0.2143 -1.7608 -0.2117
  118MOL    H6537739  -0.674   8.516   7.324  0.2762  0.7810  0.2532
  118MOL    C6637740  -1.195   8.672   7.395 -0.1129 -0.1679 -0.6432
  118MOL    C6737741  -1.311   8.743   7.461  0.1107 -0.0475 -0.5687
  118MOL    C6837742  -1.418   8.793   7.389  0.2011 -0.0662 -0.0338
  118MOL    C6937743  -1.531   8.846   7.458 -0.1841 -0.0616  0.3128
  118MOL    C7037744  -1.525   8.849   7.597 -0.5560 -0.0313  0.9808
  118MOL    C7137745  -1.649   8.894   7.660 -0.4301 -0.6611 -0.2367
  118MOL    C7237746  -1.409   8.814   7.663 -1.0049 -0.4955 -0.7011
  118MOL    C7337747  -1.300   8.758   7.599 -0.7365 -0.3860 -0.1187
  118MOL    H7437748  -1.166   8.584   7.453 -2.9071 -1.2881 -0.8185
  118MOL    H7537749  -1.228   8.628   7.300 -0.3215 -1.0692 -0.1657
  118MOL    H7637750  -1.413   8.790   7.281 -1.1617  1.2471 -0.1521
  118MOL    H7737751  -1.621   8.869   7.402  1.0001  0.4378 -1.4104
  118MOL    H7837752  -1.637   8.872   7.767 -1.7761  2.6084  0.6661
  118MOL    H7937753  -1.728   8.825   7.629  0.7627 -1.8751 -0.6152
  118MOL    H8037754  -1.413   8.799   7.770 -0.1973  1.0041 -0.4408
  118MOL    H8137755  -1.214   8.721   7.654  0.8311  3.0430 -0.1686
  118MOL    C8237756  -1.692   9.042   7.639  0.8081  0.0084 -0.9407
  118MOL    C8337757  -1.828   9.053   7.709 -0.7398 -0.9374  0.7958
  118MOL    C8437758  -1.843   9.091   7.845 -0.4883  0.3400 -0.2202
  118MOL    C8537759  -1.974   9.110   7.892  0.8016  0.2586 -0.8868
  118MOL    C8637760  -2.087   9.098   7.812  0.1575 -0.5697 -0.4329
  118MOL    C8737761  -2.221   9.122   7.876  0.4551  0.2189  0.0283
  118MOL    C8837762  -2.070   9.061   7.679 -0.1713 -0.2180 -0.2989
  118MOL    C8937763  -1.943   9.037   7.625 -0.3883 -0.9260 -0.0040
  118MOL    H9037764  -1.697   9.068   7.533  1.2091  0.5827 -0.8235
  118MOL    H9137765  -1.628   9.115   7.689 -1.9714  2.2668 -0.5446
  118MOL    H9237766  -1.757   9.121   7.903 -0.4640  0.3947 -0.2831
  118MOL    H9337767  -1.993   9.138   7.994 -1.3511  2.2520 -1.7963
  118MOL    H9437768  -2.258   9.032   7.926  0.4292  0.4150  0.3598
  118MOL    H9537769  -2.290   9.154   7.797 -3.0181  0.6641  3.0948
  118MOL    H9637770  -2.160   9.058   7.621 -0.7621 -0.7911  0.6286
  118MOL    H9737771  -1.934   9.011   7.521 -0.7016  0.7533 -0.4724
  118MOL    C9837772  -2.232   9.250   7.964  0.0820  0.1181  0.5624
  118MOL    C9937773  -2.367   9.251   8.027 -0.0820  0.0225  0.8972
  118MOL   C10037774  -2.377   9.208   8.155 -0.1903  0.4917  0.7073
  118MOL   C10137775  -2.508   9.188   8.206 -0.1662 -0.1334  0.5411
  118MOL   C10237776  -2.621   9.222   8.131 -0.4786  0.0256  0.0505
  118MOL   C10337777  -2.761   9.189   8.188  0.1062 -0.4484 -0.5882
  118MOL   C10437778  -2.606   9.298   8.015  0.1537  0.3102 -0.4177
  118MOL   C10537779  -2.479   9.313   7.957 -0.9056  0.0954  0.0349
  118MOL   H10637780  -2.212   9.340   7.906  2.9839 -2.3306 -2.4021
  118MOL   H10737781  -2.159   9.249   8.045  0.8959 -0.1596 -0.1723
  118MOL   H10837782  -2.291   9.175   8.211 -0.5968 -1.4979  0.1716
  118MOL   H10937783  -2.510   9.145   8.305  1.5914 -0.0095  0.6488
  118MOL   H11037784  -2.754   9.177   8.296  3.0495 -0.3597 -0.7393
  118MOL   H11137785  -2.823   9.277   8.172  0.6674  0.1992  0.6863
  118MOL   H11237786  -2.694   9.338   7.967 -0.4925 -0.8272 -0.1771
  118MOL   H11337787  -2.472   9.352   7.857 -2.3574 -0.3754 -0.2630
  118MOL   C11437788  -2.823   9.057   8.146 -0.9102  0.2314 -1.0759
  118MOL   C11537789  -2.739   8.936   8.177  0.2984 -0.3667 -0.4271
  118MOL   C11637790  -2.773   8.852   8.289  0.1855  0.4626  0.0855
  118MOL   C11737791  -2.691   8.740   8.323 -0.0950  0.3293 -0.4850
  118MOL   C11837792  -2.567   8.728   8.261 -0.0801 -0.3005 -0.3881
  118MOL   C11937793  -2.475   8.615   8.312  0.0898  0.2677  0.1654
  118MOL   C12037794  -2.526   8.818   8.159  0.6598  0.1714 -0.5843
  118MOL   C12137795  -2.618   8.915   8.111  0.0959 -0.5061 -0.0939
  118MOL   H12237796  -2.847   9.058   8.039 -1.2029 -2.6359 -1.0580
  118MOL   H12337797  -2.920   9.049   8.195  0.8503 -3.3745  2.0969
  118MOL   H12437798  -2.861   8.873   8.348  0.4921 -0.9713  1.0733
  118MOL   H12537799  -2.730   8.669   8.394  0.1281  0.8384  0.1476
  118MOL   H12637800  -2.376   8.660   8.323  0.3883  0.2048 -2.0044
  118MOL   H12737801  -2.506   8.578   8.410  3.2860  0.4637  1.3066
  118MOL   H12837802  -2.426   8.807   8.122  1.1662  0.7092  0.6131
  118MOL   H12937803  -2.595   8.973   8.023  1.4886  1.8082  1.7469
  118MOL   C13037804  -2.465   8.497   8.204  0.0082  0.2583 -0.1534
  118MOL   C13137805  -2.354   8.404   8.223 -0.2754  0.4773  0.5982
  118MOL   C13237806  -2.226   8.437   8.172  0.0156  0.3648  0.7864
  118MOL   C13337807  -2.121   8.344   8.183  0.2111  0.0732 -0.8946
  118MOL   C13437808  -2.140   8.224   8.248 -0.4444 -0.1384 -0.9965
  118MOL   C13537809  -2.030   8.119   8.258 -0.6461 -0.2555 -0.1263
  118MOL   C13637810  -2.267   8.195   8.310 -0.0949  0.0321 -0.7070
  118MOL   C13737811  -2.369   8.284   8.297  1.1153  0.4139  0.5105
  118MOL   H13837812  -2.433   8.546   8.112 -0.8225  5.8020  2.2668
  118MOL   H13937813  -2.551   8.436   8.178 -0.3803  0.8653 -0.3032
  118MOL   H14037814  -2.212   8.529   8.116 -1.6951  0.8484  1.1271
  118MOL   H14137815  -2.029   8.385   8.144  0.6858 -0.7135 -0.6266
  118MOL   H14237816  -1.948   8.155   8.319 -0.8841  0.2175 -0.0858
  118MOL   H14337817  -2.072   8.031   8.307 -2.4061  0.4077 -0.3941
  118MOL   H14437818  -2.293   8.098   8.349 -1.0844  0.3091 -0.6799
  118MOL   H14537819  -2.465   8.252   8.335 -0.0463  1.4804 -1.4181
  118MOL   C14637820  -1.983   8.082   8.116 -0.3636 -0.1889  0.1641
  118MOL   C14737821  -1.868   7.984   8.127  0.3956  0.2437  0.0057
  118MOL   C14837822  -1.727   8.022   8.116 -0.6068 -0.3608 -0.5729
  118MOL   C14937823  -1.622   7.931   8.139  0.0502 -0.1477  0.1247
  118MOL   C15037824  -1.656   7.794   8.171 -0.2346  0.3009  0.3843
  118MOL   C15137825  -1.555   7.684   8.188 -0.4798 -0.1187 -0.9174
  118MOL   C15237826  -1.791   7.762   8.195  0.3021 -0.1475 -0.3855
  118MOL   C15337827  -1.897   7.855   8.169 -0.2902 -0.5577  0.0363
  118MOL   H15437828  -1.944   8.170   8.065  2.9996 -2.2804 -1.0915
  118MOL   H15537829  -2.062   8.035   8.058 -1.7694  1.6453  0.5304
  118MOL   H15637830  -1.702   8.125   8.097 -3.2058  0.2595 -0.8692
  118MOL   H15737831  -1.518   7.957   8.128 -0.2757  1.3597  0.4995
  118MOL   H15837832  -1.470   7.710   8.251 -0.6535 -0.3723 -0.5771
  118MOL   H15937833  -1.591   7.604   8.252  1.1294  0.5738  0.8975
  118MOL   H16037834  -1.814   7.660   8.220 -2.4231  0.3037 -0.9634
  118MOL   H16137835  -1.997   7.828   8.199  0.4208 -0.2190  2.9383
  118MOL   C16237836  -1.520   7.624   8.054  0.9684  0.1020  0.5761
  118MOL   C16337837  -1.427   7.505   8.078 -0.1808  0.2018  0.0139
  118MOL   C16437838  -1.288   7.539   8.101 -0.8848 -0.0020  0.1454
  118MOL   C16537839  -1.188   7.441   8.125  0.0092 -0.2274 -0.4124
  118MOL   C16637840  -1.224   7.309   8.118  0.0054  0.7174 -0.6366
  118MOL   C16737841  -1.120   7.199   8.134  0.2326 -0.2306  0.3477
  118MOL   C16837842  -1.360   7.271   8.086  0.3833 -0.0127  0.2212
  118MOL   C16937843  -1.459   7.369   8.066 -0.5807 -0.4254 -0.2121
  118MOL   H17037844  -1.472   7.694   7.986 -1.9578  0.4551 -1.1593
  118MOL   H17137845  -1.609   7.591   8.001  0.3324  2.0998  0.4029
  118MOL   H17237846  -1.256   7.642   8.105  3.2932 -1.2744  1.5704
  118MOL   H17337847  -1.087   7.466   8.153  0.4247 -0.9402 -1.2632
  118MOL   H17437848  -1.032   7.262   8.148  0.5962 -0.7203  0.2926
  118MOL   H17537849  -1.139   7.151   8.230  0.1656  0.6966  0.7985
  118MOL   H17637850  -1.377   7.164   8.079 -0.6949  0.1754 -0.1828
  118MOL   H17737851  -1.562   7.347   8.042 -0.7344 -1.4732  1.3471
  118MOL   C17837852  -1.092   7.104   8.014  0.0355  0.2405 -0.6302
  118MOL   C17937853  -0.969   7.018   8.038  0.0332 -0.2761 -0.0832
  118MOL   C18037854  -0.955   6.937   8.147 -0.2390  0.9804  0.3556
  118MOL   C18137855  -0.846   6.856   8.181 -0.0008 -0.3695  0.1632
  118MOL   C18237856  -0.729   6.872   8.096  0.5413  0.0331 -0.0664
  118MOL   C18337857  -0.598   6.804   8.132 -0.6886  0.4591 -0.0518
  118MOL   C18437858  -0.736   6.962   7.987  0.5027  0.5559 -0.1021
  118MOL   C18537859  -0.851   7.040   7.964  0.6032 -0.0585  0.2867
  118MOL   H18637860  -1.072   7.150   7.917  0.2743 -1.5239 -1.4332
  118MOL   H18737861  -1.178   7.038   8.011  0.0100  0.2963 -1.1498
  118MOL   H18837862  -1.036   6.944   8.219  0.9335 -1.3697  1.9781
  118MOL   H18937863  -0.842   6.797   8.271 -0.6840  0.0986  0.5022
  118MOL   H19037864  -0.615   6.726   8.206  1.5315 -0.2666 -0.2592
  118MOL   H19137865  -0.576   6.744   8.044  0.6308  0.4670  0.2633
  118MOL   H19237866  -0.650   6.974   7.922  1.5640  1.8894  1.5211
  118MOL   H19337867  -0.839   7.114   7.886 -0.3980  1.3400  1.4335
  118MOL   C19437868  -0.484   6.908   8.168  0.3137  0.3043 -0.3700
  118MOL   C19537869  -0.348   6.841   8.190  0.3245  0.1313 -0.2454
  118MOL   C19637870  -0.290   6.853   8.316  0.4670 -0.1400 -0.0489
  118MOL   C19737871  -0.162   6.797   8.338 -0.2407  0.1509  0.2432
  118MOL   C19837872  -0.099   6.719   8.238  1.0165 -0.4327 -0.5438
  118MOL   C19937873   0.039   6.650   8.265  0.5644 -0.2461 -0.1795
  118MOL   C20037874  -0.169   6.687   8.122  0.3361  0.1315 -0.3866
  118MOL   C20137875  -0.291   6.750   8.099 -0.2275 -0.3357  0.0612
  118MOL   H20237876  -0.513   6.952   8.263  2.0558  0.3224  0.1767
  118MOL   H20337877  -0.484   6.998   8.108  1.6024  0.9884  0.6180
  118MOL   H20437878  -0.332   6.907   8.400  1.3114 -2.0166  1.6282
  118MOL   H20537879  -0.102   6.816   8.427  0.4100 -3.2876  0.5977
  118MOL   H20637880   0.040   6.592   8.358  0.1555  0.2661  0.1453
  118MOL   H20737881   0.054   6.579   8.184 -2.3381 -0.1129 -0.9014
  118MOL   H20837882  -0.127   6.619   8.049 -2.2792 -2.2541  0.2700
  118MOL   H20937883  -0.345   6.738   8.007 -0.9537 -0.1399  0.4536
  118MOL   C21037884   0.157   6.747   8.261 -0.8156 -0.2020  0.1260
  118MOL   C21137885   0.293   6.680   8.249  0.8863  0.2981  0.4181
  118MOL   C21237886   0.363   6.650   8.371  0.2650 -0.5297  1.0113
  118MOL   C21337887   0.491   6.591   8.366 -0.5729  0.8517 -0.2225
  118MOL   C21437888   0.552   6.569   8.238 -0.9163  0.0994 -0.7064
  118MOL   C21537889   0.696   6.527   8.228 -0.5573 -0.0168 -0.3805
  118MOL   C21637890   0.474   6.585   8.123 -0.8380  0.1733  0.2619
  118MOL   C21737891   0.347   6.645   8.120  0.0543 -0.2234 -0.1993
  118MOL   H21837892   0.169   6.817   8.344  2.9260 -2.2568  1.4641
  118MOL   H21937893   0.151   6.812   8.174  1.0647  0.6216  0.5737
  118MOL   H22037894   0.313   6.681   8.462  0.7546  1.5515  0.6051
  118MOL   H22137895   0.539   6.556   8.456 -1.8006  1.8785  0.8365
  118MOL   H22237896   0.728   6.489   8.325  1.9113  0.1040 -1.1226
  118MOL   H22337897   0.700   6.436   8.167  1.6988  0.7404 -1.4246
  118MOL   H22437898   0.511   6.552   8.028 -1.1696  0.3050  0.0853
  118MOL   H22537899   0.288   6.651   8.029  0.1711 -0.5146 -0.2935
  118MOL   C22637900   0.801   6.635   8.197  0.7949 -0.3608  0.3389
  118MOL   C22737901   0.950   6.597   8.201 -0.0130 -0.2278 -0.7853
  118MOL   C22837902   0.991   6.464   8.167 -0.0901  0.1449 -0.5131
  118MOL   C22937903   1.127   6.425   8.180  0.2653  0.0991  0.1662
  118MOL   C23037904   1.221   6.521   8.222  0.0879  0.7145  0.3577
  118MOL   C23137905   1.368   6.480   8.227 -0.3060  0.0895  0.0919
  118MOL   C23237906   1.185   6.657   8.253  0.5116  0.1515  0.6630
  118MOL   C23337907   1.050   6.690   8.242  0.8155 -0.4308 -0.5033
  118MOL   H23437908   0.783   6.725   8.256 -1.2738  0.4817 -1.5017
  118MOL   H23537909   0.784   6.669   8.095  1.4118  2.9901  1.2726
  118MOL   H23637910   0.922   6.394   8.122  0.3665 -0.8520  0.3399
  118MOL   H23737911   1.162   6.327   8.153 -1.2459 -0.3484 -0.1851
  118MOL   H23837912   1.424   6.514   8.314  0.3060 -0.8470  0.0679
  118MOL   H23937913   1.365   6.371   8.235 -0.5776 -0.0467 -1.6850
  118MOL   H24037914   1.261   6.721   8.295  0.0167  1.4139 -0.3248
  118MOL   H24137915   1.027   6.792   8.268  2.0967  0.2479 -1.9406
  118MOL   C24237916   1.431   6.519   8.095  0.2245 -0.1002 -0.3190
  118MOL   C24337917   1.578   6.480   8.079 -0.2308  0.6625 -0.4069
  118MOL   C24437918   1.610   6.367   8.004  0.3177 -0.0861  0.2246
  118MOL   C24537919   1.742   6.313   8.004 -0.3399 -0.4432 -0.7271
  118MOL   C24637920   1.843   6.380   8.076 -0.0023  1.7387 -0.4426
  118MOL   C24737921   1.986   6.322   8.081  0.2975  0.5067  0.1051
  118MOL   C24837922   1.809   6.499   8.153  0.1999  0.3649  0.6984
  118MOL   C24937923   1.679   6.540   8.161  1.0681  0.0698  0.4991
  118MOL   H25037924   1.372   6.474   8.015  1.1964 -0.0450 -1.0765
  118MOL   H25137925   1.432   6.628   8.092 -2.1137 -0.0699 -1.2493
  118MOL   H25237926   1.530   6.318   7.950 -1.3498  3.1181 -0.3691
  118MOL   H25337927   1.756   6.219   7.954  3.3316 -0.7962  0.7962
  118MOL   H25437928   2.041   6.358   8.167 -0.1333  0.5796  0.3540
  118MOL   H25537929   1.983   6.214   8.095  0.8605  0.4676 -0.0867
  118MOL   H25637930   1.890   6.552   8.202  0.3554  0.2161  0.6029
  118MOL   H25737931   1.650   6.628   8.217 -0.8321  2.1589 -3.5438
  118MOL   C25837932   2.078   6.370   7.963  0.2504 -0.2834 -0.5420
  118MOL   C25937933   2.220   6.317   7.974 -0.2458  0.0469  0.3469
  118MOL   C26037934   2.322   6.395   8.021 -1.0856  0.0852 -0.3778
  118MOL   C26137935   2.451   6.338   8.032 -0.4503 -0.2683  0.3442
  118MOL   C26237936   2.481   6.205   7.996  0.3019 -0.5709  0.4561
  118MOL   C26337937   2.625   6.158   7.992  0.7168  0.3636 -0.3688
  118MOL   C26437938   2.371   6.131   7.943 -0.1479  0.2589 -0.1314
  118MOL   C26537939   2.243   6.189   7.924  0.1129 -0.3055  0.9726
  118MOL   H26637940   2.092   6.478   7.958 -2.0228  0.0578  0.1552
  118MOL   H26737941   2.038   6.350   7.863 -2.5895 -1.5785  0.8055
  118MOL   H26837942   2.305   6.486   8.076 -1.1468 -0.6938  0.9033
  118MOL   H26937943   2.532   6.402   8.063 -1.4012  1.2547 -0.2513
  118MOL   H27037944   2.678   6.185   7.900  1.8398 -0.6138 -0.0099
  118MOL   H27137945   2.676   6.204   8.077 -0.8395 -0.4463  1.0200
  118MOL   H27237946   2.385   6.032   7.901  0.0060  1.1457 -2.2651
  118MOL   H27337947   2.173   6.135   7.862 -0.5350  0.0228  1.4179
  118MOL   C27437948   2.643   6.002   8.004  0.4306  0.0936  0.6730
  118MOL   C27537949   2.784   5.958   8.032  0.2679 -0.2436  0.7460
  118MOL   C27637950   2.847   6.002   8.144 -0.1664  0.5233 -0.9174
  118MOL   C27737951   2.982   5.970   8.164 -0.4264  0.3562  0.1287
  118MOL   C27837952   3.047   5.875   8.084  0.1117  0.1872  0.8065
  118MOL   C27937953   3.188   5.829   8.122  0.0984 -0.8650 -0.1769
  118MOL   C28037954   2.978   5.831   7.966  0.3369 -0.0209  0.2692
  118MOL   C28137955   2.842   5.868   7.943 -0.1385  0.3069 -1.1283
  118MOL   H28237956   2.579   5.968   8.085  0.5246  1.7444  1.4577
  118MOL   H28337957   2.602   5.953   7.916 -2.2225 -0.4023  2.1563
  118MOL   H28437958   2.804   6.069   8.217  0.4468 -0.4375  0.3429
  118MOL   H28537959   3.035   6.002   8.253  0.7709  0.7845 -0.7354
  118MOL   H28637960   3.220   5.849   8.225  1.2468 -1.9155 -0.3168
  118MOL   H28737961   3.198   5.721   8.113 -0.3292 -0.7787 -1.7425
  118MOL   H28837962   3.023   5.755   7.904 -0.7826 -1.6391  1.4093
  118MOL   H28937963   2.790   5.828   7.857 -0.0781 -1.6096 -0.2849
  118MOL   C29037964   3.286   5.886   8.014  0.5167 -0.0538 -0.4810
  118MOL   C29137965   3.428   5.823   8.025  0.0540 -0.8847  0.8155
  118MOL   C29237966   3.535   5.891   8.087  0.3778 -0.0049  0.3421
  118MOL   C29337967   3.669   5.833   8.090  0.5793 -0.2308  0.4980
  118MOL   C29437968   3.689   5.716   8.017 -0.3785  0.3461 -0.1481
  118MOL   C29537969   3.827   5.658   7.999  0.3688 -0.5704 -0.0624
  118MOL   C29637970   3.581   5.641   7.974 -0.0073 -0.0505 -0.2553
  118MOL   C29737971   3.447   5.688   7.981  0.3369 -0.1144  0.2679
  118MOL   H29837972   3.290   5.995   8.014  2.1194 -0.0892 -1.7961
  118MOL   H29937973   3.258   5.871   7.909 -0.8401  2.4415 -0.5143
  118MOL   H30037974   3.506   5.990   8.118 -2.2294 -0.3812 -0.7342
  118MOL   H30137975   3.747   5.878   8.149 -0.3504  1.6958  0.2716
  118MOL   H30237976   3.868   5.633   8.097  0.3177 -0.1575  0.0634
  118MOL   H30337977   3.817   5.568   7.938 -4.2026  0.7011 -1.3706
  118MOL   H30437978   3.605   5.546   7.930 -0.7871 -0.2346 -0.2910
  118MOL   H30537979   3.369   5.630   7.934 -0.5832 -0.7389  2.4675
  118MOL   C30637980   3.924   5.750   7.934 -0.5047 -0.6681 -0.4307
  118MOL   C30737981   4.056   5.682   7.902 -0.0299  0.4984 -0.7366
  118MOL   C30837982   4.061   5.591   7.794 -0.1231  0.0859 -0.5092
  118MOL   C30937983   4.185   5.521   7.780 -0.3119 -0.3465 -0.0083
  118MOL   C31037984   4.295   5.546   7.862 -0.2641  0.4648  0.2679
  118MOL   C31137985   4.424   5.467   7.841  0.5113  0.6656  0.0631
  118MOL   C31237986   4.293   5.642   7.961  0.0786 -0.6329 -0.3445
  118MOL   C31337987   4.171   5.707   7.984  0.5279 -0.3305  0.6235
  118MOL   H31437988   3.941   5.836   7.998 -1.4804 -0.1880 -0.8038
  118MOL   H31537989   3.882   5.778   7.837  1.8916 -0.0395 -1.3232
  118MOL   H31637990   3.981   5.570   7.725  0.7886 -0.5502 -1.3735
  118MOL   H31737991   4.192   5.441   7.707  3.1726  0.7400 -0.9935
  118MOL   H31837992   4.470   5.457   7.940  1.0938  0.2949 -0.2487
  118MOL   H31937993   4.403   5.369   7.799  2.9923 -0.2666  0.9115
  118MOL   H32037994   4.377   5.655   8.027 -0.0132  1.3401 -0.5683
  118MOL   H32137995   4.158   5.771   8.070 -1.2268  0.9322 -0.5430
  118MOL   H32237996   4.483   5.520   7.767  1.4550  0.8410  0.9343
  119MOL     C137997   4.339   2.200   5.114 -0.4058  0.5504 -0.4341
  119MOL     C237998   4.488   2.181   5.086  0.1103 -0.1198 -0.8576
  119MOL     C337999   4.581   2.145   5.188 -0.3587 -0.1880 -0.6371
  119MOL     C438000   4.712   2.119   5.140  0.4825 -0.2625  0.1180
  119MOL     C538001   4.752   2.131   5.002  0.4342 -0.2552 -0.6402
  119MOL     C638002   4.895   2.107   4.947  0.7127 -0.1527  0.0965
  119MOL     C738003   4.655   2.173   4.912  0.0501 -0.9051 -0.2132
  119MOL     C838004   4.521   2.192   4.951  0.1996 -0.2702  0.2867
  119MOL     H938005   4.332   2.304   5.148 -0.7067 -0.5589  3.0341
  119MOL    H1038006   4.268   2.185   5.033 -0.0894 -0.3180 -0.5609
  119MOL    H1138007   4.549   2.123   5.288  0.1536 -1.6659 -0.7922
  119MOL    H1238008   4.788   2.083   5.208  1.1732 -2.2190 -1.6313
  119MOL    H1338009   4.887   2.145   4.845 -2.9661  0.3821  0.5103
  119MOL    H1438010   4.961   2.156   5.018 -0.1143  2.8404 -1.0804
  119MOL    H1538011   4.676   2.196   4.809  1.6161 -0.0425  0.2897
  119MOL    H1638012   4.450   2.233   4.880  0.4555 -1.6666 -0.7864
  119MOL    H1738013   4.305   2.138   5.196 -0.6082  1.8930  0.5176
  119MOL    C1838014   4.921   1.962   4.937  0.5741  0.6740 -0.5920
  119MOL    C1938015   5.067   1.937   4.906 -0.0489 -0.3169  0.4958
  119MOL    C2038016   5.158   1.900   5.015  0.5810 -0.2562  0.5471
  119MOL    C2138017   5.293   1.884   4.983  0.3004 -0.9494 -0.0144
  119MOL    C2238018   5.340   1.902   4.856  0.5685  0.2301 -0.5228
  119MOL    C2338019   5.489   1.886   4.841  0.0984  0.1893 -0.2485
  119MOL    C2438020   5.257   1.941   4.748 -0.2009  0.2930  0.0857
  119MOL    C2538021   5.117   1.957   4.774 -0.4003 -1.0815 -0.0550
  119MOL    H2638022   4.902   1.913   5.033  0.4343 -1.4191 -1.6479
  119MOL    H2738023   4.855   1.911   4.866  0.5942  1.6907 -1.3485
  119MOL    H2838024   5.127   1.893   5.118  1.5491  2.1378  1.0442
  119MOL    H2938025   5.354   1.859   5.069  1.5203 -1.2615 -0.9688
  119MOL    H3038026   5.541   1.919   4.932 -2.9712 -0.1186  1.6895
  119MOL    H3138027   5.521   1.957   4.765 -1.2994  1.6448  0.4878
  119MOL    H3238028   5.297   1.969   4.652 -0.4925  0.6720  0.0732
  119MOL    H3338029   5.046   1.982   4.697  0.1630  2.0399  0.3429
  119MOL    C3438030   5.532   1.740   4.805  0.0374 -0.2740  0.0949
  119MOL    C3538031   5.680   1.724   4.807  0.1109 -1.2566 -0.1652
  119MOL    C3638032   5.746   1.736   4.685  0.1482 -0.5581 -0.0379
  119MOL    C3738033   5.888   1.719   4.684  0.0367  0.3435 -0.2276
  119MOL    C3838034   5.964   1.686   4.798 -0.4783  0.5662  0.0067
  119MOL    C3938035   6.115   1.683   4.782 -0.2021 -0.2230 -0.3871
  119MOL    C4038036   5.893   1.672   4.921  0.1781  0.3406  0.0562
  119MOL    C4138037   5.752   1.681   4.923 -0.7372 -1.0217 -0.4931
  119MOL    H4238038   5.500   1.716   4.704  0.8330 -2.7146  0.3869
  119MOL    H4338039   5.491   1.684   4.889  0.3551  0.4173  0.7205
  119MOL    H4438040   5.686   1.760   4.599  0.4532  0.2007 -0.0428
  119MOL    H4538041   5.947   1.747   4.598  1.7107  0.4297  0.9415
  119MOL    H4638042   6.167   1.755   4.718  0.9575 -0.9222 -0.2524
  119MOL    H4738043   6.153   1.711   4.880 -1.0466  0.8265 -0.3537
  119MOL    H4838044   5.947   1.655   5.013  0.8151  0.5215 -0.2818
  119MOL    H4938045   5.704   1.660   5.017 -1.0338  0.6298 -0.2641
  119MOL    C5038046   6.165   1.544   4.767  0.0437 -0.6204 -0.0181
  119MOL    C5138047   6.315   1.548   4.745 -0.0877 -0.4502 -0.1437
  119MOL    C5238048   6.378   1.576   4.624  0.3764  0.1425  0.2376
  119MOL    C5338049   6.517   1.560   4.611  0.4231 -0.1961 -0.2515
  119MOL    C5438050   6.591   1.520   4.726 -0.2218  0.0173 -0.1256
  119MOL    C5538051   6.739   1.490   4.730 -0.1597  0.4994  0.0787
  119MOL    C5638052   6.527   1.490   4.849 -0.2126  0.0864 -0.2755
  119MOL    C5738053   6.391   1.496   4.856  0.3292 -0.2341 -0.5852
  119MOL    H5838054   6.124   1.492   4.681  0.8318 -1.9902  0.4180
  119MOL    H5938055   6.145   1.484   4.855 -0.5992  1.3149  1.1858
  119MOL    H6038056   6.327   1.602   4.532 -0.0545 -1.3365  0.0428
  119MOL    H6138057   6.566   1.573   4.515  1.1452  1.6500  0.3358
  119MOL    H6238058   6.783   1.540   4.643  0.2617  0.2057  0.1173
  119MOL    H6338059   6.785   1.548   4.811  0.8101 -1.5035  1.0065
  119MOL    H6438060   6.585   1.458   4.934 -0.5347 -0.5044 -0.2749
  119MOL    H6538061   6.352   1.477   4.955 -0.5160  1.6502 -0.5341
  119MOL    C6638062   6.763   1.335   4.712 -0.2418 -0.0701  0.2737
  119MOL    C6738063   6.904   1.304   4.706  0.0718  0.6580  0.5775
  119MOL    C6838064   6.983   1.296   4.827  0.1288  0.0118 -0.9815
  119MOL    C6938065   7.120   1.266   4.815  0.8268  0.3576  0.2071
  119MOL    C7038066   7.182   1.268   4.694  0.2101  0.0725  0.3577
  119MOL    C7138067   7.334   1.257   4.669 -0.1447  0.4750 -0.3577
  119MOL    C7238068   7.103   1.266   4.573  0.3951  0.2806  0.2400
  119MOL    C7338069   6.965   1.282   4.580  0.0192  0.1160 -0.0525
  119MOL    H7438070   6.718   1.306   4.617 -0.0668  0.3146  0.0736
  119MOL    H7538071   6.717   1.280   4.794 -2.5099  0.6398 -0.4849
  119MOL    H7638072   6.930   1.300   4.921  0.9835 -1.3710 -0.4246
  119MOL    H7738073   7.181   1.260   4.904  0.6390  0.2878  0.3306
  119MOL    H7838074   7.379   1.330   4.736  0.8953 -0.2737 -0.2332
  119MOL    H7938075   7.352   1.291   4.567  1.0859  3.1247  0.6913
  119MOL    H8038076   7.152   1.240   4.480  3.9749 -0.2291  2.1644
  119MOL    H8138077   6.911   1.262   4.489 -0.8646 -1.0461  0.7086
  119MOL    C8238078   7.387   1.114   4.705  0.2506 -0.5848  0.1516
  119MOL    C8338079   7.535   1.094   4.682  0.4277 -0.0026 -0.6408
  119MOL    C8438080   7.604   1.002   4.762 -0.8444  0.2358  0.5319
  119MOL    C8538081   7.742   0.976   4.742 -0.4556 -0.3780  0.1833
  119MOL    C8638082   7.808   1.040   4.630  0.3129 -0.5191  0.7194
  119MOL    C8738083   7.943   0.992   4.584 -0.0541  0.1827  0.4360
  119MOL    C8838084   7.734   1.141   4.558  0.6722 -0.0084  0.4112
  119MOL    C8938085   7.596   1.170   4.584 -0.2521 -0.0240  0.2040
  119MOL    H9038086   7.337   1.041   4.641  0.6976 -1.0164  0.2922
  119MOL    H9138087   7.367   1.085   4.808 -1.8985 -0.5498 -0.2431
  119MOL    H9238088   7.564   0.923   4.825  0.3765 -3.2232 -2.8225
  119MOL    H9338089   7.794   0.909   4.808  1.2567 -0.6521 -1.3893
  119MOL    H9438090   8.014   0.977   4.666  1.0140 -0.0135 -0.5081
  119MOL    H9538091   8.002   1.065   4.529  0.4196 -0.6873 -0.2370
  119MOL    H9638092   7.791   1.192   4.482  0.7051  0.2197  0.5868
  119MOL    H9738093   7.544   1.239   4.519 -2.7755 -2.8689 -0.9200
  119MOL    C9838094   7.953   0.877   4.482 -0.2136  0.0461  0.1235
  119MOL    C9938095   8.092   0.851   4.422  0.5158  0.7512 -0.4076
  119MOL   C10038096   8.112   0.827   4.283 -0.2903  0.0908 -0.0660
  119MOL   C10138097   8.236   0.785   4.230 -0.4590 -0.2708 -0.9581
  119MOL   C10238098   8.340   0.759   4.321 -0.2599 -0.3345  0.0013
  119MOL   C10338099   8.466   0.709   4.258 -0.0161 -0.0400 -0.2473
  119MOL   C10438100   8.329   0.789   4.458 -0.6934  0.2734 -0.0196
  119MOL   C10538101   8.204   0.830   4.505  0.3204 -0.5349  0.7455
  119MOL   H10638102   7.885   0.906   4.402 -1.7970 -1.2837  0.9531
  119MOL   H10738103   7.919   0.787   4.534  0.1221 -0.6632 -0.8754
  119MOL   H10838104   8.023   0.830   4.223 -0.2110  3.1580 -0.1166
  119MOL   H10938105   8.252   0.768   4.124  1.4623 -0.0386 -0.7219
  119MOL   H11038106   8.451   0.602   4.252 -1.0447 -0.0204  1.7514
  119MOL   H11138107   8.476   0.744   4.155  2.2848  0.3379  0.0669
  119MOL   H11238108   8.413   0.781   4.526 -1.2324 -1.6557  0.4491
  119MOL   H11338109   8.200   0.863   4.607  1.6999  4.1689 -0.5655
  119MOL   C11438110   8.600   0.738   4.319  0.7537 -0.2846 -0.1000
  119MOL   C11538111   8.722   0.669   4.261 -0.2512 -0.5372 -0.3548
  119MOL   C11638112   8.746   0.536   4.283 -0.0859 -0.6709  0.6216
  119MOL   C11738113   8.856   0.471   4.225  0.6543 -0.6838  0.4353
  119MOL   C11838114   8.947   0.539   4.133 -0.5699  0.0889 -0.5094
  119MOL   C11938115   9.067   0.465   4.071  0.3986  0.4707  0.4644
  119MOL   C12038116   8.915   0.676   4.116 -0.1645 -0.2762  0.1234
  119MOL   C12138117   8.810   0.738   4.181  0.4833  0.3372 -0.2617
  119MOL   H12238118   8.602   0.722   4.427  0.8935 -0.5115 -0.1354
  119MOL   H12338119   8.625   0.844   4.312  0.6470 -0.2012  0.6883
  119MOL   H12438120   8.679   0.486   4.351 -1.8813 -1.2471 -1.5081
  119MOL   H12538121   8.859   0.369   4.260 -1.3457 -0.8893  0.0609
  119MOL   H12638122   9.038   0.360   4.065 -0.7144  0.8108 -0.2669
  119MOL   H12738123   9.084   0.502   3.970 -0.1147 -1.2097 -0.2494
  119MOL   H12838124   8.970   0.736   4.044 -1.3237  1.8986  1.0121
  119MOL   H12938125   8.791   0.843   4.161  0.4252  0.9403  2.7462
  119MOL   C13038126   9.189   0.503   4.160  0.0984 -0.1059  0.6512
  119MOL   C13138127   9.313   0.411   4.134 -1.0037 -0.6615 -0.4583
  119MOL   C13238128   9.435   0.471   4.109  0.2829 -0.1760 -0.3004
  119MOL   C13338129   9.554   0.397   4.100 -0.3815  0.6714 -0.1957
  119MOL   C13438130   9.551   0.257   4.112  0.8790 -0.1786 -0.4115
  119MOL   C13538131   9.681   0.172   4.106 -0.7953 -0.0699  0.9684
  119MOL   C13638132   9.427   0.194   4.129 -0.1807 -0.3527  0.0711
  119MOL   C13738133   9.304   0.269   4.130  0.0443 -0.0348  0.1388
  119MOL   H13838134   9.156   0.494   4.263 -1.3747  1.6322  0.3712
  119MOL   H13938135   9.230   0.604   4.153  1.0653 -0.5040  0.5548
  119MOL   H14038136   9.447   0.578   4.110 -0.3271 -0.1060  0.2723
  119MOL   H14138137   9.648   0.447   4.081  0.7754 -0.5086  2.1815
  119MOL   H14238138   9.683   0.111   4.197 -0.5633 -0.3245  0.7908
  119MOL   H14338139   9.679   0.099   4.026 -0.7040  0.4983  0.4481
  119MOL   H14438140   9.420   0.086   4.138 -0.2312 -0.3099  0.6022
  119MOL   H14538141   9.207   0.222   4.140 -0.4804  1.3334  1.6827
  119MOL   C14638142   9.809   0.255   4.097 -0.0365 -0.2449 -0.7479
  119MOL   C14738143   9.928   0.166   4.066 -0.0038 -0.2154 -0.4962
  119MOL   C14838144  10.018   0.191   3.961  0.1034  0.2907  0.6712
  119MOL   C14938145  10.134   0.115   3.938 -0.9191 -0.3696 -0.6804
  119MOL   C15038146  10.169   0.007   4.026 -1.0238 -0.6893  0.8095
  119MOL   C15138147  10.295  -0.075   4.005  0.1585  0.4128 -0.0160
  119MOL   C15238148  10.075  -0.029   4.125 -0.6509  0.8045  0.5166
  119MOL   C15338149   9.958   0.050   4.150  0.6236  0.1653  0.1615
  119MOL   H15438150   9.837   0.314   4.184 -1.2142  0.6909 -0.9960
  119MOL   H15538151   9.794   0.323   4.013  1.1791 -0.3067 -1.0337
  119MOL   H15638152   9.993   0.266   3.887  1.3755 -0.3491 -0.4223
  119MOL   H15738153  10.186   0.131   3.845  0.6475 -0.6415  0.1332
  119MOL   H15838154  10.284  -0.179   4.032 -4.2350  0.2115 -2.1070
  119MOL   H15938155  10.326  -0.078   3.900 -1.7744 -0.5290 -0.5784
  119MOL   H16038156  10.097  -0.097   4.206  1.7485  0.7043 -0.1644
  119MOL   H16138157   9.905   0.008   4.234  2.1469 -2.1981 -0.0066
  119MOL   C16238158  10.406  -0.001   4.070 -0.2022 -0.5041 -0.3102
  119MOL   C16338159  10.535  -0.079   4.068  0.5237 -0.0050  0.0306
  119MOL   C16438160  10.568  -0.160   4.180 -0.0363  0.3109 -0.0461
  119MOL   C16538161  10.686  -0.233   4.179 -0.5745  0.2764  0.2038
  119MOL   C16638162  10.782  -0.216   4.076  0.3232 -0.0396 -0.4022
  119MOL   C16738163  10.911  -0.296   4.078  0.2532 -0.6415 -0.4446
  119MOL   C16838164  10.749  -0.141   3.967 -0.6730 -1.0655  0.1439
  119MOL   C16938165  10.629  -0.071   3.962  0.1455  0.3244 -0.7045
  119MOL   H17038166  10.379   0.026   4.172  0.3965  0.5009 -0.4101
  119MOL   H17138167  10.435   0.094   4.025  0.8755 -0.1941  0.9870
  119MOL   H17238168  10.503  -0.169   4.266  0.4671  0.9256  0.4136
  119MOL   H17338169  10.696  -0.296   4.266  3.1346  1.2352  0.5899
  119MOL   H17438170  10.885  -0.401   4.090 -2.0121 -0.3220 -2.1778
  119MOL   H17538171  10.952  -0.290   3.977  1.3165  2.1555  0.1085
  119MOL   H17638172  10.817  -0.148   3.884  0.2000  0.3927  0.7216
  119MOL   H17738173  10.610  -0.006   3.879  1.0406  1.6956  0.1466
  119MOL   C17838174  11.011  -0.241   4.181  0.1256 -0.2944 -0.3200
  119MOL   C17938175  11.136  -0.326   4.182 -0.3245  0.0062  0.2990
  119MOL   C18038176  11.211  -0.333   4.063 -0.2078 -0.3625  0.0842
  119MOL   C18138177  11.326  -0.413   4.051 -0.3822 -0.5506  0.1350
  119MOL   C18238178  11.360  -0.491   4.160  0.0658  0.7195 -0.7949
  119MOL   C18338179  11.471  -0.590   4.145  0.2341  0.2389 -0.7168
  119MOL   C18438180  11.297  -0.476   4.282 -0.2157 -0.7720 -0.8249
  119MOL   C18538181  11.180  -0.393   4.294  0.2375 -0.0685 -0.5617
  119MOL   H18638182  10.958  -0.245   4.276 -1.8340 -0.3941 -1.3736
  119MOL   H18738183  11.038  -0.136   4.164  0.3079  0.1492  2.5843
  119MOL   H18838184  11.184  -0.274   3.976 -0.6169 -0.1562  0.3557
  119MOL   H18938185  11.367  -0.429   3.953 -1.3118 -1.0818 -0.1768
  119MOL   H19038186  11.512  -0.579   4.045 -4.3184  2.4264 -2.4877
  119MOL   H19138187  11.561  -0.589   4.206 -1.1800  1.7277  1.4489
  119MOL   H19238188  11.324  -0.525   4.374  0.5506 -0.1207 -0.6951
  119MOL   H19338189  11.136  -0.374   4.391  0.7938  1.9910 -0.6891
  119MOL   C19438190  11.417  -0.736   4.142 -0.8158  0.0736 -0.4675
  119MOL   C19538191  11.286  -0.754   4.073  0.6271  0.3835 -0.3824
  119MOL   C19638192  11.164  -0.753   4.152 -0.5416 -0.4050  0.6600
  119MOL   C19738193  11.039  -0.760   4.089 -0.6464  0.7892 -1.3208
  119MOL   C19838194  11.038  -0.781   3.947  0.5190  1.0890 -0.1710
  119MOL   C19938195  10.898  -0.769   3.879 -0.2231  0.5334 -0.4571
  119MOL   C20038196  11.157  -0.784   3.869 -0.3869 -0.1520  0.6053
  119MOL   C20138197  11.282  -0.768   3.937  0.2348 -0.4897  0.7368
  119MOL   H20238198  11.414  -0.783   4.241 -0.6931 -0.0115 -0.5036
  119MOL   H20338199  11.489  -0.796   4.087 -0.1887 -0.1524  0.5797
  119MOL   H20438200  11.181  -0.738   4.258  1.8206  2.0232 -0.0002
  119MOL   H20538201  10.948  -0.756   4.148 -0.6084 -0.9229 -1.0989
  119MOL   H20638202  10.898  -0.852   3.808 -1.9178  0.6817 -0.6487
  119MOL   H20738203  10.813  -0.785   3.946  1.1627 -2.3870  0.7199
  119MOL   H20838204  11.142  -0.785   3.762  0.1336  1.2906  0.5127
  119MOL   H20938205  11.378  -0.776   3.889 -0.9280 -2.6696 -1.2681
  119MOL   C21038206  10.889  -0.642   3.799 -0.0214 -0.0691 -0.2416
  119MOL   C21138207  10.746  -0.601   3.743  0.0014  0.3847  0.5068
  119MOL   C21238208  10.717  -0.465   3.741  0.5296  0.4852  0.4926
  119MOL   C21338209  10.599  -0.416   3.681  0.2411 -0.1413 -0.1940
  119MOL   C21438210  10.493  -0.506   3.651  0.9665 -0.3500 -0.1038
  119MOL   C21538211  10.356  -0.453   3.600  0.1676  0.8076  0.1792
  119MOL   C21638212  10.523  -0.645   3.658  0.0059  0.0823  0.1307
  119MOL   C21738213  10.654  -0.691   3.687  0.2446 -0.4933  0.7287
  119MOL   H21838214  10.951  -0.660   3.711 -0.6550 -1.8679 -0.3321
  119MOL   H21938215  10.935  -0.557   3.850  1.2284 -2.0068  1.9476
  119MOL   H22038216  10.787  -0.387   3.766  0.8073 -0.3540  2.3929
  119MOL   H22138217  10.585  -0.311   3.665  1.8509 -0.2311 -2.3928
  119MOL   H22238218  10.370  -0.353   3.559 -1.0621  1.4164  1.2116
  119MOL   H22338219  10.315  -0.521   3.524  0.2801  1.3587 -0.3751
  119MOL   H22438220  10.454  -0.721   3.625 -1.1890  1.4004 -0.4433
  119MOL   H22538221  10.687  -0.793   3.678  0.3124 -0.2490 -2.3057
  119MOL   C22638222  10.251  -0.453   3.713 -0.1312  0.2369  0.0053
  119MOL   C22738223  10.130  -0.372   3.687 -0.3081 -0.2292 -0.1096
  119MOL   C22838224  10.009  -0.424   3.637  0.6121 -0.5829 -0.5856
  119MOL   C22938225   9.903  -0.334   3.608 -0.5939  0.7293  0.0173
  119MOL   C23038226   9.913  -0.199   3.647 -0.5281 -0.1100 -0.5456
  119MOL   C23138227   9.797  -0.098   3.638  0.3368 -0.7460  0.0273
  119MOL   C23238228  10.030  -0.151   3.699 -0.0869 -0.4856  0.4266
  119MOL   C23338229  10.138  -0.238   3.719 -0.8933 -0.1475 -0.3564
  119MOL   H23438230  10.311  -0.420   3.798  0.1204 -0.7880  0.2298
  119MOL   H23538231  10.224  -0.555   3.739  0.5105 -0.6652 -2.7379
  119MOL   H23638232  10.003  -0.531   3.624  0.9899 -0.5637 -0.9119
  119MOL   H23738233   9.812  -0.378   3.569  0.2801  0.9388 -2.3707
  119MOL   H23838234   9.824  -0.033   3.555 -2.7026  1.5189  0.6932
  119MOL   H23938235   9.703  -0.149   3.619 -0.6275  0.8811  0.3195
  119MOL   H24038236  10.052  -0.048   3.723  2.1489 -0.2787 -2.2758
  119MOL   H24138237  10.233  -0.194   3.747 -0.9906 -0.6661  0.8412
  119MOL   C24238238   9.774  -0.012   3.770  0.1177  0.3099 -0.1249
  119MOL   C24338239   9.660   0.087   3.761  0.2866 -1.0446 -0.1200
  119MOL   C24438240   9.535   0.051   3.806  0.4233 -0.2737  0.3786
  119MOL   C24538241   9.429   0.144   3.808 -0.7218  0.1629  0.3640
  119MOL   C24638242   9.452   0.272   3.751  0.2039 -0.5492 -0.1736
  119MOL   C24738243   9.339   0.370   3.758  0.3941 -0.1053  0.8426
  119MOL   C24838244   9.585   0.313   3.703  0.4761 -0.3705 -0.1898
  119MOL   C24938245   9.688   0.221   3.710 -0.4487  0.4592 -0.4926
  119MOL   H25038246   9.751  -0.080   3.851  0.2607  0.4683  0.0478
  119MOL   H25138247   9.865   0.043   3.794 -0.3680  0.8825  0.4227
  119MOL   H25238248   9.520  -0.055   3.820 -2.9561  0.2544  1.0390
  119MOL   H25338249   9.328   0.117   3.836 -0.6058 -0.8178 -0.1593
  119MOL   H25438250   9.276   0.339   3.842  0.4019 -2.9128 -0.1284
  119MOL   H25538251   9.380   0.467   3.787  1.3059 -0.4450  0.7165
  119MOL   H25638252   9.603   0.412   3.665 -0.9297 -0.1725 -0.3427
  119MOL   H25738253   9.789   0.251   3.687  0.6235 -0.9042  2.2160
  119MOL   C25838254   9.250   0.377   3.634 -0.3390  0.9769 -0.0910
  119MOL   C25938255   9.125   0.456   3.656 -0.3425 -0.4789  0.5723
  119MOL   C26038256   9.119   0.595   3.633  0.7231 -0.4806 -0.2094
  119MOL   C26138257   8.997   0.654   3.654  0.1245 -0.3679 -0.4796
  119MOL   C26238258   8.884   0.588   3.699  0.2975  0.0683  0.4078
  119MOL   C26338259   8.751   0.657   3.725 -0.8294 -0.6472 -0.5359
  119MOL   C26438260   8.886   0.448   3.713 -0.3714 -0.9763 -0.7198
  119MOL   C26538261   9.009   0.384   3.696 -0.5062  0.1222  0.7393
  119MOL   H26638262   9.230   0.276   3.598  1.9673  0.9973 -1.4950
  119MOL   H26738263   9.293   0.424   3.547 -0.0683  0.5378 -0.1941
  119MOL   H26838264   9.201   0.651   3.590 -2.1620  3.0754 -1.3584
  119MOL   H26938265   8.990   0.758   3.624  0.6395 -0.1352  0.2005
  119MOL   H27038266   8.683   0.616   3.649  0.9863 -1.6788 -1.6301
  119MOL   H27138267   8.725   0.619   3.824 -0.9028  1.6940  0.3697
  119MOL   H27238268   8.802   0.390   3.750 -0.5139 -0.1498  0.2852
  119MOL   H27338269   9.015   0.279   3.718  0.6173 -0.1703 -0.8441
  119MOL   C27438270   8.745   0.810   3.735 -0.2501 -0.0258 -0.5127
  119MOL   C27538271   8.606   0.861   3.760 -0.0176 -0.8167 -0.1303
  119MOL   C27638272   8.507   0.852   3.660  0.3713  0.6392 -0.2173
  119MOL   C27738273   8.381   0.905   3.677 -0.2313 -0.0683 -0.0032
  119MOL   C27838274   8.341   0.955   3.804  0.2611 -0.1681 -0.5584
  119MOL   C27938275   8.199   0.999   3.841  0.6389  0.5494 -0.1608
  119MOL   C28038276   8.436   0.954   3.907 -0.3165  0.2192  0.5331
  119MOL   C28138277   8.568   0.904   3.889 -0.9327  0.2000 -0.0058
  119MOL   H28238278   8.799   0.847   3.822 -0.4809 -0.0838 -0.3440
  119MOL   H28338279   8.781   0.858   3.644 -0.9357  3.3346  0.8964
  119MOL   H28438280   8.527   0.802   3.566 -1.2079 -0.8736  0.2195
  119MOL   H28538281   8.295   0.907   3.612 -0.8592  0.6773  0.8308
  119MOL   H28638282   8.132   0.914   3.852 -1.0334  2.1352  2.7431
  119MOL   H28738283   8.208   1.056   3.934 -0.1350 -1.3642  1.1362
  119MOL   H28838284   8.401   0.982   4.006  0.7538 -2.1918  1.6196
  119MOL   H28938285   8.641   0.895   3.968  0.0911 -0.1304 -0.9572
  119MOL   C29038286   8.139   1.101   3.745  0.0501 -0.6045 -0.5150
  119MOL   C29138287   8.005   1.161   3.791  0.3329 -0.1555 -0.4117
  119MOL   C29238288   7.885   1.087   3.802 -0.2657 -0.2256  0.1826
  119MOL   C29338289   7.762   1.146   3.834 -0.3684 -0.3547 -0.2392
  119MOL   C29438290   7.752   1.286   3.852 -0.0032 -1.0316 -0.7504
  119MOL   C29538291   7.617   1.360   3.871  0.2441  0.3975  0.0303
  119MOL   C29638292   7.871   1.367   3.835  0.6148  0.1718  0.3485
  119MOL   C29738293   7.996   1.303   3.807 -0.4686 -0.2668 -0.2117
  119MOL   H29838294   8.105   1.035   3.665  1.6742 -0.9153 -0.9559
  119MOL   H29938295   8.210   1.178   3.718 -0.6748  0.5806  0.8548
  119MOL   H30038296   7.874   0.980   3.791  1.0521 -0.4499  0.9874
  119MOL   H30138297   7.673   1.084   3.841 -1.6696  1.6274  1.2869
  119MOL   H30238298   7.547   1.300   3.930  1.6946  0.0798  1.4739
  119MOL   H30338299   7.630   1.453   3.925  0.6839  0.2831  0.1238
  119MOL   H30438300   7.866   1.475   3.832  1.9692  0.2637  0.9896
  119MOL   H30538301   8.089   1.359   3.808 -1.5568  1.6176 -1.2565
  119MOL   C30638302   7.560   1.383   3.730 -0.1334 -0.1734 -0.1875
  119MOL   C30738303   7.423   1.453   3.719 -0.1554 -0.1145  0.3209
  119MOL   C30838304   7.418   1.582   3.662 -0.3548 -0.9609  0.2283
  119MOL   C30938305   7.294   1.647   3.644 -0.0113  0.0371  0.2557
  119MOL   C31038306   7.174   1.585   3.685  0.0582 -0.0654 -0.0229
  119MOL   C31138307   7.043   1.661   3.668 -0.4032  0.2825 -0.1282
  119MOL   C31238308   7.181   1.462   3.746 -0.7648  0.3587 -0.1598
  119MOL   C31338309   7.301   1.399   3.765  0.2484  0.1056  0.0093
  119MOL   H31438310   7.536   1.287   3.684  0.7104 -0.4246 -0.1187
  119MOL   H31538311   7.631   1.443   3.673 -0.2339  2.4450  2.3298
  119MOL   H31638312   7.510   1.626   3.626 -1.0796  0.7846  0.5144
  119MOL   H31738313   7.292   1.748   3.606  0.6890 -0.4659 -1.1270
  119MOL   H31838314   6.962   1.612   3.721  0.9157  0.6213  2.2371
  119MOL   H31938315   7.059   1.762   3.706 -0.5637 -0.2868  1.4508
  119MOL   H32038316   7.092   1.408   3.776 -0.2158 -0.7635 -0.5191
  119MOL   H32138317   7.301   1.303   3.814  2.3665 -0.6069 -1.3065
  119MOL   H32238318   7.018   1.672   3.562 -1.6712 -0.2992  0.0970
  120MOL     C138319   3.123   7.138   0.740 -0.4473  0.5781 -1.0946
  120MOL     C238320   3.254   7.121   0.665 -0.6426  0.1130  0.7382
  120MOL     C338321   3.282   7.207   0.559 -0.6663 -0.0308 -0.1627
  120MOL     C438322   3.402   7.198   0.485  0.8947  0.0792  0.2540
  120MOL     C538323   3.499   7.099   0.520 -0.0196 -0.8197  0.1875
  120MOL     C638324   3.630   7.074   0.441  0.4190 -0.3104  0.7354
  120MOL     C738325   3.467   7.010   0.626  0.2623 -0.3499 -0.6322
  120MOL     C838326   3.345   7.021   0.702  0.6288  0.6351 -0.3930
  120MOL     H938327   3.141   7.129   0.847  0.9460  0.1248 -1.3500
  120MOL    H1038328   3.059   7.223   0.716 -2.1445 -1.0993 -2.7609
  120MOL    H1138329   3.215   7.289   0.534 -0.3967  0.1003 -0.4647
  120MOL    H1238330   3.424   7.256   0.396  0.1079 -1.2201 -0.8147
  120MOL    H1338331   3.646   6.970   0.413 -2.1502 -0.2218 -1.3098
  120MOL    H1438332   3.614   7.125   0.346  0.2530 -1.6871 -0.0018
  120MOL    H1538333   3.524   6.919   0.632  0.5348 -0.2414 -1.4290
  120MOL    H1638334   3.313   6.946   0.772  0.1988  0.7561 -0.4565
  120MOL    H1738335   3.072   7.044   0.722  0.9889 -0.2006 -1.1824
  120MOL    C1838336   3.743   7.135   0.527  0.3602 -0.5634 -0.0687
  120MOL    C1938337   3.883   7.120   0.470  0.0147  0.2261  0.5993
  120MOL    C2038338   3.993   7.127   0.555  0.3628 -0.0442 -0.3713
  120MOL    C2138339   4.130   7.116   0.510  0.0837  0.4081  0.1169
  120MOL    C2238340   4.151   7.082   0.377  0.2804 -1.3440 -0.0030
  120MOL    C2338341   4.294   7.060   0.323 -0.0027 -0.4357  0.5080
  120MOL    C2438342   4.036   7.081   0.289 -0.0945  0.5512 -0.6221
  120MOL    C2538343   3.908   7.110   0.332  0.0227  0.2639  0.0031
  120MOL    H2638344   3.722   7.230   0.576  0.0707 -2.0860  2.9026
  120MOL    H2738345   3.744   7.071   0.616  1.0726  0.4454  0.6488
  120MOL    H2838346   3.978   7.155   0.659 -0.2440 -2.4048  0.2208
  120MOL    H2938347   4.210   7.149   0.574 -2.3533  1.2226  2.8841
  120MOL    H3038348   4.367   7.053   0.404 -0.8247  3.6939  1.7130
  120MOL    H3138349   4.328   7.144   0.263 -0.7146 -0.1310  0.5365
  120MOL    H3238350   4.056   7.071   0.184  3.1240 -0.0920  0.0061
  120MOL    H3338351   3.829   7.116   0.259  1.3383 -0.4285 -1.4932
  120MOL    C3438352   4.310   6.934   0.231 -0.5223  0.4878  0.6493
  120MOL    C3538353   4.455   6.910   0.192 -0.1738 -0.0207 -0.6375
  120MOL    C3638354   4.521   6.807   0.271  0.2988  0.0050  0.8172
  120MOL    C3738355   4.658   6.783   0.244  0.0944  0.6758 -0.5428
  120MOL    C3838356   4.726   6.851   0.150  0.0867  0.2579  0.5289
  120MOL    C3938357   4.871   6.806   0.119  0.1936 -0.3395  0.4890
  120MOL    C4038358   4.659   6.947   0.066 -0.3233 -0.0895 -0.0424
  120MOL    C4138359   4.522   6.974   0.088 -0.8407  0.3955  0.0564
  120MOL    H4238360   4.255   6.956   0.140  0.9753  1.7391  0.0124
  120MOL    H4338361   4.254   6.853   0.278 -3.0463  2.3232  0.9065
  120MOL    H4438362   4.468   6.763   0.354 -1.6759 -1.0611 -0.9848
  120MOL    H4538363   4.709   6.709   0.303 -1.1372  1.3038  1.3556
  120MOL    H4638364   4.921   6.901   0.137  0.6832 -1.1005  3.3574
  120MOL    H4738365   4.911   6.738   0.194  0.9899  0.4876  0.8168
  120MOL    H4838366   4.711   6.981  -0.023  0.6837  0.1606  0.6296
  120MOL    H4938367   4.482   7.047   0.020 -0.0596 -0.1983 -1.0541
  120MOL    C5038368   4.882   6.740  -0.017  0.0493 -0.4080 -0.7661
  120MOL    C5138369   5.024   6.752  -0.068  0.4383  0.0536  0.0830
  120MOL    C5238370   5.039   6.833  -0.179 -0.1476  0.2409 -0.0770
  120MOL    C5338371   5.159   6.846  -0.256  0.5437  0.3962  0.2726
  120MOL    C5438372   5.269   6.782  -0.200 -0.1224 -0.0703 -0.8044
  120MOL    C5538373   5.403   6.814  -0.271  0.4902 -0.1480 -0.2104
  120MOL    C5638374   5.261   6.702  -0.083  0.1803 -1.0087 -0.0299
  120MOL    C5738375   5.140   6.690  -0.012  1.0274  0.4409 -0.1177
  120MOL    H5838376   4.821   6.791  -0.091 -1.1597 -1.1487 -0.2804
  120MOL    H5938377   4.863   6.633  -0.011 -0.6442 -0.2051  0.8602
  120MOL    H6038378   4.957   6.883  -0.228 -1.3095 -1.3071  0.2561
  120MOL    H6138379   5.160   6.902  -0.348  1.6051 -0.5018 -0.2784
  120MOL    H6238380   5.397   6.923  -0.280 -1.3955 -0.3828 -2.3103
  120MOL    H6338381   5.492   6.787  -0.214 -0.4259 -1.7999  0.4627
  120MOL    H6438382   5.348   6.648  -0.049 -0.1305 -0.2231  2.1096
  120MOL    H6538383   5.130   6.619   0.069 -3.9640  1.8919  0.6593
  120MOL    C6638384   5.413   6.748  -0.417 -0.6144 -0.1669  0.4965
  120MOL    C6738385   5.549   6.763  -0.481  0.3148 -0.3248 -0.1670
  120MOL    C6838386   5.582   6.878  -0.562 -0.0062  0.0409 -0.2136
  120MOL    C6938387   5.716   6.888  -0.617  0.1644  0.6945 -0.5311
  120MOL    C7038388   5.808   6.782  -0.595 -0.0670 -0.7018 -0.3082
  120MOL    C7138389   5.949   6.787  -0.651 -0.1897 -0.8160  0.1305
  120MOL    C7238390   5.773   6.686  -0.500  0.0520  0.0779  0.0075
  120MOL    C7338391   5.647   6.666  -0.452 -0.2918 -0.0470 -0.3226
  120MOL    H7438392   5.346   6.804  -0.482 -1.4839  0.2172  1.7079
  120MOL    H7538393   5.397   6.642  -0.433 -1.3105 -0.0615  0.4931
  120MOL    H7638394   5.500   6.945  -0.586  0.2892 -0.3455 -2.4104
  120MOL    H7738395   5.737   6.965  -0.689  1.1074  0.3963 -0.5844
  120MOL    H7838396   6.008   6.720  -0.589 -1.3351 -1.3280  0.6879
  120MOL    H7938397   6.006   6.879  -0.642  0.0828 -1.0550  0.8548
  120MOL    H8038398   5.850   6.619  -0.465  1.0329  0.3503 -1.5797
  120MOL    H8138399   5.620   6.584  -0.387 -0.4213  0.4855  0.2974
  120MOL    C8238400   5.943   6.741  -0.794  0.1122  0.3200  0.3423
  120MOL    C8338401   6.076   6.692  -0.851  0.2633 -0.4944  0.5222
  120MOL    C8438402   6.190   6.779  -0.856 -0.4436  0.7503 -0.7531
  120MOL    C8538403   6.313   6.724  -0.888 -0.2089  0.6074  0.1419
  120MOL    C8638404   6.327   6.591  -0.932  0.6036 -0.6617  0.1947
  120MOL    C8738405   6.460   6.534  -0.975  0.3910  0.5958  0.8609
  120MOL    C8838406   6.211   6.512  -0.945  0.7322 -0.3565 -0.2352
  120MOL    C8938407   6.086   6.563  -0.898  0.5331 -0.1539  0.5991
  120MOL    H9038408   5.903   6.824  -0.853  0.9218  1.3752  1.2555
  120MOL    H9138409   5.878   6.655  -0.786 -0.3105  0.5353 -0.6520
  120MOL    H9238410   6.187   6.881  -0.821  0.6445  1.5476 -2.9215
  120MOL    H9338411   6.404   6.777  -0.866  0.6373 -0.9083  0.3640
  120MOL    H9438412   6.464   6.426  -0.985  3.5355  0.6763  0.4911
  120MOL    H9538413   6.524   6.557  -0.890 -0.8698 -0.1518  2.0325
  120MOL    H9638414   6.215   6.409  -0.976  2.2268 -0.8679  1.5449
  120MOL    H9738415   5.994   6.508  -0.909  0.5283 -0.4112  1.8605
  120MOL    C9838416   6.518   6.564  -1.111  1.1856  0.1688  0.3105
  120MOL    C9938417   6.646   6.498  -1.128 -0.0683 -0.1895 -0.2289
  120MOL   C10038418   6.659   6.377  -1.203 -0.6112 -0.1445 -0.3081
  120MOL   C10138419   6.780   6.317  -1.223 -0.1485  0.7473 -0.1134
  120MOL   C10238420   6.898   6.362  -1.153  0.3756  0.2489 -0.1094
  120MOL   C10338421   7.032   6.280  -1.165 -0.6628 -0.6286 -0.5391
  120MOL   C10438422   6.882   6.475  -1.072  0.3791  0.0062 -0.3593
  120MOL   C10538423   6.762   6.541  -1.054  0.3271  0.1288  0.4631
  120MOL   H10638424   6.560   6.664  -1.117  0.9648  0.2963  0.8334
  120MOL   H10738425   6.455   6.523  -1.190  1.4342 -1.8864  1.1557
  120MOL   H10838426   6.579   6.332  -1.261  0.5767 -0.7733 -1.4868
  120MOL   H10938427   6.791   6.231  -1.288  3.2466  1.6446 -0.8164
  120MOL   H11038428   7.090   6.296  -1.073  0.4951  0.1156 -1.3857
  120MOL   H11138429   6.994   6.178  -1.160  0.8457 -1.1329  2.1011
  120MOL   H11238430   6.965   6.509  -1.012  0.2885  1.3531 -0.9821
  120MOL   H11338431   6.753   6.624  -0.986  0.2418  0.5088 -0.0091
  120MOL   C11438432   7.123   6.327  -1.284 -0.1641  1.1761  0.1201
  120MOL   C11538433   7.257   6.254  -1.313  0.0217 -0.3234  0.1032
  120MOL   C11638434   7.272   6.170  -1.425  0.1091  0.1406 -0.1609
  120MOL   C11738435   7.397   6.105  -1.452  0.1527 -0.3564  0.2654
  120MOL   C11838436   7.508   6.124  -1.366 -0.4561 -0.3444 -0.0174
  120MOL   C11938437   7.651   6.076  -1.405 -0.3653  0.2149  0.2331
  120MOL   C12038438   7.487   6.200  -1.250  0.0698 -0.2142 -0.3696
  120MOL   C12138439   7.365   6.258  -1.215 -0.2731 -0.4824 -0.6583
  120MOL   H12238440   7.135   6.435  -1.291 -2.0920  1.3098 -1.4700
  120MOL   H12338441   7.060   6.305  -1.370 -1.5124  1.7057  0.9591
  120MOL   H12438442   7.186   6.171  -1.492  0.5811 -0.3681 -0.7846
  120MOL   H12538443   7.405   6.048  -1.544  2.6369 -2.0166  1.4473
  120MOL   H12638444   7.664   5.968  -1.396  1.0233  0.3327 -0.2293
  120MOL   H12738445   7.665   6.094  -1.511  1.4412 -0.2362  0.3660
  120MOL   H12838446   7.574   6.224  -1.191  0.4402  0.1290 -1.0482
  120MOL   H12938447   7.354   6.316  -1.125 -1.6551 -2.3036  0.3860
  120MOL   C13038448   7.770   6.148  -1.337  0.1379  0.3009 -0.0330
  120MOL   C13138449   7.912   6.097  -1.364 -0.5990  0.2581 -0.4290
  120MOL   C13238450   7.985   6.150  -1.466 -0.1496  0.2701 -0.1657
  120MOL   C13338451   8.106   6.101  -1.507 -0.7989  0.0925  0.4732
  120MOL   C13438452   8.157   5.984  -1.440 -0.4969 -0.2865  0.2366
  120MOL   C13538453   8.281   5.913  -1.489 -0.4323 -0.6210  0.9280
  120MOL   C13638454   8.091   5.930  -1.328  0.6882 -0.3914  0.5396
  120MOL   C13738455   7.966   5.988  -1.292  0.1615  0.5256 -0.7121
  120MOL   H13838456   7.754   6.126  -1.231 -2.1448 -0.7772 -0.5643
  120MOL   H13938457   7.774   6.256  -1.353 -0.8791  0.1232 -1.5435
  120MOL   H14038458   7.940   6.241  -1.504 -0.8235  0.2122  0.4779
  120MOL   H14138459   8.149   6.153  -1.591 -1.9281  2.1280  1.1265
  120MOL   H14238460   8.259   5.808  -1.472 -2.4211 -0.2361  0.7857
  120MOL   H14338461   8.287   5.923  -1.598  2.6439 -0.9801  0.9939
  120MOL   H14438462   8.125   5.839  -1.280  1.8316 -0.2167  0.0737
  120MOL   H14538463   7.910   5.945  -1.210 -0.5953 -1.5399 -2.2690
  120MOL   C14638464   8.408   5.961  -1.424 -0.0654 -0.7073 -0.1308
  120MOL   C14738465   8.524   5.870  -1.452 -0.0662 -0.6011 -0.3533
  120MOL   C14838466   8.614   5.843  -1.349  0.3577  0.1269 -0.8686
  120MOL   C14938467   8.735   5.773  -1.364 -0.3108 -0.2343 -0.6268
  120MOL   C15038468   8.772   5.737  -1.499 -0.7406 -0.4804  0.1655
  120MOL   C15138469   8.892   5.654  -1.529  0.0474 -0.5487 -0.2023
  120MOL   C15238470   8.693   5.781  -1.599  0.2898  0.2385  0.1435
  120MOL   C15338471   8.567   5.841  -1.582 -0.2270  0.2125  0.0837
  120MOL   H15438472   8.391   5.984  -1.319 -2.2711 -1.0824 -0.3868
  120MOL   H15538473   8.428   6.057  -1.472  0.2143  0.2064  1.7541
  120MOL   H15638474   8.580   5.862  -1.248 -2.5024  0.5939 -1.8914
  120MOL   H15738475   8.786   5.746  -1.273  0.5112 -1.1512 -1.3440
  120MOL   H15838476   8.888   5.585  -1.613 -0.2570 -0.3207 -0.3785
  120MOL   H15938477   8.965   5.730  -1.557 -0.8554 -0.1532 -1.5522
  120MOL   H16038478   8.724   5.764  -1.701 -1.2408  0.6347 -0.3922
  120MOL   H16138479   8.512   5.873  -1.670 -0.6559  1.5304  0.8144
  120MOL   C16238480   8.956   5.586  -1.404  0.1077  0.4056  0.7127
  120MOL   C16338481   9.088   5.527  -1.442  0.2407 -0.2696 -0.5015
  120MOL   C16438482   9.202   5.609  -1.432  0.2596  0.1895 -0.0698
  120MOL   C16538483   9.335   5.562  -1.466 -0.2922 -0.3095 -0.1875
  120MOL   C16638484   9.344   5.439  -1.537  0.7433  0.9007  0.3862
  120MOL   C16738485   9.474   5.380  -1.589 -0.6235 -0.0214 -0.2357
  120MOL   C16838486   9.231   5.361  -1.549  0.2387 -1.0315  0.0423
  120MOL   C16938487   9.107   5.404  -1.510  0.4083  0.2814  0.2681
  120MOL   H17038488   8.890   5.507  -1.367 -0.4882  0.5779  0.0454
  120MOL   H17138489   8.961   5.642  -1.311 -1.2485 -1.2740  1.8400
  120MOL   H17238490   9.189   5.707  -1.389 -3.6190 -0.5438  0.6510
  120MOL   H17338491   9.423   5.621  -1.443 -0.1362 -0.7605  0.4138
  120MOL   H17438492   9.467   5.296  -1.658  1.6354  0.3120 -0.9083
  120MOL   H17538493   9.504   5.460  -1.657  0.5495 -0.2803 -0.0366
  120MOL   H17638494   9.233   5.266  -1.600  0.8112 -2.3760  2.5032
  120MOL   H17738495   9.022   5.337  -1.515  0.2630  0.5381 -0.8065
  120MOL   C17838496   9.574   5.361  -1.470  0.3236  0.0583  0.7345
  120MOL   C17938497   9.701   5.297  -1.520  0.8858 -0.7868  0.5420
  120MOL   C18038498   9.805   5.379  -1.563  0.5213  0.0172 -0.2329
  120MOL   C18138499   9.926   5.326  -1.595  0.0947 -0.4507  0.1779
  120MOL   C18238500   9.943   5.183  -1.577 -0.1049 -0.0626 -0.2549
  120MOL   C18338501  10.074   5.120  -1.622 -0.3756 -0.0477  0.0805
  120MOL   C18438502   9.840   5.095  -1.533 -0.3440 -0.0786 -0.8757
  120MOL   C18538503   9.718   5.158  -1.503  0.7746  0.1357  0.4563
  120MOL   H18638504   9.538   5.298  -1.389  3.7683 -0.9266  1.5964
  120MOL   H18738505   9.590   5.458  -1.423  0.3293  0.4226 -0.0111
  120MOL   H18838506   9.792   5.486  -1.569 -0.1657 -0.1298 -1.3698
  120MOL   H18938507  10.020   5.370  -1.626  1.0108 -1.3844  1.5663
  120MOL   H19038508  10.062   5.039  -1.694 -0.1050  1.9568 -2.2906
  120MOL   H19138509  10.127   5.187  -1.689  2.8716 -2.9765 -0.4692
  120MOL   H19238510   9.860   4.990  -1.520  2.6575  0.7423  1.7412
  120MOL   H19338511   9.637   5.093  -1.474  1.5416 -1.7437 -1.5065
  120MOL   C19438512  10.170   5.079  -1.510 -0.5072  1.0470 -0.2533
  120MOL   C19538513  10.296   5.017  -1.567  0.2831 -0.3265  0.3965
  120MOL   C19638514  10.391   5.101  -1.635 -0.9092  0.7679  0.5841
  120MOL   C19738515  10.483   5.041  -1.720 -0.0097 -0.2227 -0.1460
  120MOL   C19838516  10.496   4.903  -1.726  0.6420 -0.5904  0.1315
  120MOL   C19938517  10.594   4.836  -1.818 -0.6051 -0.0851 -0.3674
  120MOL   C20038518  10.419   4.825  -1.641 -0.0383  0.8214  0.0814
  120MOL   C20138519  10.311   4.884  -1.570 -0.0128  0.1903 -0.3871
  120MOL   H20238520  10.117   5.001  -1.456  0.9232  1.0905  1.2699
  120MOL   H20338521  10.197   5.161  -1.443 -0.8448  0.5237  0.5269
  120MOL   H20438522  10.371   5.206  -1.622 -0.5905  1.0827 -1.3381
  120MOL   H20538523  10.550   5.096  -1.784  1.3257 -0.2710  1.1929
  120MOL   H20638524  10.538   4.744  -1.832 -0.4703 -0.1410 -0.5419
  120MOL   H20738525  10.619   4.894  -1.907  2.1281 -0.3278  0.2005
  120MOL   H20838526  10.438   4.719  -1.644 -0.0218  0.8079 -5.1042
  120MOL   H20938527  10.242   4.818  -1.519  0.5357  0.9112  1.3101
  120MOL   C21038528  10.726   4.792  -1.754 -0.1608  0.0184 -0.0316
  120MOL   C21138529  10.812   4.727  -1.865  0.5778  1.1962  0.0591
  120MOL   C21238530  10.911   4.801  -1.925  0.0891 -0.5269  0.2188
  120MOL   C21338531  10.967   4.763  -2.051 -0.2892 -0.7063 -0.1279
  120MOL   C21438532  10.945   4.629  -2.091 -0.1773  0.1055 -0.3886
  120MOL   C21538533  11.018   4.586  -2.215  0.1105 -0.1001 -0.2181
  120MOL   C21638534  10.859   4.544  -2.022  0.5468  0.3728  0.0632
  120MOL   C21738535  10.793   4.592  -1.907 -0.3650  0.6943 -0.2372
  120MOL   H21838536  10.710   4.714  -1.680  0.2866 -0.1182 -0.0799
  120MOL   H21938537  10.782   4.874  -1.709 -0.0352 -0.7186  1.1816
  120MOL   H22038538  10.928   4.906  -1.903  0.5788 -0.0914 -2.1851
  120MOL   H22138539  11.031   4.836  -2.098 -1.1742 -1.7436 -3.0302
  120MOL   H22238540  11.122   4.615  -2.202  0.2373 -0.1346 -1.1220
  120MOL   H22338541  11.028   4.479  -2.228 -0.4963 -0.1871 -0.0032
  120MOL   H22438542  10.831   4.447  -2.061 -1.8336  0.1017  2.2685
  120MOL   H22538543  10.716   4.532  -1.858 -0.0630 -0.0574 -0.6788
  120MOL   C22638544  10.958   4.656  -2.340 -1.1690  0.0518 -0.1791
  120MOL   C22738545  10.812   4.633  -2.370  0.1059  0.1169  0.2399
  120MOL   C22838546  10.766   4.550  -2.473 -0.2436  1.0328 -0.0936
  120MOL   C22938547  10.630   4.528  -2.490  0.8575  0.2949  0.3746
  120MOL   C23038548  10.532   4.597  -2.411  0.2592  0.0822  0.4464
  120MOL   C23138549  10.379   4.582  -2.438 -0.5543  0.0331  0.2801
  120MOL   C23238550  10.580   4.686  -2.312  0.1993  0.6026 -0.2459
  120MOL   C23338551  10.717   4.693  -2.284  0.0940  0.4584 -0.1078
  120MOL   H23438552  11.011   4.621  -2.429 -3.3009 -3.9040 -0.0335
  120MOL   H23538553  10.974   4.763  -2.333  0.7969 -0.3503  1.9187
  120MOL   H23638554  10.846   4.517  -2.537  0.2609 -0.1925  1.1283
  120MOL   H23738555  10.593   4.466  -2.571  0.3546 -0.8845  1.4840
  120MOL   H23838556  10.343   4.563  -2.337  0.7269  2.4846  1.2420
  120MOL   H23938557  10.331   4.667  -2.488 -1.6772 -1.0653 -0.5469
  120MOL   H24038558  10.510   4.724  -2.239 -0.6509 -1.1871 -0.1167
  120MOL   H24138559  10.737   4.758  -2.200  0.5058  0.2435 -0.0388
  120MOL   C24238560  10.340   4.462  -2.527 -0.3004 -0.1670 -0.0852
  120MOL   C24338561  10.189   4.428  -2.541  0.7514 -0.4771 -0.3186
  120MOL   C24438562  10.137   4.322  -2.460  0.2385  0.4605  0.1741
  120MOL   C24538563  10.002   4.275  -2.487 -0.1070 -0.2652 -0.2539
  120MOL   C24638564   9.924   4.332  -2.590 -0.2033  0.7774 -0.3718
  120MOL   C24738565   9.780   4.289  -2.618 -0.3811 -0.4414 -0.3710
  120MOL   C24838566   9.983   4.428  -2.676 -0.3774  0.0541 -0.2210
  120MOL   C24938567  10.116   4.480  -2.650 -0.0030  0.3522  0.0434
  120MOL   H25038568  10.380   4.483  -2.626  1.9347 -1.5621  0.4734
  120MOL   H25138569  10.402   4.376  -2.502  0.7600  0.7968  0.6650
  120MOL   H25238570  10.202   4.276  -2.387  0.1190 -1.3591 -0.8330
  120MOL   H25338571   9.958   4.204  -2.418 -2.3205  0.6251 -0.7005
  120MOL   H25438572   9.728   4.385  -2.624  2.1506  1.0892  1.5621
  120MOL   H25538573   9.764   4.258  -2.721 -3.2219 -0.0306 -0.0976
  120MOL   H25638574   9.928   4.477  -2.754  0.5685 -0.5960 -1.3105
  120MOL   H25738575  10.162   4.544  -2.723  1.9521  0.0375  0.9736
  120MOL   C25838576   9.710   4.189  -2.527  0.4442 -0.3913  0.1103
  120MOL   C25938577   9.566   4.149  -2.556 -0.7226  0.4681  0.2871
  120MOL   C26038578   9.458   4.202  -2.482 -0.1289  0.1199  0.0135
  120MOL   C26138579   9.328   4.179  -2.530 -0.0647 -0.0293  0.5994
  120MOL   C26238580   9.309   4.071  -2.619  0.6003  0.3391  0.1396
  120MOL   C26338581   9.160   4.035  -2.656 -0.0503  0.4604 -0.7455
  120MOL   C26438582   9.415   4.001  -2.682 -0.5332 -0.0084  0.4914
  120MOL   C26538583   9.544   4.046  -2.656 -0.1576 -0.7308  0.1890
  120MOL   H26638584   9.710   4.249  -2.436 -2.8207  1.1275 -0.8416
  120MOL   H26738585   9.778   4.104  -2.518  1.4175  0.2670 -0.7481
  120MOL   H26838586   9.465   4.276  -2.403  0.1017  0.0004  0.1040
  120MOL   H26938587   9.244   4.227  -2.481  0.4543  0.8797  0.6163
  120MOL   H27038588   9.089   4.118  -2.655 -0.6869 -0.0623 -1.1912
  120MOL   H27138589   9.150   3.997  -2.758 -1.9413 -0.8907 -0.0957
  120MOL   H27238590   9.390   3.915  -2.742  1.4536 -0.8486  0.8216
  120MOL   H27338591   9.628   3.997  -2.702  1.1216 -1.8028  3.5357
  120MOL   C27438592   9.097   3.938  -2.560 -0.1736  0.2126  0.0102
  120MOL   C27538593   8.947   3.931  -2.580  0.1181  0.1349  0.5628
  120MOL   C27638594   8.890   3.817  -2.646 -0.4313  0.2977  0.1113
  120MOL   C27738595   8.750   3.804  -2.659  0.2759 -0.5069  0.3841
  120MOL   C27838596   8.658   3.899  -2.605 -0.3185  0.2442  0.4258
  120MOL   C27938597   8.513   3.877  -2.593 -0.7539 -0.0112 -0.0900
  120MOL   C28038598   8.719   4.008  -2.531  0.1103 -0.4805 -0.3299
  120MOL   C28138599   8.858   4.023  -2.522 -0.3947  0.0575  0.1903
  120MOL   H28238600   9.136   3.837  -2.564 -3.3109 -1.0981  0.9860
  120MOL   H28338601   9.124   3.976  -2.461  3.8053 -0.0723 -0.9209
  120MOL   H28438602   8.955   3.748  -2.697 -1.1172 -0.8467  0.7754
  120MOL   H28538603   8.704   3.727  -2.720 -1.1615  2.1978 -2.0454
  120MOL   H28638604   8.504   3.772  -2.563  2.2569 -0.3349 -0.1497
  120MOL   H28738605   8.463   3.947  -2.526 -0.4491 -0.2980  0.4440
  120MOL   H28838606   8.656   4.089  -2.496  1.7510  2.2094 -3.3295
  120MOL   H28938607   8.907   4.111  -2.482 -1.5875  0.8096  0.0248
  120MOL   C29038608   8.444   3.889  -2.729  0.9493 -0.0097  0.1123
  120MOL   C29138609   8.304   3.841  -2.722  0.0055 -0.5001  0.6426
  120MOL   C29238610   8.226   3.925  -2.642  0.8036  0.5197  0.2800
  120MOL   C29338611   8.088   3.896  -2.635  1.1273 -0.7590  0.4446
  120MOL   C29438612   8.034   3.785  -2.703  0.6441  0.2735 -0.4961
  120MOL   C29538613   7.888   3.762  -2.690  0.7473  0.9116 -0.2482
  120MOL   C29638614   8.117   3.693  -2.770 -0.4087  0.5434  0.3675
  120MOL   C29738615   8.247   3.727  -2.787 -0.6572  0.0188  0.3571
  120MOL   H29838616   8.493   3.832  -2.808 -0.2554  1.1794 -1.5216
  120MOL   H29938617   8.453   3.988  -2.775 -1.2853  0.2477  0.1619
  120MOL   H30038618   8.261   4.013  -2.589  0.3195  1.2681 -0.6314
  120MOL   H30138619   8.026   3.958  -2.571 -3.1038 -0.1887 -3.8769
  120MOL   H30238620   7.864   3.660  -2.722  1.1508  0.5007  0.7562
  120MOL   H30338621   7.869   3.761  -2.583  2.9170  0.2708  0.1437
  120MOL   H30438622   8.069   3.608  -2.815  0.1543 -0.5461  1.7729
  120MOL   H30538623   8.315   3.660  -2.837  1.9876  1.8151  1.4358
  120MOL   C30638624   7.799   3.867  -2.769  0.3090  0.0985  0.2191
  120MOL   C30738625   7.648   3.852  -2.745  0.5355  0.8979 -0.2215
  120MOL   C30838626   7.581   3.930  -2.645 -0.5783 -0.1383  0.9526
  120MOL   C30938627   7.442   3.913  -2.625  0.2319 -0.8296  0.6734
  120MOL   C31038628   7.367   3.827  -2.706  1.1094  0.2403 -0.3304
  120MOL   C31138629   7.217   3.804  -2.689  0.0153  0.4058 -0.6065
  120MOL   C31238630   7.438   3.745  -2.796 -0.5555 -0.0488  0.4503
  120MOL   C31338631   7.575   3.755  -2.815 -0.1407  0.4915  0.4614
  120MOL   H31438632   7.814   3.844  -2.874  0.4631  2.1620 -0.2420
  120MOL   H31538633   7.821   3.973  -2.753 -2.8476  1.0446 -1.3861
  120MOL   H31638634   7.633   4.001  -2.583  1.9459 -0.2894 -0.8795
  120MOL   H31738635   7.392   3.970  -2.549 -0.1825  0.9012 -0.8673
  120MOL   H31838636   7.161   3.759  -2.771  1.1722 -2.1551 -0.0444
  120MOL   H31938637   7.212   3.742  -2.599  1.2228  0.4899 -0.4668
  120MOL   H32038638   7.382   3.675  -2.857  0.7645 -1.2604  0.6069
  120MOL   H32138639   7.626   3.699  -2.892  1.6455  0.3439  1.7499
  120MOL   H32238640   7.174   3.902  -2.673  2.9362  1.8357 -1.1159
  121MOL     C138641   6.888   6.369   5.886 -0.5614  0.2173  0.4517
  121MOL     C238642   6.738   6.374   5.883  0.6408  0.1598  0.1403
  121MOL     C338643   6.670   6.277   5.963 -0.6544  0.0488  0.2160
  121MOL     C438644   6.529   6.279   5.983 -0.3612  0.4496  0.9517
  121MOL     C538645   6.457   6.384   5.917  0.0191 -0.0175 -0.4366
  121MOL     C638646   6.309   6.397   5.945  0.3936  0.3241  0.4366
  121MOL     C738647   6.522   6.476   5.833 -0.5553  0.2355 -0.2908
  121MOL     C838648   6.660   6.466   5.817  0.6919 -0.8511 -0.2944
  121MOL     H938649   6.922   6.453   5.948  0.7476  0.5949 -0.7377
  121MOL    H1038650   6.921   6.274   5.927 -0.6930 -0.0680 -0.1072
  121MOL    H1138651   6.723   6.194   6.009 -2.0765  0.3114  2.3880
  121MOL    H1238652   6.484   6.213   6.056 -0.3172 -0.8579 -0.1865
  121MOL    H1338653   6.255   6.457   5.872 -0.1782 -1.3720 -0.5545
  121MOL    H1438654   6.267   6.296   5.946 -0.1843  0.5678  0.5675
  121MOL    H1538655   6.457   6.547   5.785 -3.4940 -1.9171  0.3782
  121MOL    H1638656   6.702   6.549   5.761  0.2775  0.4340  1.2475
  121MOL    H1738657   6.932   6.375   5.787 -1.4318  1.1041  0.1174
  121MOL    C1838658   6.284   6.460   6.082  0.6631  0.7362 -0.1441
  121MOL    C1938659   6.132   6.478   6.101 -0.4856  0.5068 -0.1521
  121MOL    C2038660   6.067   6.411   6.207  0.5465  0.5043 -0.0835
  121MOL    C2138661   5.931   6.437   6.231  0.5843 -0.2127 -0.1691
  121MOL    C2238662   5.853   6.531   6.156 -0.4644  1.0385 -0.1827
  121MOL    C2338663   5.703   6.552   6.173 -0.6119 -1.0087 -1.2983
  121MOL    C2438664   5.922   6.604   6.058 -0.3518 -0.4005 -0.0231
  121MOL    C2538665   6.064   6.579   6.030  0.1786 -0.2977  0.1581
  121MOL    H2638666   6.330   6.396   6.158 -0.0757  1.3105  0.8058
  121MOL    H2738667   6.347   6.548   6.096 -2.8372  2.9339  2.6899
  121MOL    H2838668   6.132   6.346   6.262 -1.9948 -1.3261  0.8554
  121MOL    H2938669   5.880   6.378   6.305  0.7405 -0.4990 -0.2877
  121MOL    H3038670   5.649   6.477   6.114 -0.9077 -1.7711 -0.0833
  121MOL    H3138671   5.678   6.650   6.132 -0.9773  0.0769  1.4006
  121MOL    H3238672   5.861   6.676   6.006 -3.5384 -2.7359  0.3342
  121MOL    H3338673   6.126   6.634   5.960  0.5420  0.1981  0.8614
  121MOL    C3438674   5.647   6.563   6.318 -0.0628  0.0629  0.8319
  121MOL    C3538675   5.491   6.583   6.322  0.1407 -0.1349 -0.0948
  121MOL    C3638676   5.444   6.692   6.402 -0.2747 -0.3431  0.2390
  121MOL    C3738677   5.308   6.722   6.399 -0.2302 -0.2105  0.5122
  121MOL    C3838678   5.216   6.646   6.327 -0.1335 -0.2245 -0.1261
  121MOL    C3938679   5.077   6.695   6.298 -0.0498 -0.5719  0.8370
  121MOL    C4038680   5.266   6.533   6.258 -0.6606  0.1855 -0.3083
  121MOL    C4138681   5.399   6.501   6.257 -0.1274 -0.7356 -0.6269
  121MOL    H4238682   5.698   6.625   6.392 -0.3615  0.7747  0.4343
  121MOL    H4338683   5.649   6.459   6.353  0.0071  0.4423  1.9906
  121MOL    H4438684   5.510   6.764   6.449  1.9948 -0.0818 -3.1596
  121MOL    H4538685   5.271   6.812   6.445  2.2245  0.6097  0.9925
  121MOL    H4638686   5.026   6.602   6.323  1.3245 -2.1250 -1.9002
  121MOL    H4738687   5.056   6.783   6.360 -1.5500 -0.3694  0.0774
  121MOL    H4838688   5.204   6.469   6.198 -0.2122  1.6458 -2.3917
  121MOL    H4938689   5.430   6.418   6.194  3.2306  0.1939 -0.2891
  121MOL    C5038690   5.052   6.723   6.149 -0.0666 -0.1057  0.4297
  121MOL    C5138691   4.917   6.788   6.134  0.6912  0.1847 -0.0758
  121MOL    C5238692   4.904   6.927   6.128  0.2642 -0.4937  0.7205
  121MOL    C5338693   4.771   6.990   6.123 -0.1305 -0.0971 -0.5022
  121MOL    C5438694   4.657   6.905   6.129  0.3662  0.1800  0.1135
  121MOL    C5538695   4.515   6.968   6.136  0.0583  0.1948  0.4709
  121MOL    C5638696   4.679   6.764   6.129  0.3448 -0.1746  0.1561
  121MOL    C5738697   4.802   6.705   6.130 -0.6829 -0.1787  0.3064
  121MOL    H5838698   5.063   6.625   6.104  0.3528  0.2805 -0.3281
  121MOL    H5938699   5.132   6.790   6.117  1.0198 -1.5191  0.1662
  121MOL    H6038700   5.000   6.975   6.137  0.6766 -1.0990 -0.4216
  121MOL    H6138701   4.764   7.098   6.123  1.7972  0.0751  1.0608
  121MOL    H6238702   4.525   7.050   6.207  1.3380 -0.5915  1.2166
  121MOL    H6338703   4.485   7.008   6.040  0.9253  1.2680  0.6494
  121MOL    H6438704   4.583   6.718   6.110  0.3954  0.0713 -0.7321
  121MOL    H6538705   4.811   6.597   6.131 -1.5750 -0.2710 -0.5246
  121MOL    C6638706   4.400   6.874   6.188 -0.8247  0.0847  0.2932
  121MOL    C6738707   4.283   6.938   6.260 -0.2560  0.0869 -0.4912
  121MOL    C6838708   4.211   7.040   6.194 -0.2080 -0.1668 -0.5148
  121MOL    C6938709   4.092   7.089   6.247 -0.2280 -0.6927  0.4372
  121MOL    C7038710   4.053   7.040   6.373 -0.0206 -0.4799  0.7685
  121MOL    C7138711   3.923   7.086   6.436  0.1849  0.2534  0.9414
  121MOL    C7238712   4.122   6.937   6.441  0.1424 -0.8705  0.2364
  121MOL    C7338713   4.244   6.886   6.387 -0.1549  0.4975  1.0082
  121MOL    H7438714   4.452   6.807   6.255  0.2988  0.2023 -0.4499
  121MOL    H7538715   4.358   6.812   6.109 -0.1121  1.1306 -0.9475
  121MOL    H7638716   4.241   7.084   6.100 -0.0780  1.6043  0.3270
  121MOL    H7738717   4.029   7.161   6.197  0.7201 -0.3085 -0.2140
  121MOL    H7838718   3.918   7.193   6.415  0.9793 -0.2145 -1.9777
  121MOL    H7938719   3.914   7.068   6.543  1.7908  0.8384  1.1820
  121MOL    H8038720   4.077   6.894   6.529  1.3856 -0.3494  1.1332
  121MOL    H8138721   4.300   6.803   6.428  0.4107  0.4666  0.2007
  121MOL    C8238722   3.792   7.029   6.375  0.2851 -0.3203 -0.0716
  121MOL    C8338723   3.667   7.086   6.432 -0.1447  0.2081 -0.0076
  121MOL    C8438724   3.612   7.197   6.372  0.0279  0.1033 -0.5487
  121MOL    C8538725   3.493   7.262   6.418  0.4701  0.2469  0.7327
  121MOL    C8638726   3.448   7.219   6.549 -0.0312  0.1793  0.2745
  121MOL    C8738727   3.326   7.283   6.614  0.0815 -0.0184 -0.6103
  121MOL    C8838728   3.507   7.111   6.614 -0.3414  0.0790 -0.2046
  121MOL    C8938729   3.616   7.048   6.557  0.4196  0.6239  0.2238
  121MOL    H9038730   3.791   6.921   6.394 -1.0606 -0.2736  0.1466
  121MOL    H9138731   3.803   7.053   6.270  1.9307  1.7278  0.5432
  121MOL    H9238732   3.660   7.233   6.283 -0.0593 -0.5885 -0.8755
  121MOL    H9338733   3.457   7.352   6.370 -2.8784 -2.1638 -1.4567
  121MOL    H9438734   3.334   7.391   6.603  0.1103 -0.1137 -1.6030
  121MOL    H9538735   3.350   7.260   6.718  0.5636 -0.8255 -0.8942
  121MOL    H9638736   3.474   7.064   6.705 -1.2637  0.4449 -0.3446
  121MOL    H9738737   3.670   6.962   6.594  0.1168  0.1911 -0.3294
  121MOL    C9838738   3.185   7.255   6.571  0.3361 -0.0457 -0.0592
  121MOL    C9938739   3.078   7.337   6.640 -0.2289 -0.2670  0.3222
  121MOL   C10038740   3.029   7.286   6.760 -0.8447 -0.0751 -0.2501
  121MOL   C10138741   2.917   7.348   6.816 -0.7674  0.4397  0.0571
  121MOL   C10238742   2.856   7.462   6.752  0.2454 -0.9349  0.5097
  121MOL   C10338743   2.736   7.524   6.813 -0.4225 -0.6183 -0.1119
  121MOL   C10438744   2.917   7.513   6.636 -0.4952  0.2712 -0.5583
  121MOL   C10538745   3.028   7.451   6.577  0.6443 -0.3578 -0.0235
  121MOL   H10638746   3.153   7.150   6.571  0.1109 -0.0199  2.6483
  121MOL   H10738747   3.188   7.286   6.467  1.0601 -0.0876 -0.0527
  121MOL   H10838748   3.065   7.196   6.809  0.9449  1.2263  0.8838
  121MOL   H10938749   2.878   7.302   6.906  0.9225 -5.5834 -2.0502
  121MOL   H11038750   2.738   7.528   6.922 -3.3014 -0.6408 -0.0238
  121MOL   H11138751   2.743   7.630   6.790  0.5121 -0.8529 -0.9691
  121MOL   H11238752   2.864   7.595   6.590 -1.6272 -1.6803 -2.8005
  121MOL   H11338753   3.084   7.478   6.489  0.1865 -0.3523 -0.3084
  121MOL   C11438754   2.607   7.460   6.765  0.2321  0.0449 -0.5004
  121MOL   C11538755   2.481   7.529   6.825 -0.6357 -0.4348 -0.6508
  121MOL   C11638756   2.426   7.637   6.758 -0.1351 -0.2352  0.4957
  121MOL   C11738757   2.312   7.703   6.808  0.0869 -0.1513 -0.6441
  121MOL   C11838758   2.245   7.651   6.918 -0.2128  0.0127  0.2307
  121MOL   C11938759   2.114   7.712   6.964 -0.0708  0.4789  0.6615
  121MOL   C12038760   2.293   7.534   6.983  0.3206  0.0461 -0.0718
  121MOL   C12138761   2.419   7.478   6.936 -0.3001 -0.5825 -0.7198
  121MOL   H12238762   2.596   7.354   6.789  0.7442  0.3330  1.0403
  121MOL   H12338763   2.593   7.481   6.659 -1.4414  3.1628  0.2836
  121MOL   H12438764   2.477   7.667   6.668 -0.6740  1.0084  0.5981
  121MOL   H12538765   2.279   7.792   6.756  0.4471  0.4030  0.0717
  121MOL   H12638766   2.136   7.751   7.064 -0.3768 -3.0793  2.1959
  121MOL   H12738767   2.106   7.794   6.892  2.0798 -0.6321 -0.8813
  121MOL   H12838768   2.232   7.483   7.056 -1.8300  1.0149 -1.1532
  121MOL   H12938769   2.460   7.398   6.997  0.2380  2.1988  2.7500
  121MOL   C13038770   1.983   7.619   6.958  0.1212  0.3606  0.2843
  121MOL   C13138771   1.867   7.701   7.004  0.6375 -0.0718  0.5901
  121MOL   C13238772   1.814   7.813   6.933 -0.0351  0.0428  0.6229
  121MOL   C13338773   1.700   7.880   6.980  0.5872 -0.1978 -0.4278
  121MOL   C13438774   1.627   7.833   7.089  0.6151  0.0743 -0.5284
  121MOL   C13538775   1.501   7.908   7.131  0.4809  0.4634 -0.1817
  121MOL   C13638776   1.683   7.728   7.169  0.5137 -0.8876 -0.9342
  121MOL   C13738777   1.802   7.666   7.126 -0.6025 -0.6868 -0.0562
  121MOL   H13838778   2.009   7.532   7.018  3.6391  1.9731  1.2473
  121MOL   H13938779   1.970   7.582   6.856 -0.5219 -0.6757  0.7440
  121MOL   H14038780   1.862   7.855   6.847 -1.2093  0.3626  0.1157
  121MOL   H14138781   1.668   7.972   6.933  0.2957  0.0717  0.2901
  121MOL   H14238782   1.506   7.932   7.237  0.2319  2.3598 -0.5806
  121MOL   H14338783   1.480   7.990   7.062 -0.9037  0.7286  0.5405
  121MOL   H14438784   1.648   7.692   7.264 -0.6829 -0.7855 -1.3213
  121MOL   H14538785   1.836   7.578   7.180 -4.7473 -1.3108  1.6823
  121MOL   C14638786   1.378   7.824   7.116 -0.4605  0.1231  0.0107
  121MOL   C14738787   1.248   7.893   7.160  0.1560  0.2177  0.3469
  121MOL   C14838788   1.167   7.837   7.260 -0.3658 -1.2524 -0.0024
  121MOL   C14938789   1.045   7.898   7.301  0.4444  0.4235  0.4046
  121MOL   C15038790   1.013   8.027   7.257 -0.0761  0.1542  0.6087
  121MOL   C15138791   0.883   8.094   7.297  0.7695  0.2106 -0.7256
  121MOL   C15238792   1.100   8.083   7.164 -0.0536 -0.3094  0.0416
  121MOL   C15338793   1.211   8.021   7.108 -0.5135 -0.3139 -0.5253
  121MOL   H15438794   1.398   7.736   7.177  1.1795  0.6245  0.1986
  121MOL   H15538795   1.358   7.776   7.020 -2.7208  1.8306 -0.4224
  121MOL   H15638796   1.217   7.757   7.311  1.5303 -2.2494 -3.2612
  121MOL   H15738797   0.979   7.856   7.375  0.5509  0.4111  0.4935
  121MOL   H15838798   0.867   8.060   7.400  2.9893 -0.2108 -0.5013
  121MOL   H15938799   0.880   8.202   7.295 -1.6522  0.1878 -0.2143
  121MOL   H16038800   1.072   8.181   7.130  2.3213 -0.2011 -1.7244
  121MOL   H16138801   1.261   8.072   7.028 -0.0251  2.3869  1.4224
  121MOL   C16238802   0.762   8.050   7.208  0.3823 -0.3168  0.0123
  121MOL   C16338803   0.631   8.096   7.274 -0.3032 -0.2568  0.0307
  121MOL   C16438804   0.576   8.221   7.233  0.1530 -0.2461  0.3722
  121MOL   C16538805   0.467   8.283   7.302 -0.6415  0.4427  0.1599
  121MOL   C16638806   0.410   8.215   7.406  0.2122 -0.4088 -0.6319
  121MOL   C16738807   0.293   8.281   7.474 -0.3415  0.7769 -0.0089
  121MOL   C16838808   0.461   8.085   7.448  0.3813 -1.0935  0.3675
  121MOL   C16938809   0.574   8.030   7.383  1.1330 -0.7768  0.3796
  121MOL   H17038810   0.763   7.943   7.190  1.1972 -0.2821 -0.1794
  121MOL   H17138811   0.770   8.101   7.112  0.2121  1.2437  0.7960
  121MOL   H17238812   0.619   8.287   7.159 -2.2077  1.3710  0.3913
  121MOL   H17338813   0.438   8.379   7.262 -3.2794  0.5273  2.1822
  121MOL   H17438814   0.275   8.245   7.575  0.3224  0.5216  0.0204
  121MOL   H17538815   0.330   8.381   7.499 -0.2741 -0.0461  3.4703
  121MOL   H17638816   0.414   8.027   7.527  1.6452 -1.3577  0.9371
  121MOL   H17738817   0.622   7.941   7.420 -0.2265 -0.5687  2.7606
  121MOL   C17838818   0.165   8.274   7.388 -0.0805 -0.1457 -0.2936
  121MOL   C17938819   0.039   8.326   7.458 -0.1824  0.4269  0.3994
  121MOL   C18038820  -0.022   8.261   7.567 -0.0583  0.2628 -0.4489
  121MOL   C18138821  -0.143   8.305   7.628  0.5054 -0.2739  0.5889
  121MOL   C18238822  -0.204   8.423   7.574 -0.2116 -0.5864 -0.2069
  121MOL   C18338823  -0.337   8.484   7.640  0.1070  0.6952 -0.3050
  121MOL   C18438824  -0.146   8.487   7.463  1.1468  0.1877  0.6464
  121MOL   C18538825  -0.031   8.435   7.401  0.6721 -0.4450 -0.9516
  121MOL   H18638826   0.138   8.171   7.367 -1.2000 -0.3991  2.2098
  121MOL   H18738827   0.193   8.335   7.302  0.5112 -1.6224 -1.1742
  121MOL   H18838828   0.020   8.164   7.592 -0.8204  0.1792  0.5254
  121MOL   H18938829  -0.175   8.249   7.715 -1.1918  0.8088  0.6719
  121MOL   H19038830  -0.359   8.437   7.736 -3.5516 -0.1067 -1.4585
  121MOL   H19138831  -0.320   8.589   7.665  0.4404 -0.0049  2.6071
  121MOL   H19238832  -0.199   8.568   7.415  2.3495  1.2385  1.0735
  121MOL   H19338833   0.017   8.465   7.309  0.7347  1.3917 -0.3411
  121MOL   C19438834  -0.468   8.472   7.548 -0.0633  0.5039 -0.8158
  121MOL   C19538835  -0.593   8.512   7.621 -0.9351  0.2925 -0.3522
  121MOL   C19638836  -0.612   8.646   7.642  0.5049 -0.4394  0.4229
  121MOL   C19738837  -0.725   8.692   7.708  0.3752  0.2437 -0.9005
  121MOL   C19838838  -0.824   8.602   7.757 -0.1581  0.9503 -0.3412
  121MOL   C19938839  -0.959   8.656   7.809 -0.8565  0.1106  0.1668
  121MOL   C20038840  -0.801   8.465   7.730  0.7329 -1.0942 -0.2297
  121MOL   C20138841  -0.687   8.418   7.668 -0.2217 -0.0158 -0.2056
  121MOL   H20238842  -0.481   8.372   7.507  2.3155  0.2124 -0.9106
  121MOL   H20338843  -0.467   8.541   7.464  0.3520  0.3338 -0.9483
  121MOL   H20438844  -0.540   8.714   7.598  0.7352 -0.4507  0.7865
  121MOL   H20538845  -0.732   8.798   7.726 -0.6037  0.3491 -1.8633
  121MOL   H20638846  -1.013   8.714   7.735 -0.9335  0.0258  0.1572
  121MOL   H20738847  -1.027   8.575   7.834  0.6763 -1.1664  0.2424
  121MOL   H20838848  -0.884   8.401   7.756 -0.8796  2.1093  2.9242
  121MOL   H20938849  -0.680   8.314   7.641  0.3752 -0.0636  0.1307
  121MOL   C21038850  -0.948   8.738   7.945 -0.1664 -0.5981  0.2895
  121MOL   C21138851  -1.078   8.796   7.990 -0.3319  0.1570 -0.3944
  121MOL   C21238852  -1.153   8.716   8.080 -0.4091 -0.1260 -0.1834
  121MOL   C21338853  -1.286   8.756   8.106 -0.5203  0.4638 -0.3534
  121MOL   C21438854  -1.343   8.869   8.044 -0.5664  0.6821  0.0152
  121MOL   C21538855  -1.488   8.913   8.068  0.6258 -0.4605  1.0561
  121MOL   C21638856  -1.260   8.947   7.964 -0.0663 -0.4011  0.0995
  121MOL   C21738857  -1.129   8.909   7.933  0.0129 -0.4051 -0.1013
  121MOL   H21838858  -0.876   8.818   7.928 -0.1400 -0.4388  1.1266
  121MOL   H21938859  -0.921   8.670   8.025 -0.4769  0.4894  1.3194
  121MOL   H22038860  -1.114   8.624   8.119  0.5605  0.7955  1.0884
  121MOL   H22138861  -1.342   8.686   8.166  1.5225 -1.9075 -1.1188
  121MOL   H22238862  -1.537   8.921   7.972  0.3188 -0.9504  1.1722
  121MOL   H22338863  -1.534   8.831   8.122 -2.5453  0.7887  0.3313
  121MOL   H22438864  -1.291   9.039   7.918  2.6555  0.7253  0.3696
  121MOL   H22538865  -1.065   8.956   7.860 -0.2084 -1.6544 -1.1121
  121MOL   C22638866  -1.488   9.047   8.141 -0.2578  0.2033  0.1599
  121MOL   C22738867  -1.622   9.093   8.184  0.4388  0.0527 -0.1839
  121MOL   C22838868  -1.720   9.012   8.248 -0.2934  0.1755 -0.1959
  121MOL   C22938869  -1.839   9.071   8.283  0.4456 -0.1893 -0.4890
  121MOL   C23038870  -1.873   9.195   8.245 -0.6002  0.1768  0.3505
  121MOL   C23138871  -2.012   9.250   8.280  0.0403 -0.6385 -0.1252
  121MOL   C23238872  -1.783   9.277   8.177 -0.5400  0.1416 -0.0364
  121MOL   C23338873  -1.655   9.224   8.155 -0.1833  0.2043  0.5788
  121MOL   H23438874  -1.440   9.132   8.093  0.3964 -0.8881 -1.1502
  121MOL   H23538875  -1.428   9.025   8.230 -2.1965 -3.1894  0.7412
  121MOL   H23638876  -1.701   8.910   8.280 -3.1264 -0.1308  0.6275
  121MOL   H23738877  -1.911   9.014   8.339  1.6297 -0.0554  1.2130
  121MOL   H23838878  -2.035   9.318   8.198 -3.1755 -1.3339  0.1363
  121MOL   H23938879  -2.077   9.162   8.276 -1.8184  0.6130  1.9928
  121MOL   H24038880  -1.803   9.378   8.146  3.3363  1.0412  0.1310
  121MOL   H24138881  -1.579   9.289   8.114 -0.9166  0.5071 -0.3303
  121MOL   C24238882  -2.031   9.319   8.416  0.9156 -0.5142 -0.0527
  121MOL   C24338883  -2.168   9.388   8.430  0.3444  0.0822 -0.1756
  121MOL   C24438884  -2.251   9.343   8.539 -0.0961  0.1011 -0.4390
  121MOL   C24538885  -2.381   9.400   8.563  0.1646  0.5396 -0.9091
  121MOL   C24638886  -2.433   9.493   8.474 -0.1500  0.3987  0.2286
  121MOL   C24738887  -2.579   9.537   8.492  0.5282 -0.2987 -1.0046
  121MOL   C24838888  -2.356   9.537   8.362  0.0184 -1.1585  0.0323
  121MOL   C24938889  -2.225   9.488   8.345  0.7734  0.1122  0.4000
  121MOL   H25038890  -2.009   9.253   8.501 -1.4928 -0.8551  0.3271
  121MOL   H25138891  -1.964   9.404   8.429  0.8065 -0.4420  0.0415
  121MOL   H25238892  -2.215   9.270   8.609 -1.8794 -1.1682 -0.7987
  121MOL   H25338893  -2.441   9.366   8.647 -1.3402  1.0506 -1.7486
  121MOL   H25438894  -2.604   9.507   8.593  0.8332  1.9878 -0.2412
  121MOL   H25538895  -2.593   9.644   8.478  0.0308 -0.2048  0.1718
  121MOL   H25638896  -2.395   9.604   8.287  2.7285  0.9269  0.4238
  121MOL   H25738897  -2.174   9.524   8.257 -0.8210  0.4185 -0.4095
  121MOL   C25838898  -2.669   9.457   8.400  0.8443 -0.0181  0.0734
  121MOL   C25938899  -2.818   9.490   8.409 -0.1505 -0.3125  0.0485
  121MOL   C26038900  -2.863   9.619   8.389 -0.4323 -0.4426 -0.7160
  121MOL   C26138901  -3.001   9.655   8.412 -0.2885  0.0040 -0.1829
  121MOL   C26238902  -3.084   9.551   8.470 -0.2059 -0.3892 -0.1899
  121MOL   C26338903  -3.217   9.591   8.532  0.2956 -0.0691 -0.0230
  121MOL   C26438904  -3.039   9.419   8.480  0.1123 -0.2610  0.6635
  121MOL   C26538905  -2.902   9.392   8.465 -0.8006  0.1965 -0.6028
  121MOL   H26638906  -2.659   9.350   8.421 -1.3299 -0.1367  0.5596
  121MOL   H26738907  -2.629   9.466   8.299  2.8470 -0.4715  0.7964
  121MOL   H26838908  -2.795   9.699   8.366 -2.5541  1.7853  0.4860
  121MOL   H26938909  -3.015   9.762   8.412  1.7753  0.3025 -0.0607
  121MOL   H27038910  -3.269   9.502   8.567  3.1328 -2.0430 -0.5948
  121MOL   H27138911  -3.201   9.644   8.626 -2.1744 -1.4566  1.2338
  121MOL   H27238912  -3.097   9.340   8.524  1.3051 -1.1670  0.6410
  121MOL   H27338913  -2.870   9.293   8.495 -0.0849 -0.0458 -2.1171
  121MOL   C27438914  -3.299   9.673   8.428 -0.3541  0.1056  0.8276
  121MOL   C27538915  -3.420   9.725   8.497 -0.2239  0.2241  0.0836
  121MOL   C27638916  -3.412   9.850   8.557  0.1268 -0.0684  0.6969
  121MOL   C27738917  -3.529   9.898   8.617 -0.6736  0.4941  0.4772
  121MOL   C27838918  -3.651   9.822   8.623  0.3213  0.1640 -0.0383
  121MOL   C27938919  -3.775   9.873   8.680 -0.5495 -0.1812 -0.0070
  121MOL   C28038920  -3.650   9.697   8.560  0.3424 -1.1322  0.3663
  121MOL   C28138921  -3.539   9.648   8.490  0.3569  0.5652 -0.3939
  121MOL   H28238922  -3.240   9.760   8.398  1.9884 -2.2731 -1.7897
  121MOL   H28338923  -3.311   9.617   8.335  2.3794  0.9264 -0.0802
  121MOL   H28438924  -3.323   9.910   8.550  1.0337 -1.7020 -2.3265
  121MOL   H28538925  -3.517   9.994   8.665 -0.6408  0.5943  0.2674
  121MOL   H28638926  -3.815   9.818   8.765 -0.3657 -0.8161 -0.3324
  121MOL   H28738927  -3.742   9.959   8.739 -1.6361 -1.6595  2.8441
  121MOL   H28838928  -3.744   9.642   8.556  0.9178 -1.9933 -2.4324
  121MOL   H28938929  -3.534   9.549   8.447  0.2288 -0.4734  1.9167
  121MOL   C29038930  -3.878   9.923   8.581  0.0325 -0.7380 -0.0214
  121MOL   C29138931  -4.003   9.983   8.635  0.5228 -0.2574 -0.7910
  121MOL   C29238932  -3.983  10.114   8.688 -0.0438 -0.2163  0.2469
  121MOL   C29338933  -4.096  10.173   8.753  0.4974  0.1672  0.7026
  121MOL   C29438934  -4.220  10.108   8.760 -0.3649  0.6560 -1.0146
  121MOL   C29538935  -4.347  10.170   8.823  0.7319  0.0889 -0.7425
  121MOL   C29638936  -4.225   9.978   8.704  0.1481 -0.9050  0.0855
  121MOL   C29738937  -4.121   9.918   8.637  0.3101  0.2372 -0.1814
  121MOL   H29838938  -3.907   9.837   8.520 -1.7246 -0.6153  0.5957
  121MOL   H29938939  -3.826   9.994   8.517 -1.4463  3.5364  3.2512
  121MOL   H30038940  -3.886  10.160   8.681 -0.6981  1.0325 -0.9096
  121MOL   H30138941  -4.088  10.276   8.785  0.7032  0.4258 -0.1721
  121MOL   H30238942  -4.388  10.097   8.892  0.6253 -1.1484 -2.0910
  121MOL   H30338943  -4.312  10.252   8.886 -0.0411 -0.6333  0.6398
  121MOL   H30438944  -4.324   9.934   8.715 -0.6159  1.3110  2.4816
  121MOL   H30538945  -4.138   9.828   8.579 -0.7439  1.5650 -1.9696
  121MOL   C30638946  -4.454  10.207   8.712  0.2911 -0.0737  0.2527
  121MOL   C30738947  -4.593  10.251   8.756 -0.4097 -0.4064 -0.5804
  121MOL   C30838948  -4.609  10.346   8.864  0.2053 -1.0059  0.2575
  121MOL   C30938949  -4.742  10.384   8.900 -0.0572  1.0933 -0.5343
  121MOL   C31038950  -4.853  10.317   8.843  0.0281  0.0383  0.5464
  121MOL   C31138951  -4.986  10.338   8.905 -0.0935 -0.1849  0.2786
  121MOL   C31238952  -4.830  10.220   8.747 -0.3697 -0.2673  0.4208
  121MOL   C31338953  -4.703  10.194   8.694  0.4289 -0.5473  0.8174
  121MOL   H31438954  -4.471  10.118   8.651 -1.1864 -1.0387  1.9901
  121MOL   H31538955  -4.411  10.275   8.640 -1.2181 -0.9914 -1.5661
  121MOL   H31638956  -4.520  10.390   8.906 -0.3361 -0.3098  0.6800
  121MOL   H31738957  -4.763  10.447   8.985  2.4422 -2.2046  2.7460
  121MOL   H31838958  -5.060  10.272   8.860 -0.9767 -0.0854  1.5514
  121MOL   H31938959  -4.981  10.319   9.012 -0.6270 -1.5611  0.0699
  121MOL   H32038960  -4.917  10.171   8.706 -1.1585  1.6045 -0.2124
  121MOL   H32138961  -4.695  10.116   8.619  0.8570  0.9200 -0.6901
  121MOL   H32238962  -4.998  10.446   8.893  2.4240 -0.0236 -1.3476
  122MOL     C138963   6.805   0.939   4.818  0.7629 -0.3899  0.0960
  122MOL     C238964   6.676   0.989   4.869 -0.3001  0.3255  0.4966
  122MOL     C338965   6.590   1.058   4.781  0.0505  0.4111 -0.6542
  122MOL     C438966   6.469   1.103   4.836  0.1269  0.8735 -0.1545
  122MOL     C538967   6.430   1.063   4.967 -0.0794 -0.2842  0.1026
  122MOL     C638968   6.294   1.117   5.027  0.6423  0.0865  0.3670
  122MOL     C738969   6.512   0.984   5.047  0.6633  0.2173  0.5967
  122MOL     C838970   6.637   0.940   4.998  0.0232  0.1457 -0.1331
  122MOL     H938971   6.886   1.011   4.831  1.2222 -0.7076 -0.9432
  122MOL    H1038972   6.830   0.846   4.869 -1.0970 -1.4692 -0.9136
  122MOL    H1138973   6.626   1.077   4.681 -0.8420  0.5379 -0.9572
  122MOL    H1238974   6.395   1.160   4.782 -2.4111 -1.3258  0.9330
  122MOL    H1338975   6.297   1.114   5.136  1.5463  1.2244  0.3932
  122MOL    H1438976   6.292   1.220   4.993  0.0262 -0.3627 -1.0054
  122MOL    H1538977   6.473   0.953   5.143  0.5159 -3.0934 -0.4642
  122MOL    H1638978   6.702   0.888   5.066 -1.8394  1.0427  2.3998
  122MOL    H1738979   6.789   0.907   4.715  0.3913  0.9274 -0.2679
  122MOL    C1838980   6.178   1.051   4.961  0.4056  1.2316 -0.3599
  122MOL    C1938981   6.054   1.128   4.999  0.1024  0.0706 -0.2808
  122MOL    C2038982   5.982   1.075   5.107  0.1524 -1.1887  0.1470
  122MOL    C2138983   5.855   1.131   5.148 -0.0300 -0.9784 -0.4843
  122MOL    C2238984   5.798   1.238   5.071  0.2238 -0.3395  0.3095
  122MOL    C2338985   5.659   1.285   5.097 -0.2562  0.6310 -0.8470
  122MOL    C2438986   5.874   1.286   4.956  0.2614  0.0132  0.3111
  122MOL    C2538987   5.995   1.227   4.916 -0.2072 -0.1997  0.4195
  122MOL    H2638988   6.191   1.069   4.854 -0.7705  1.5479 -0.4593
  122MOL    H2738989   6.169   0.946   4.987  0.0262  0.3253 -3.8012
  122MOL    H2838990   6.019   0.994   5.169  0.9000  0.3130  1.7079
  122MOL    H2938991   5.796   1.103   5.234 -0.3442  2.2124  0.3951
  122MOL    H3038992   5.659   1.382   5.147 -0.0683 -0.5387  1.5165
  122MOL    H3138993   5.611   1.210   5.160  1.0100 -0.5880 -1.2979
  122MOL    H3238994   5.828   1.366   4.899  1.3462  0.2841 -0.2012
  122MOL    H3338995   6.050   1.265   4.831 -2.3233  1.6521 -0.1799
  122MOL    C3438996   5.568   1.267   4.974 -0.2208  0.4637  0.4105
  122MOL    C3538997   5.421   1.317   4.980  0.9007  0.0828 -0.0814
  122MOL    C3638998   5.379   1.414   4.889 -0.0370  0.1446 -0.1891
  122MOL    C3738999   5.257   1.480   4.905 -0.3832  0.0446  0.2259
  122MOL    C3839000   5.174   1.451   5.016  0.1150 -0.4227 -0.1687
  122MOL    C3939001   5.052   1.541   5.041  0.4700 -0.0944 -0.7592
  122MOL    C4039002   5.208   1.340   5.099 -0.6721  0.1409 -0.5904
  122MOL    C4139003   5.335   1.276   5.078  0.5530  0.3844  0.0711
  122MOL    H4239004   5.565   1.164   4.940 -0.8389  0.9354 -0.9789
  122MOL    H4339005   5.600   1.328   4.889  0.4228 -2.2958 -1.4001
  122MOL    H4439006   5.441   1.444   4.806 -1.1033  1.1410 -0.6428
  122MOL    H4539007   5.228   1.564   4.843  2.5500  1.2730  0.4128
  122MOL    H4639008   5.031   1.535   5.148  3.0438 -1.1762 -0.2885
  122MOL    H4739009   5.072   1.643   5.009  0.5068  0.1602  0.0586
  122MOL    H4839010   5.162   1.303   5.190  1.1877  2.2092  1.2538
  122MOL    H4939011   5.362   1.192   5.140  0.2099 -0.5496 -1.0290
  122MOL    C5039012   4.925   1.498   4.970  0.2191 -0.8906  0.6924
  122MOL    C5139013   4.797   1.576   4.998 -0.3752 -0.8084  0.0737
  122MOL    C5239014   4.748   1.669   4.913  1.1975 -0.0349 -0.4889
  122MOL    C5339015   4.638   1.744   4.950 -0.3040  0.5106  0.3629
  122MOL    C5439016   4.571   1.721   5.068  1.0344  0.1352  0.0361
  122MOL    C5539017   4.454   1.810   5.111  0.0399 -0.8327  0.0711
  122MOL    C5639018   4.613   1.615   5.149  0.3691 -0.3646 -1.2337
  122MOL    C5739019   4.732   1.542   5.119 -0.0125 -0.5361 -0.7865
  122MOL    H5839020   4.899   1.392   4.971  0.3296 -0.9432 -1.1720
  122MOL    H5939021   4.948   1.512   4.865 -1.6796 -4.3006 -0.2283
  122MOL    H6039022   4.803   1.683   4.821  0.0610  0.2926 -1.1175
  122MOL    H6139023   4.602   1.823   4.886 -1.1386  1.0889  1.5255
  122MOL    H6239024   4.462   1.826   5.218 -2.1405 -2.5440  0.5363
  122MOL    H6339025   4.462   1.910   5.070 -0.4293 -0.9493 -0.3087
  122MOL    H6439026   4.569   1.603   5.247  1.0451 -0.6256 -0.9581
  122MOL    H6539027   4.758   1.460   5.183 -1.0703 -0.0232  0.3076
  122MOL    C6639028   4.319   1.760   5.056 -0.0424 -0.0223 -0.1268
  122MOL    C6739029   4.200   1.837   5.102  0.1847 -0.2020  0.2178
  122MOL    C6839030   4.119   1.803   5.214 -0.1168  0.1242 -0.0276
  122MOL    C6939031   4.005   1.875   5.249  0.1694  0.0075 -0.6239
  122MOL    C7039032   3.963   1.981   5.170 -0.6884  0.0318 -0.1043
  122MOL    C7139033   3.830   2.051   5.202  0.0697 -0.1716 -0.4302
  122MOL    C7239034   4.042   2.017   5.065  0.8978  0.2455  0.4064
  122MOL    C7339035   4.160   1.949   5.028 -0.0745  0.3196 -0.2246
  122MOL    H7439036   4.307   1.658   5.092  0.8151 -0.0869 -0.0227
  122MOL    H7539037   4.316   1.772   4.948 -2.7768  0.5881 -0.0260
  122MOL    H7639038   4.145   1.719   5.278  3.6517  1.4136  0.2571
  122MOL    H7739039   3.957   1.827   5.333  1.2727  0.9802  0.5781
  122MOL    H7839040   3.835   2.134   5.272 -2.0023 -0.1903 -0.2367
  122MOL    H7939041   3.769   1.984   5.264 -0.0959  1.7707  1.5698
  122MOL    H8039042   4.013   2.089   4.990  1.0885  0.8460  0.9100
  122MOL    H8139043   4.216   1.967   4.937  0.9225 -0.4510  0.2258
  122MOL    C8239044   3.756   2.107   5.074  0.6999  0.1698 -0.8289
  122MOL    C8339045   3.611   2.164   5.102 -0.1312  0.2743 -0.4703
  122MOL    C8439046   3.578   2.277   5.024 -0.4920  0.8155 -0.5394
  122MOL    C8539047   3.440   2.303   5.006  0.8305  0.1939 -0.3949
  122MOL    C8639048   3.343   2.231   5.082  0.1640 -0.3479  0.0796
  122MOL    C8739049   3.199   2.253   5.057  0.9189 -0.4892 -0.7931
  122MOL    C8839050   3.381   2.117   5.155  0.2418 -0.0570  0.1912
  122MOL    C8939051   3.516   2.082   5.162 -0.8492 -0.3503 -0.2721
  122MOL    H9039052   3.740   2.025   5.003 -3.0766 -0.7533  1.0042
  122MOL    H9139053   3.809   2.191   5.028 -1.3730  2.9810  1.7237
  122MOL    H9239054   3.655   2.321   4.962 -0.5593 -0.5179 -1.5950
  122MOL    H9339055   3.402   2.381   4.942 -1.3067  0.0942  0.7197
  122MOL    H9439056   3.143   2.161   5.072 -1.8001  1.2938  0.3245
  122MOL    H9539057   3.187   2.281   4.953 -1.1146  2.6498  0.2126
  122MOL    H9639058   3.320   2.054   5.218 -0.9380 -0.2989 -1.1747
  122MOL    H9739059   3.552   1.991   5.208 -0.7458 -0.6532 -0.9426
  122MOL    C9839060   3.144   2.365   5.141 -1.1736  0.4160 -0.6859
  122MOL    C9939061   3.011   2.411   5.090  0.2069 -0.9446  0.4182
  122MOL   C10039062   2.891   2.367   5.159  0.5889  0.2489  0.3446
  122MOL   C10139063   2.767   2.409   5.122  0.0605  0.4462  0.5354
  122MOL   C10239064   2.756   2.505   5.019  0.0726 -0.1870  0.7555
  122MOL   C10339065   2.621   2.544   4.959 -0.1718  0.1390 -0.2862
  122MOL   C10439066   2.874   2.539   4.942  0.0491 -0.0864 -0.5273
  122MOL   C10539067   2.997   2.495   4.982 -0.3968  0.1700 -1.2881
  122MOL   H10639068   3.214   2.449   5.140  1.1847 -1.4862  0.1459
  122MOL   H10739069   3.131   2.329   5.243 -3.0355 -0.9420 -1.3824
  122MOL   H10839070   2.915   2.295   5.236  1.4131 -0.4227 -0.5294
  122MOL   H10939071   2.681   2.374   5.177  0.8323  0.1091  1.5358
  122MOL   H11039072   2.618   2.496   4.861 -0.9593 -1.4052  0.4710
  122MOL   H11139073   2.546   2.495   5.021  2.9161 -0.2494  3.3376
  122MOL   H11239074   2.860   2.602   4.856  1.2619  0.6432 -0.1905
  122MOL   H11339075   3.094   2.517   4.940 -0.8283 -1.0575 -2.9779
  122MOL   C11439076   2.605   2.700   4.960 -0.1251 -0.1010 -0.5357
  122MOL   C11539077   2.467   2.729   4.913 -0.6449  0.2461 -0.2854
  122MOL   C11639078   2.358   2.751   5.001 -0.4433 -0.1805  0.5139
  122MOL   C11739079   2.225   2.766   4.951  0.2274  0.2250  0.2278
  122MOL   C11839080   2.212   2.792   4.814  0.2610 -0.6483  0.0326
  122MOL   C11939081   2.081   2.838   4.757 -0.5256  0.2488 -0.7336
  122MOL   C12039082   2.323   2.783   4.724  0.1789  0.2375 -0.4018
  122MOL   C12139083   2.446   2.743   4.779 -0.0701  0.2217 -0.1285
  122MOL   H12239084   2.676   2.751   4.895  0.8169  0.4709  0.9168
  122MOL   H12339085   2.626   2.746   5.057  2.0871 -0.5238 -0.7770
  122MOL   H12439086   2.386   2.755   5.106  0.2814  0.8564  0.2884
  122MOL   H12539087   2.143   2.785   5.019  0.9084 -0.1518  1.1644
  122MOL   H12639088   2.024   2.888   4.835 -0.7585 -0.6018 -0.3545
  122MOL   H12739089   2.106   2.930   4.704 -0.0056  1.1092  0.9602
  122MOL   H12839090   2.315   2.806   4.619  0.9575  3.1090  0.1013
  122MOL   H12939091   2.520   2.737   4.700  1.8671 -0.9072  1.7090
  122MOL   C13039092   2.010   2.737   4.672  0.0970 -0.7325 -0.0418
  122MOL   C13139093   1.876   2.797   4.635  0.5183  0.2030 -1.1213
  122MOL   C13239094   1.770   2.802   4.725 -0.7396 -0.3182 -0.0400
  122MOL   C13339095   1.641   2.851   4.685 -0.0594  0.3346 -0.4465
  122MOL   C13439096   1.631   2.897   4.552 -0.2363 -0.4418 -0.6936
  122MOL   C13539097   1.494   2.967   4.525 -1.0565 -0.3630 -0.2993
  122MOL   C13639098   1.729   2.883   4.457  0.7339  0.1572  1.2268
  122MOL   C13739099   1.853   2.842   4.504  0.4998 -0.1372  0.2494
  122MOL   H13839100   1.994   2.650   4.735 -1.6757 -0.8954 -0.6796
  122MOL   H13939101   2.073   2.712   4.586 -0.5916 -0.0167 -0.7700
  122MOL   H14039102   1.788   2.767   4.825 -1.4536 -0.4967  0.0336
  122MOL   H14139103   1.573   2.851   4.769 -0.5604 -1.5368 -0.8420
  122MOL   H14239104   1.441   2.978   4.620  0.0056  0.1846  0.2453
  122MOL   H14339105   1.510   3.066   4.481 -1.1821 -0.7375 -1.1957
  122MOL   H14439106   1.716   2.917   4.355 -0.2581 -0.0734  1.2729
  122MOL   H14539107   1.934   2.840   4.433  2.0804 -0.4442  1.9943
  122MOL   C14639108   1.396   2.879   4.449 -0.0670 -0.1741  0.3698
  122MOL   C14739109   1.257   2.921   4.430  0.0177  0.4680  0.0998
  122MOL   C14839110   1.217   2.978   4.308  0.5480  0.6601 -0.0702
  122MOL   C14939111   1.094   3.046   4.290 -0.3708  0.0628 -0.0744
  122MOL   C15039112   1.002   3.035   4.395 -0.5688 -0.2800 -0.2290
  122MOL   C15139113   0.862   3.080   4.368  0.0152 -0.5127 -0.1479
  122MOL   C15239114   1.034   2.973   4.516  0.1570 -0.2212 -0.2962
  122MOL   C15339115   1.164   2.918   4.537  0.8788  0.4441  0.3326
  122MOL   H15439116   1.391   2.779   4.492 -1.5708  0.3793  1.5180
  122MOL   H15539117   1.440   2.858   4.351  1.4796  1.1978  0.7567
  122MOL   H15639118   1.290   2.963   4.230 -0.1841  2.5104 -1.1334
  122MOL   H15739119   1.059   3.067   4.190 -0.0095 -0.1376 -0.2416
  122MOL   H15839120   0.794   2.995   4.365  0.1744 -0.6627  0.4400
  122MOL   H15939121   0.835   3.131   4.460 -0.5904  1.7053 -1.5067
  122MOL   H16039122   0.959   2.974   4.593 -0.4693 -3.4033 -0.7865
  122MOL   H16139123   1.190   2.874   4.633 -1.6702  1.3541  1.4959
  122MOL   C16239124   0.831   3.177   4.245  0.0872 -0.1408  0.0004
  122MOL   C16339125   0.687   3.233   4.244 -0.3526  0.0289  0.0425
  122MOL   C16439126   0.572   3.159   4.207  0.1362  0.0554 -0.1314
  122MOL   C16539127   0.447   3.214   4.198  0.3409  0.4827  0.6431
  122MOL   C16639128   0.428   3.348   4.238  0.3572  0.1791 -0.0416
  122MOL   C16739129   0.284   3.396   4.235 -0.5501 -0.1014  0.5677
  122MOL   C16839130   0.540   3.425   4.280  0.4801  1.2284  0.2208
  122MOL   C16939131   0.670   3.367   4.281 -0.1950  0.5128  0.5022
  122MOL   H17039132   0.854   3.126   4.152 -1.1692  0.8701 -0.8784
  122MOL   H17139133   0.896   3.264   4.254 -1.6481  1.3952 -1.9287
  122MOL   H17239134   0.586   3.055   4.180  0.7154  0.0951 -0.0045
  122MOL   H17339135   0.368   3.154   4.156  1.4802 -0.4009 -0.2800
  122MOL   H17439136   0.217   3.322   4.278 -2.5852  1.0675 -0.5084
  122MOL   H17539137   0.269   3.485   4.295 -1.3957 -0.3433  0.7145
  122MOL   H17639138   0.522   3.528   4.310 -2.0762  1.1891 -0.9905
  122MOL   H17739139   0.750   3.430   4.316 -0.6124  1.0769  0.4503
  122MOL   C17839140   0.233   3.418   4.092 -0.0529  0.2450  0.3330
  122MOL   C17939141   0.080   3.428   4.082 -0.3697  0.4400 -0.8042
  122MOL   C18039142  -0.004   3.327   4.031  0.6084 -0.3266 -0.7780
  122MOL   C18139143  -0.135   3.358   4.003  0.4459 -0.5882 -0.4900
  122MOL   C18239144  -0.198   3.482   4.044  0.5063  0.0380  0.3958
  122MOL   C18339145  -0.347   3.500   4.029  0.1291 -0.5448 -0.0612
  122MOL   C18439146  -0.115   3.577   4.107 -0.1593  0.5032 -0.4169
  122MOL   C18539147   0.024   3.551   4.121  0.3095 -0.5505 -0.2392
  122MOL   H18639148   0.257   3.333   4.030 -0.5751 -1.5384  2.4882
  122MOL   H18739149   0.259   3.515   4.049 -1.1301  0.8258  0.9457
  122MOL   H18839150   0.041   3.234   3.999  0.8750 -1.2413  2.1079
  122MOL   H18939151  -0.196   3.283   3.954 -0.8355  0.1976 -0.1160
  122MOL   H19039152  -0.398   3.415   4.074 -1.9873  1.8574  2.2946
  122MOL   H19139153  -0.384   3.573   4.102 -4.0885 -0.8488 -1.7026
  122MOL   H19239154  -0.157   3.673   4.131  1.2900  1.2536 -0.7728
  122MOL   H19339155   0.082   3.637   4.151 -1.0397 -0.2105  1.4840
  122MOL   C19439156  -0.388   3.541   3.887  0.6313  0.6491  0.0516
  122MOL   C19539157  -0.539   3.545   3.868 -0.1632 -0.0452  0.4859
  122MOL   C19639158  -0.605   3.668   3.904  1.0263 -0.3931 -0.6933
  122MOL   C19739159  -0.743   3.672   3.890  0.0467  0.2385  0.1282
  122MOL   C19839160  -0.816   3.561   3.835  0.3938 -0.0443 -0.2834
  122MOL   C19939161  -0.963   3.563   3.824 -0.4163  0.2710 -0.0379
  122MOL   C20039162  -0.748   3.450   3.780  0.3725 -0.4592  0.4819
  122MOL   C20139163  -0.612   3.440   3.807 -0.0986  0.2823 -0.0355
  122MOL   H20239164  -0.346   3.471   3.814 -1.9671 -1.2806  0.3344
  122MOL   H20339165  -0.348   3.640   3.868 -0.0812  0.5432 -2.2121
  122MOL   H20439166  -0.551   3.742   3.960  2.2979 -0.9835 -1.1320
  122MOL   H20539167  -0.793   3.760   3.929  0.2608  0.6229 -0.4556
  122MOL   H20639168  -0.995   3.464   3.854 -1.8080  1.2154  1.6932
  122MOL   H20739169  -0.996   3.638   3.896 -0.5525  0.9299 -0.7834
  122MOL   H20839170  -0.798   3.369   3.731 -0.4608  1.0937 -1.2821
  122MOL   H20939171  -0.568   3.346   3.778 -0.0786  0.7532 -1.5533
  122MOL   C21039172  -1.007   3.601   3.680  0.2850  0.6085 -0.1465
  122MOL   C21139173  -1.157   3.630   3.665 -0.4378 -0.7615  0.4750
  122MOL   C21239174  -1.205   3.755   3.709  0.7334  0.3992  0.5551
  122MOL   C21339175  -1.338   3.785   3.697 -0.0408 -0.1236  0.5241
  122MOL   C21439176  -1.429   3.681   3.663  0.2318  0.2144 -0.4138
  122MOL   C21539177  -1.571   3.727   3.653  0.8014  0.4555  0.1854
  122MOL   C21639178  -1.384   3.554   3.622 -0.3986  0.0403 -0.0121
  122MOL   C21739179  -1.241   3.528   3.619 -0.0601  0.3441 -0.6367
  122MOL   H21839180  -0.961   3.537   3.604 -0.3071  0.4053 -0.3413
  122MOL   H21939181  -0.948   3.689   3.653 -0.7043  1.4449  0.3722
  122MOL   H22039182  -1.152   3.840   3.750  0.4306  0.8572  0.0081
  122MOL   H22139183  -1.377   3.885   3.710  1.2819  0.7025 -1.5925
  122MOL   H22239184  -1.633   3.641   3.630  0.3059  1.2581 -1.5620
  122MOL   H22339185  -1.598   3.780   3.744  1.0594 -1.8265  1.6253
  122MOL   H22439186  -1.458   3.493   3.573  0.6165 -1.3474  0.1677
  122MOL   H22539187  -1.208   3.426   3.606 -2.2757 -0.7925  2.2404
  122MOL   C22639188  -1.595   3.824   3.539  0.0969  0.7323 -0.0194
  122MOL   C22739189  -1.740   3.877   3.528  0.3129 -0.0051 -0.2456
  122MOL   C22839190  -1.774   3.997   3.594  0.2412 -0.4035 -0.3724
  122MOL   C22939191  -1.907   4.037   3.599 -0.5544 -0.9936  0.0235
  122MOL   C23039192  -2.008   3.969   3.530 -0.8370  0.0681 -0.3777
  122MOL   C23139193  -2.151   4.008   3.546 -0.3635  0.5290  0.4183
  122MOL   C23239194  -1.976   3.849   3.467 -0.1434  0.0230 -0.4596
  122MOL   C23339195  -1.841   3.803   3.459 -0.0586  0.0892 -0.2502
  122MOL   H23439196  -1.568   3.776   3.445  1.5961  0.9468  0.2915
  122MOL   H23539197  -1.539   3.917   3.541 -0.4303  1.0397  0.4548
  122MOL   H23639198  -1.697   4.049   3.649  1.7807 -2.9972 -0.0256
  122MOL   H23739199  -1.941   4.119   3.661 -0.7835  0.5102 -2.0294
  122MOL   H23839200  -2.204   3.919   3.581  0.6018 -0.2884 -0.1805
  122MOL   H23939201  -2.152   4.084   3.624  0.7237 -0.9689  1.9276
  122MOL   H24039202  -2.056   3.789   3.427 -0.6158 -0.6850  1.4757
  122MOL   H24139203  -1.827   3.708   3.410  0.5164 -1.6996  3.2645
  122MOL   C24239204  -2.218   4.067   3.425 -0.0836  0.0551  0.7430
  122MOL   C24339205  -2.357   4.117   3.448  0.0201  0.2503 -0.5516
  122MOL   C24439206  -2.369   4.253   3.476  0.6678 -0.2154 -0.6563
  122MOL   C24539207  -2.492   4.320   3.459  0.4323  0.2389  0.4026
  122MOL   C24639208  -2.613   4.240   3.437 -0.1006  0.0644 -0.1024
  122MOL   C24739209  -2.741   4.307   3.432 -0.1849  0.3195  0.3862
  122MOL   C24839210  -2.604   4.098   3.424  0.0916  0.4170 -0.7503
  122MOL   C24939211  -2.473   4.039   3.428 -0.2795 -0.7941 -0.2455
  122MOL   H25039212  -2.162   4.152   3.387 -1.8793  0.6484 -0.6378
  122MOL   H25139213  -2.219   3.998   3.341 -0.0443 -0.7008  1.3556
  122MOL   H25239214  -2.283   4.317   3.482  0.0351  0.6172 -0.3967
  122MOL   H25339215  -2.498   4.425   3.482  1.5862  0.0566  1.6087
  122MOL   H25439216  -2.819   4.237   3.461 -0.3439 -0.5004 -1.9224
  122MOL   H25539217  -2.731   4.391   3.501  0.7403 -1.2771  2.2098
  122MOL   H25639218  -2.691   4.035   3.434  1.2709 -0.9580  1.1241
  122MOL   H25739219  -2.468   3.933   3.408  3.5403 -1.3133  2.7996
  122MOL   C25839220  -2.767   4.353   3.288 -0.0376 -0.0935  0.0842
  122MOL   C25939221  -2.900   4.423   3.277 -0.0338  0.0004 -0.0469
  122MOL   C26039222  -3.008   4.393   3.366  0.2753 -0.1847 -0.4405
  122MOL   C26139223  -3.130   4.468   3.358 -0.1534  0.3072  0.1536
  122MOL   C26239224  -3.148   4.553   3.249  0.3031  0.4349  0.0921
  122MOL   C26339225  -3.279   4.627   3.233 -0.2995  0.1768  0.4071
  122MOL   C26439226  -3.052   4.572   3.150 -0.3015  0.1988 -0.4239
  122MOL   C26539227  -2.924   4.515   3.169  0.4659  0.3257 -1.3268
  122MOL   H26639228  -2.766   4.271   3.216 -2.5129 -0.6363  0.6179
  122MOL   H26739229  -2.688   4.423   3.259 -0.5795  0.3565 -0.3312
  122MOL   H26839230  -3.001   4.327   3.451 -3.3157 -0.2086 -0.0951
  122MOL   H26939231  -3.206   4.453   3.433  0.2680 -1.7382  0.2209
  122MOL   H27039232  -3.346   4.638   3.319  0.0258  1.8771  0.4600
  122MOL   H27139233  -3.256   4.731   3.212  2.2747 -0.1331  1.5370
  122MOL   H27239234  -3.076   4.627   3.061 -0.6584 -1.4036 -1.3451
  122MOL   H27339235  -2.847   4.534   3.096  0.6151  2.9173 -0.5433
  122MOL   C27439236  -3.356   4.580   3.109  0.4074 -0.0653 -0.0705
  122MOL   C27539237  -3.497   4.645   3.089  0.5773 -0.0167  0.0100
  122MOL   C27639238  -3.578   4.635   3.195  0.0833 -0.0400 -0.4936
  122MOL   C27739239  -3.707   4.701   3.192 -0.2209 -0.5899 -0.1837
  122MOL   C27839240  -3.750   4.762   3.074  0.4329 -0.1256 -1.0773
  122MOL   C27939241  -3.885   4.831   3.069 -0.3946  0.5296 -0.0769
  122MOL   C28039242  -3.665   4.764   2.961  0.4669  0.1735  0.4218
  122MOL   C28139243  -3.537   4.712   2.966 -0.0396 -0.0017 -0.9267
  122MOL   H28239244  -3.297   4.604   3.020  0.0366  2.6175  0.3617
  122MOL   H28339245  -3.361   4.471   3.107 -2.8733 -0.0712  3.0546
  122MOL   H28439246  -3.560   4.580   3.286  0.8916 -0.7204 -1.0523
  122MOL   H28539247  -3.774   4.700   3.276 -1.2900  0.3961 -1.0062
  122MOL   H28639248  -3.913   4.858   3.171 -0.6985 -0.1255  0.0149
  122MOL   H28739249  -3.879   4.930   3.024  0.8593  0.2562 -0.5274
  122MOL   H28839250  -3.693   4.824   2.875  0.4039  1.7720  1.5529
  122MOL   H28939251  -3.471   4.729   2.882  3.3166  1.8231  1.9722
  122MOL   C29039252  -3.998   4.737   3.010  0.1878  0.2080  0.6090
  122MOL   C29139253  -4.127   4.814   2.989 -0.5120 -0.1706 -0.7665
  122MOL   C29239254  -4.181   4.898   3.090  0.8428  0.2354 -0.4667
  122MOL   C29339255  -4.299   4.976   3.064  0.2232  0.3827  0.0587
  122MOL   C29439256  -4.362   4.961   2.943  0.3393 -0.3647 -0.0302
  122MOL   C29539257  -4.476   5.052   2.897 -0.5812 -0.4491 -0.2191
  122MOL   C29639258  -4.305   4.886   2.849 -0.1822  0.2954 -0.1028
  122MOL   C29739259  -4.192   4.809   2.867  0.2816  0.2620 -0.3635
  122MOL   H29839260  -4.025   4.647   3.065  0.6138 -0.8314 -0.8411
  122MOL   H29939261  -3.974   4.698   2.911  2.4315  1.5515  0.5789
  122MOL   H30039262  -4.145   4.896   3.192  0.8252  0.5504 -0.4562
  122MOL   H30139263  -4.352   5.033   3.139  0.2235  0.9988 -0.4084
  122MOL   H30239264  -4.459   5.148   2.946 -0.4368 -0.2105 -0.7394
  122MOL   H30339265  -4.474   5.069   2.790  1.3293  0.6656 -0.0268
  122MOL   H30439266  -4.354   4.879   2.753 -2.3548  0.1172  0.9840
  122MOL   H30539267  -4.150   4.754   2.784  1.2825  0.3516  0.0721
  122MOL   C30639268  -4.610   4.999   2.951  0.1708  0.5765  0.2266
  122MOL   C30739269  -4.713   5.096   2.909  0.1905  0.4882 -0.6974
  122MOL   C30839270  -4.768   5.183   3.005  0.1455  0.7553  0.2515
  122MOL   C30939271  -4.863   5.278   2.964 -0.3323  0.0400  0.2333
  122MOL   C31039272  -4.907   5.279   2.829  0.4259 -0.5827 -0.5023
  122MOL   C31139273  -5.017   5.380   2.786 -0.0556 -1.1268  0.3192
  122MOL   C31239274  -4.851   5.195   2.737 -0.0741 -0.1824 -0.6362
  122MOL   C31339275  -4.755   5.100   2.776 -0.0589  0.6987 -0.4659
  122MOL   H31439276  -4.610   4.997   3.060 -0.0422  0.7334  0.2296
  122MOL   H31539277  -4.639   4.903   2.907 -0.0633  1.1096 -0.8178
  122MOL   H31639278  -4.727   5.178   3.105 -2.2558 -2.1796  1.1733
  122MOL   H31739279  -4.898   5.361   3.024  1.2882  0.1818  1.0102
  122MOL   H31839280  -5.025   5.459   2.862 -1.0474  0.3218 -1.2552
  122MOL   H31939281  -4.987   5.433   2.695 -1.4113 -1.4923 -0.3441
  122MOL   H32039282  -4.884   5.188   2.634  0.8010 -1.2260 -0.8579
  122MOL   H32139283  -4.719   5.028   2.703  0.2361  0.4129 -0.0405
  122MOL   H32239284  -5.107   5.321   2.774 -0.4189 -0.5507  0.2098
  123MOL     C139285   5.349   2.427   0.426  0.0663  1.0111  0.0209
  123MOL     C239286   5.490   2.408   0.368  1.0067  0.0162 -0.0704
  123MOL     C339287   5.551   2.494   0.276  0.3565 -0.3037 -0.2239
  123MOL     C439288   5.686   2.476   0.233  0.5005  0.4237 -0.6442
  123MOL     C539289   5.763   2.377   0.292  0.2067 -0.3774  0.1975
  123MOL     C639290   5.901   2.351   0.236 -1.3835  0.3503  0.3186
  123MOL     C739291   5.702   2.286   0.381  0.1907  0.3531 -0.5642
  123MOL     C839292   5.564   2.295   0.411  0.1010  0.6424 -0.1387
  123MOL     H939293   5.339   2.529   0.462 -2.0404  0.8710 -0.1024
  123MOL    H1039294   5.271   2.429   0.349  0.7043  0.5091 -0.6482
  123MOL    H1139295   5.493   2.578   0.239 -0.0763  0.0698  1.2866
  123MOL    H1239296   5.721   2.546   0.158  0.2350  2.3523  0.9767
  123MOL    H1339297   5.943   2.444   0.199  0.6606 -0.2140  1.1887
  123MOL    H1439298   5.969   2.304   0.308  0.7936  0.1920 -1.7981
  123MOL    H1539299   5.754   2.203   0.426 -0.2888 -0.1553 -0.9278
  123MOL    H1639300   5.526   2.229   0.488  2.5723  0.5922  1.1030
  123MOL    H1739301   5.318   2.365   0.510  0.6151  0.4105 -0.2113
  123MOL    C1839302   5.890   2.258   0.111 -0.0463 -1.0193  0.5122
  123MOL    C1939303   6.022   2.227   0.042  0.1341 -0.3480  0.7245
  123MOL    C2039304   6.078   2.333  -0.022 -0.0521 -0.7865  0.2785
  123MOL    C2139305   6.189   2.316  -0.105  0.6965 -0.4143 -0.0687
  123MOL    C2239306   6.260   2.192  -0.121  0.3130  0.0699  0.0290
  123MOL    C2339307   6.388   2.185  -0.200 -0.5754  0.3277  0.0947
  123MOL    C2439308   6.210   2.085  -0.041 -0.6761  0.0691  0.1487
  123MOL    C2539309   6.091   2.102   0.038 -0.4434  0.3425  0.4358
  123MOL    H2639310   5.866   2.155   0.136  1.0241 -2.2320 -3.1774
  123MOL    H2739311   5.809   2.286   0.044  1.6696  0.1408 -1.1473
  123MOL    H2839312   6.034   2.432  -0.013  2.2362  0.4877 -1.8834
  123MOL    H2939313   6.233   2.396  -0.162  2.2128 -1.0049  0.2246
  123MOL    H3039314   6.373   2.237  -0.295  0.9928  0.1271 -0.2770
  123MOL    H3139315   6.402   2.077  -0.206 -1.5976  0.2255 -0.6067
  123MOL    H3239316   6.263   1.991  -0.046 -0.1407  0.4260 -1.5624
  123MOL    H3339317   6.043   2.012   0.075  0.3153 -0.4721 -0.5540
  123MOL    C3439318   6.511   2.251  -0.127 -0.8732 -0.4781 -0.1183
  123MOL    C3539319   6.635   2.185  -0.171  0.0322 -0.4902  0.0943
  123MOL    C3639320   6.678   2.072  -0.091 -0.2470 -0.3897 -0.4382
  123MOL    C3739321   6.782   1.990  -0.132 -0.2567 -1.1406 -0.0306
  123MOL    C3839322   6.851   2.023  -0.254 -0.2269  0.5005  0.3048
  123MOL    C3939323   6.971   1.941  -0.291 -0.1087 -0.1138 -0.5237
  123MOL    C4039324   6.807   2.129  -0.333 -0.0120 -1.0076  0.6570
  123MOL    C4139325   6.696   2.203  -0.294  0.3435 -0.0546  0.0868
  123MOL    H4239326   6.514   2.253  -0.018  1.8453 -2.9287 -0.0685
  123MOL    H4339327   6.523   2.357  -0.150  3.4006 -0.7054  0.6168
  123MOL    H4439328   6.621   2.044  -0.004  0.3965  0.0526  0.1246
  123MOL    H4539329   6.802   1.900  -0.075 -0.9233 -2.6600 -2.1247
  123MOL    H4639330   6.979   1.857  -0.222 -1.8600 -1.4597 -1.9021
  123MOL    H4739331   6.956   1.900  -0.392 -0.5199 -0.2386 -0.4124
  123MOL    H4839332   6.848   2.164  -0.427 -1.4562  0.3614  0.5147
  123MOL    H4939333   6.654   2.280  -0.357  0.9612  1.1904  1.1848
  123MOL    C5039334   7.091   2.029  -0.290 -0.5058 -0.4835  0.0525
  123MOL    C5139335   7.213   1.955  -0.343  0.2033  0.3243 -0.0707
  123MOL    C5239336   7.249   1.979  -0.479 -0.2808  0.1015  0.1078
  123MOL    C5339337   7.371   1.935  -0.534  0.1960 -0.0438  0.2501
  123MOL    C5439338   7.447   1.854  -0.446  0.3439  0.4597 -0.9447
  123MOL    C5539339   7.584   1.809  -0.495 -0.2405 -0.1514 -0.1970
  123MOL    C5639340   7.397   1.804  -0.324 -0.0091  0.2751  0.6737
  123MOL    C5739341   7.276   1.850  -0.276  0.7498  0.4206  0.3664
  123MOL    H5839342   7.111   2.072  -0.192  1.0303 -0.7963 -0.1123
  123MOL    H5939343   7.087   2.117  -0.354  0.4458  0.5335  1.3425
  123MOL    H6039344   7.190   2.052  -0.532  0.4429  0.0550 -0.7791
  123MOL    H6139345   7.406   1.961  -0.633 -0.6084 -1.3473 -0.3866
  123MOL    H6239346   7.586   1.701  -0.480 -2.9735 -0.3975 -1.2616
  123MOL    H6339347   7.581   1.814  -0.604 -0.4972 -0.3040 -0.1970
  123MOL    H6439348   7.453   1.731  -0.267  1.4199 -1.0276 -2.2804
  123MOL    H6539349   7.244   1.814  -0.179  0.4904  0.4831  0.3061
  123MOL    C6639350   7.703   1.894  -0.435  0.6912  0.5442 -0.6869
  123MOL    C6739351   7.840   1.820  -0.457  0.1261  0.1032  0.5111
  123MOL    C6839352   7.901   1.822  -0.580 -0.3402 -0.3047  0.3611
  123MOL    C6939353   8.014   1.743  -0.607 -1.2067 -0.1625 -0.9137
  123MOL    C7039354   8.067   1.666  -0.505 -0.1950 -0.4558  0.3945
  123MOL    C7139355   8.183   1.577  -0.538  0.4291  0.3997 -0.2826
  123MOL    C7239356   8.003   1.649  -0.383  0.6531  0.0646 -0.3988
  123MOL    C7339357   7.881   1.723  -0.359 -0.1692 -0.1222 -0.3115
  123MOL    H7439358   7.683   1.908  -0.328 -1.8947 -3.3768 -0.5513
  123MOL    H7539359   7.709   1.992  -0.482 -1.9855  0.7974 -0.6281
  123MOL    H7639360   7.867   1.895  -0.652 -0.5733 -1.1086 -0.3554
  123MOL    H7739361   8.063   1.746  -0.704 -1.0176  0.9870 -0.7928
  123MOL    H7839362   8.146   1.495  -0.599 -1.2993  0.0781  1.1504
  123MOL    H7939363   8.210   1.527  -0.445  0.5047 -0.1188 -0.5821
  123MOL    H8039364   8.041   1.580  -0.309 -0.3558 -1.3151 -1.1520
  123MOL    H8139365   7.835   1.711  -0.263  3.4720 -0.2598  1.5048
  123MOL    C8239366   8.299   1.659  -0.599 -0.6540 -0.0669 -0.4960
  123MOL    C8339367   8.424   1.576  -0.629 -0.4040  0.6680  0.1415
  123MOL    C8439368   8.470   1.488  -0.531  0.4571 -0.1304  1.0224
  123MOL    C8539369   8.592   1.419  -0.556 -0.8378 -0.3869 -0.1182
  123MOL    C8639370   8.667   1.447  -0.670  0.5276  0.1244  0.3943
  123MOL    C8739371   8.810   1.381  -0.689 -0.4200  1.0351 -0.0836
  123MOL    C8839372   8.607   1.520  -0.775 -0.3321  0.0550 -0.4685
  123MOL    C8939373   8.486   1.590  -0.756 -0.2478  0.2570  0.1883
  123MOL    H9039374   8.320   1.731  -0.520 -0.5077  0.2896 -0.8557
  123MOL    H9139375   8.266   1.733  -0.672  1.6773  0.2532 -1.2804
  123MOL    H9239376   8.423   1.497  -0.434  0.7165  1.9338  0.9829
  123MOL    H9339377   8.644   1.357  -0.484  0.9456 -1.5268 -2.3232
  123MOL    H9439378   8.810   1.300  -0.761  2.9447  0.0204  0.9789
  123MOL    H9539379   8.846   1.339  -0.595  1.2404  1.9579 -0.2905
  123MOL    H9639380   8.664   1.523  -0.866 -1.0935 -1.3035 -1.0144
  123MOL    H9739381   8.439   1.647  -0.835  1.3558 -1.3929 -2.0227
  123MOL    C9839382   8.911   1.485  -0.728 -0.2931 -1.2283  0.0603
  123MOL    C9939383   9.043   1.421  -0.752  0.1062 -0.3857  0.1540
  123MOL   C10039384   9.123   1.368  -0.650  0.1594  0.2720  0.7773
  123MOL   C10139385   9.241   1.296  -0.682 -1.1810  0.1857 -0.8115
  123MOL   C10239386   9.292   1.300  -0.812 -0.1930 -1.3040 -0.4753
  123MOL   C10339387   9.413   1.223  -0.851 -0.2119  0.1005  0.1534
  123MOL   C10439388   9.211   1.354  -0.910  0.8908  0.4408  0.6407
  123MOL   C10539389   9.088   1.414  -0.889 -0.7023 -0.0722  0.4107
  123MOL   H10639390   8.920   1.563  -0.653  1.0376 -1.4636  0.1618
  123MOL   H10739391   8.877   1.527  -0.822  1.5973  1.9826  0.7352
  123MOL   H10839392   9.090   1.374  -0.547  1.0540  1.3164  1.0071
  123MOL   H10939393   9.296   1.250  -0.602 -0.1948  3.2351  0.3387
  123MOL   H11039394   9.442   1.152  -0.773 -2.3702 -0.4694  0.4629
  123MOL   H11139395   9.393   1.160  -0.938  1.3423  2.0348 -1.6790
  123MOL   H11239396   9.243   1.358  -1.013  0.0972  0.0268  0.3723
  123MOL   H11339397   9.025   1.447  -0.970  1.8851  1.1751 -1.1502
  123MOL   C11439398   9.530   1.320  -0.867 -0.2443  0.2815 -0.4541
  123MOL   C11539399   9.658   1.241  -0.890 -0.6012 -0.1248  0.6666
  123MOL   C11639400   9.697   1.225  -1.029 -0.1484  0.8554  0.5651
  123MOL   C11739401   9.810   1.153  -1.057 -0.6834  0.3015 -0.7602
  123MOL   C11839402   9.881   1.088  -0.958  0.4342  0.0806 -0.5158
  123MOL   C11939403  10.016   1.020  -0.995  0.5581  0.4435 -0.6011
  123MOL   C12039404   9.843   1.108  -0.823 -0.5351 -0.0411 -0.0637
  123MOL   C12139405   9.732   1.179  -0.789  0.0000 -0.2059 -0.1052
  123MOL   H12239406   9.550   1.374  -0.774  0.6008 -1.8358  0.6282
  123MOL   H12339407   9.522   1.395  -0.945 -0.3913 -1.0411 -1.7338
  123MOL   H12439408   9.642   1.276  -1.107 -2.2325 -0.0924  1.3627
  123MOL   H12539409   9.844   1.118  -1.154  0.2514 -1.8587  0.3006
  123MOL   H12639410  10.024   0.932  -0.931  0.7097  0.3389 -0.7640
  123MOL   H12739411  10.014   0.969  -1.092 -0.3052 -0.2569 -0.2262
  123MOL   H12839412   9.899   1.062  -0.743 -0.4461 -0.3339 -0.2936
  123MOL   H12939413   9.712   1.195  -0.684 -0.3256 -0.5198 -0.1190
  123MOL   C13039414  10.133   1.116  -0.979 -0.2185 -0.1639  0.1249
  123MOL   C13139415  10.258   1.044  -1.029  0.1163 -0.5318 -0.6547
  123MOL   C13239416  10.324   0.959  -0.934  0.4187 -0.7576  0.5632
  123MOL   C13339417  10.446   0.889  -0.970 -0.0862  0.4082  0.2876
  123MOL   C13439418  10.495   0.907  -1.100  0.2971  0.2315  0.3490
  123MOL   C13539419  10.623   0.836  -1.135  0.3381  0.4371  0.5698
  123MOL   C13639420  10.427   0.990  -1.194  0.1950  0.7698  0.5143
  123MOL   C13739421  10.312   1.058  -1.156  0.1979  0.7483  0.0772
  123MOL   H13839422  10.134   1.133  -0.871  0.1952  1.8665 -0.1843
  123MOL   H13939423  10.116   1.212  -1.027 -2.6589 -1.3595 -1.5345
  123MOL   H14039424  10.280   0.944  -0.837  0.7255  0.7685  0.9381
  123MOL   H14139425  10.500   0.831  -0.896  1.0217  0.4014 -0.5019
  123MOL   H14239426  10.610   0.730  -1.112 -3.7261  0.7938  0.2490
  123MOL   H14339427  10.639   0.840  -1.242  0.0506  2.5286  0.5954
  123MOL   H14439428  10.484   0.999  -1.285 -1.5732  0.6070 -0.6405
  123MOL   H14539429  10.253   1.110  -1.230 -0.4003 -0.2832 -0.1736
  123MOL   C14639430  10.749   0.903  -1.070  0.2606  0.0921 -1.1732
  123MOL   C14739431  10.873   0.835  -1.122  0.3571  0.4124  0.1592
  123MOL   C14839432  10.969   0.785  -1.033 -0.1131 -0.1029 -0.0069
  123MOL   C14939433  11.080   0.716  -1.077 -0.1736  0.3565 -0.2748
  123MOL   C15039434  11.103   0.697  -1.209  0.2365  0.5090  0.2493
  123MOL   C15139435  11.229   0.626  -1.249 -0.1390 -0.3016  0.0852
  123MOL   C15239436  11.017   0.751  -1.301  0.9177 -0.8042  0.5737
  123MOL   C15339437  10.899   0.818  -1.261  0.6596 -0.5458 -0.4444
  123MOL   H15439438  10.742   0.894  -0.962 -2.1685 -0.0074 -1.3220
  123MOL   H15539439  10.756   1.010  -1.090 -1.0610  0.8321  2.0158
  123MOL   H15639440  10.953   0.795  -0.927 -1.3177 -2.9545  0.1202
  123MOL   H15739441  11.160   0.685  -1.011  0.6800 -1.0060 -1.9049
  123MOL   H15839442  11.266   0.567  -1.166 -3.1418 -1.1769  0.8664
  123MOL   H15939443  11.204   0.559  -1.331  0.3048  0.8038 -0.9800
  123MOL   H16039444  11.042   0.742  -1.406  0.1030 -2.2717  0.4906
  123MOL   H16139445  10.844   0.861  -1.343  0.8054  1.9324  0.7148
  123MOL   C16239446  11.337   0.716  -1.313 -0.5440  1.0223 -0.7199
  123MOL   C16339447  11.454   0.628  -1.357 -0.2459 -0.3112  0.1573
  123MOL   C16439448  11.486   0.621  -1.493  0.0732  0.1149 -0.1279
  123MOL   C16539449  11.590   0.540  -1.538  0.5003  1.2446 -0.3258
  123MOL   C16639450  11.670   0.463  -1.447  0.5560 -0.0057  0.1552
  123MOL   C16739451  11.792   0.383  -1.484 -0.5361  0.6500  0.1836
  123MOL   C16839452  11.635   0.465  -1.307 -0.3465  0.0796  0.0746
  123MOL   C16939453  11.526   0.546  -1.263 -0.5358  0.0991 -0.4717
  123MOL   H17039454  11.365   0.794  -1.242  0.1410  0.7215 -0.6504
  123MOL   H17139455  11.284   0.771  -1.391  1.3256  2.1049 -1.2716
  123MOL   H17239456  11.431   0.674  -1.569 -0.1174 -0.4241 -0.3650
  123MOL   H17339457  11.619   0.532  -1.642  2.9142  0.9681  0.3263
  123MOL   H17439458  11.849   0.369  -1.392 -1.7159  0.4436  0.8944
  123MOL   H17539459  11.759   0.290  -1.531  0.9050 -0.8025  1.9585
  123MOL   H17639460  11.692   0.413  -1.232 -0.9057 -1.1188 -0.3279
  123MOL   H17739461  11.501   0.535  -1.158 -1.6583  1.1389 -0.6290
  123MOL   C17839462  11.882   0.459  -1.588  0.0787  0.4108  0.5028
  123MOL   C17939463  12.024   0.402  -1.605  0.3412  0.1203  0.1638
  123MOL   C18039464  12.038   0.278  -1.665  0.1603  0.3733  0.0289
  123MOL   C18139465  12.166   0.230  -1.696 -0.2034 -0.4648 -0.5102
  123MOL   C18239466  12.282   0.304  -1.646  0.4598  0.1000  0.3251
  123MOL   C18339467  12.421   0.254  -1.665  0.0903  0.1870  0.5043
  123MOL   C18439468  12.267   0.430  -1.583 -0.5262 -0.2020 -0.2036
  123MOL   C18539469  12.137   0.487  -1.572  1.1136  0.0634 -0.1573
  123MOL   H18639470  11.893   0.562  -1.555 -1.8497 -0.0845  2.8141
  123MOL   H18739471  11.830   0.443  -1.682  0.2756 -1.3258  0.6774
  123MOL   H18839472  11.947   0.229  -1.697  0.5331  1.0463 -2.1129
  123MOL   H18939473  12.187   0.138  -1.749  2.0847  1.3853 -2.9680
  123MOL   H19039474  12.455   0.254  -1.561  1.2768  1.2185  0.1155
  123MOL   H19139475  12.401   0.151  -1.695 -2.5675  0.6450  0.5940
  123MOL   H19239476  12.348   0.495  -1.552 -1.9126  1.9710 -1.0739
  123MOL   H19339477  12.119   0.587  -1.535  0.8813 -0.0433  0.0207
  123MOL   C19439478  12.512   0.331  -1.764  0.2276  0.0355 -1.1336
  123MOL   C19539479  12.644   0.264  -1.784  0.9103 -0.3776  0.8401
  123MOL   C19639480  12.753   0.284  -1.698 -0.1258  0.0289 -0.5243
  123MOL   C19739481  12.880   0.228  -1.726 -0.4268 -0.4935  0.5632
  123MOL   C19839482  12.886   0.145  -1.842  0.1748  0.0822  0.0797
  123MOL   C19939483  13.013   0.075  -1.875  0.0372 -0.6287 -0.1868
  123MOL   C20039484  12.778   0.124  -1.929 -0.8367 -0.2438 -0.0143
  123MOL   C20139485  12.656   0.177  -1.893 -0.0915  0.0717 -0.2684
  123MOL   H20239486  12.526   0.430  -1.721 -0.7117  0.1831 -1.1602
  123MOL   H20339487  12.453   0.345  -1.855 -2.8039 -0.5515  0.6512
  123MOL   H20439488  12.750   0.339  -1.605  1.6238  1.3493 -1.2138
  123MOL   H20539489  12.965   0.245  -1.662  0.8695  0.8388 -1.4484
  123MOL   H20639490  13.057   0.034  -1.784  1.9057 -0.6380 -1.0845
  123MOL   H20739491  12.981  -0.011  -1.935  1.0242  0.3788 -2.1935
  123MOL   H20839492  12.784   0.050  -2.008 -1.5160  0.1629 -0.4574
  123MOL   H20939493  12.567   0.155  -1.950 -0.9063 -1.3326  1.4977
  123MOL   C21039494  13.095   0.167  -1.968 -0.4149  0.5506  0.3336
  123MOL   C21139495  13.242   0.119  -1.998 -0.2001 -0.4310 -0.0793
  123MOL   C21239496  13.349   0.164  -1.915  0.5222 -0.1544 -0.2036
  123MOL   C21339497  13.476   0.104  -1.933 -0.0134  0.5890  0.0547
  123MOL   C21439498  13.501   0.011  -2.033 -0.6424 -0.5720  0.7565
  123MOL   C21539499  13.641  -0.045  -2.052 -0.4430  0.1827  0.0124
  123MOL   C21639500  13.398  -0.027  -2.118  0.3871 -0.7772 -0.4554
  123MOL   C21739501  13.264   0.023  -2.099  0.3346  0.5687  0.0394
  123MOL   H21839502  13.102   0.262  -1.916 -0.3195  0.1518  1.0510
  123MOL   H21939503  13.044   0.181  -2.063 -1.9718 -0.2286  1.0373
  123MOL   H22039504  13.331   0.219  -1.823  0.4063  0.7378 -0.7537
  123MOL   H22139505  13.558   0.122  -1.865 -1.4134 -1.4926  2.3648
  123MOL   H22239506  13.698  -0.030  -1.960 -0.2710  1.2194 -0.2608
  123MOL   H22339507  13.625  -0.151  -2.072  1.1909 -0.4907  2.0497
  123MOL   H22439508  13.421  -0.102  -2.191  0.9904 -2.5664  1.5207
  123MOL   H22539509  13.189  -0.031  -2.153  0.8559  0.8781 -1.0086
  123MOL   C22639510  13.711   0.026  -2.166 -0.0238 -0.2412  0.1471
  123MOL   C22739511  13.843  -0.035  -2.196 -0.2759 -0.2601 -0.5371
  123MOL   C22839512  13.945  -0.041  -2.099 -0.6914  0.2440 -0.7568
  123MOL   C22939513  14.069  -0.098  -2.130 -0.2595  0.3098 -0.5790
  123MOL   C23039514  14.096  -0.151  -2.258 -0.7967 -0.5367  1.2613
  123MOL   C23139515  14.234  -0.200  -2.299  0.3463 -0.3335  0.3113
  123MOL   C23239516  13.991  -0.151  -2.353 -0.2953  0.8251  0.0483
  123MOL   C23339517  13.862  -0.105  -2.317  0.4279 -0.4440 -0.0496
  123MOL   H23439518  13.717   0.130  -2.133 -0.5616 -0.2220  0.1921
  123MOL   H23539519  13.649   0.027  -2.256 -0.9306  0.3233  0.7671
  123MOL   H23639520  13.920  -0.001  -2.002 -0.2406  1.5250 -1.1496
  123MOL   H23739521  14.146  -0.098  -2.054 -0.8112  0.7909 -0.0160
  123MOL   H23839522  14.291  -0.239  -2.214 -0.2386  0.2618  0.9748
  123MOL   H23939523  14.224  -0.281  -2.372 -0.5505  0.9574 -1.0092
  123MOL   H24039524  14.001  -0.195  -2.451 -0.9548  0.2554  0.2270
  123MOL   H24139525  13.788  -0.119  -2.395 -0.6355  1.1863  0.6541
  123MOL   C24239526  14.320  -0.092  -2.370 -0.3726 -0.2817  0.0489
  123MOL   C24339527  14.452  -0.153  -2.411 -0.4817  0.1332 -0.0419
  123MOL   C24439528  14.464  -0.200  -2.546  0.8714 -0.4882  0.2022
  123MOL   C24539529  14.588  -0.248  -2.593 -0.5105  0.6725  0.7666
  123MOL   C24639530  14.700  -0.248  -2.508 -0.0152  0.9875  0.0601
  123MOL   C24739531  14.837  -0.300  -2.558  0.2780  0.1919  0.0663
  123MOL   C24839532  14.684  -0.204  -2.376  0.2370 -0.0418 -0.3895
  123MOL   C24939533  14.563  -0.163  -2.325  0.1958  0.2918  0.0892
  123MOL   H25039534  14.261  -0.063  -2.457  0.0003  0.3195 -0.0079
  123MOL   H25139535  14.341  -0.011  -2.299  2.9511 -1.7762  0.8360
  123MOL   H25239536  14.374  -0.214  -2.604 -0.0189  1.7474  0.9667
  123MOL   H25339537  14.599  -0.286  -2.693 -1.4977  1.6878  0.2637
  123MOL   H25439538  14.871  -0.363  -2.476 -0.2868 -2.4558 -1.6445
  123MOL   H25539539  14.826  -0.367  -2.644  0.2478  1.8954 -1.2925
  123MOL   H25639540  14.777  -0.187  -2.324  0.6705 -0.2609 -1.0883
  123MOL   H25739541  14.570  -0.116  -2.228  1.1400 -1.1504  0.7298
  123MOL   C25839542  14.943  -0.196  -2.575  0.1804 -0.0493  0.4987
  123MOL   C25939543  15.077  -0.259  -2.604 -0.2917 -0.7148 -0.1380
  123MOL   C26039544  15.173  -0.275  -2.499 -0.5994 -1.0009 -0.1538
  123MOL   C26139545  15.306  -0.319  -2.523 -0.1011 -0.6418  0.0685
  123MOL   C26239546  15.350  -0.359  -2.650  0.8627  0.4223  0.0100
  123MOL   C26339547  15.498  -0.402  -2.681 -0.3175  0.5045  0.0068
  123MOL   C26439548  15.253  -0.345  -2.754  0.3539  0.0631 -0.8246
  123MOL   C26539549  15.120  -0.292  -2.731 -0.5633  1.2524  0.2984
  123MOL   H26639550  14.956  -0.126  -2.492 -1.2430  0.2391  0.4973
  123MOL   H26739551  14.927  -0.140  -2.667 -3.1045 -1.0183  0.4295
  123MOL   H26839552  15.149  -0.235  -2.402 -1.0361 -0.1871 -0.5843
  123MOL   H26939553  15.372  -0.325  -2.438 -0.0966 -0.3889  0.0820
  123MOL   H27039554  15.514  -0.488  -2.616 -2.3811 -1.7396 -2.2778
  123MOL   H27139555  15.496  -0.456  -2.776 -0.8112 -1.0989  0.9031
  123MOL   H27239556  15.283  -0.372  -2.854 -0.8424 -1.0205 -0.9023
  123MOL   H27339557  15.064  -0.287  -2.823  0.6763  0.0710 -0.5507
  123MOL   C27439558  15.603  -0.291  -2.661  0.3589  0.3372  0.7437
  123MOL   C27539559  15.743  -0.344  -2.691 -0.3889 -0.4952  1.1397
  123MOL   C27639560  15.768  -0.429  -2.805  0.3222 -0.1651 -0.1146
  123MOL   C27739561  15.899  -0.461  -2.836 -0.5687  0.6722 -0.2443
  123MOL   C27839562  16.003  -0.438  -2.745  0.2185  0.8794 -0.2334
  123MOL   C27939563  16.144  -0.502  -2.761 -0.1315  0.2319 -0.2437
  123MOL   C28039564  15.974  -0.375  -2.621  0.7407  1.0221 -0.1632
  123MOL   C28139565  15.845  -0.316  -2.601 -0.3189 -0.1598 -0.3559
  123MOL   H28239566  15.584  -0.204  -2.724 -1.0154  0.5268  1.4021
  123MOL   H28339567  15.609  -0.256  -2.558 -2.7634 -0.8243  1.3887
  123MOL   H28439568  15.691  -0.447  -2.878  0.3124  0.2595 -0.2081
  123MOL   H28539569  15.928  -0.523  -2.920 -1.2729 -0.8459  0.6202
  123MOL   H28639570  16.175  -0.539  -2.664  0.5541 -0.4088 -0.7079
  123MOL   H28739571  16.134  -0.576  -2.840  2.4590 -0.8698  0.4102
  123MOL   H28839572  16.055  -0.365  -2.550  0.1532  0.0087  0.6681
  123MOL   H28939573  15.825  -0.246  -2.521 -0.1321  0.6277 -0.9889
  123MOL   C29039574  16.257  -0.395  -2.795  0.1811 -0.0168 -0.5208
  123MOL   C29139575  16.390  -0.457  -2.828  0.3307  0.1161 -0.2519
  123MOL   C29239576  16.473  -0.493  -2.722  0.2011 -0.3409 -0.5549
  123MOL   C29339577  16.598  -0.556  -2.745  0.0812  0.1330 -0.0493
  123MOL   C29439578  16.641  -0.569  -2.882 -0.5870  0.2415  0.1062
  123MOL   C29539579  16.787  -0.618  -2.907  0.7301  0.3691  0.0405
  123MOL   C29639580  16.562  -0.526  -2.985 -0.3031 -1.0376 -0.4573
  123MOL   C29739581  16.429  -0.473  -2.965 -0.3866  0.3841 -0.0822
  123MOL   H29839582  16.261  -0.315  -2.721  2.5322  0.7138 -1.3996
  123MOL   H29939583  16.219  -0.349  -2.887  0.9389  1.7624  0.0334
  123MOL   H30039584  16.439  -0.485  -2.620 -1.5366  0.6295 -1.1993
  123MOL   H30139585  16.669  -0.590  -2.671  0.0169 -1.0754 -0.5455
  123MOL   H30239586  16.791  -0.603  -3.015 -2.8425  2.2198  0.0733
  123MOL   H30339587  16.862  -0.555  -2.861  3.0409 -2.5544  0.4620
  123MOL   H30439588  16.595  -0.525  -3.088  1.0624 -0.2126 -0.0216
  123MOL   H30539589  16.375  -0.446  -3.055  0.4894 -0.1724 -0.7862
  123MOL   C30639590  16.812  -0.759  -2.857 -0.0925  0.1161  0.4268
  123MOL   C30739591  16.933  -0.822  -2.931  0.5445  0.2317  1.0171
  123MOL   C30839592  17.066  -0.771  -2.915  0.0630 -0.8444  0.1867
  123MOL   C30939593  17.167  -0.824  -2.998  0.3383 -0.0026  0.3375
  123MOL   C31039594  17.149  -0.920  -3.094  0.7162  0.4891 -0.3042
  123MOL   C31139595  17.251  -0.943  -3.205 -0.3394 -0.8426 -0.2128
  123MOL   C31239596  17.018  -0.974  -3.112 -0.0921  0.3140 -0.1383
  123MOL   C31339597  16.916  -0.918  -3.032  0.3853  1.0629  0.6183
  123MOL   H31439598  16.734  -0.834  -2.871  0.1481 -0.3948  1.7453
  123MOL   H31539599  16.831  -0.757  -2.750 -1.1410 -1.4507  0.6663
  123MOL   H31639600  17.085  -0.694  -2.842 -0.6324  1.1587 -1.7049
  123MOL   H31739601  17.262  -0.773  -3.005  0.8820 -0.7538  1.9552
  123MOL   H31839602  17.234  -1.046  -3.237  0.8116 -0.5405 -1.8692
  123MOL   H31939603  17.243  -0.875  -3.290 -1.3593 -1.3318 -0.5166
  123MOL   H32039604  16.991  -1.050  -3.183 -2.3942 -0.6558  1.7038
  123MOL   H32139605  16.816  -0.957  -3.049  0.1224  2.0905 -0.2647
  123MOL   H32239606  17.354  -0.928  -3.172 -0.3474 -1.0356 -0.1018
  124MOL     C139607   1.794   6.032   2.625 -0.0829 -0.5560  0.9945
  124MOL     C239608   1.650   6.085   2.598  0.0604 -0.2124 -0.0553
  124MOL     C339609   1.588   6.073   2.472  0.1586 -0.3971  0.2285
  124MOL     C439610   1.475   6.151   2.446  0.3374  0.5923 -0.8554
  124MOL     C539611   1.410   6.236   2.540 -0.1920 -0.2877  0.6539
  124MOL     C639612   1.289   6.320   2.502 -0.6349 -0.7957  0.1136
  124MOL     C739613   1.473   6.250   2.663 -0.3429 -0.5101  0.7410
  124MOL     C839614   1.590   6.175   2.695  0.0056  1.0388  0.0017
  124MOL     H939615   1.791   6.006   2.731  1.0279 -2.8622  0.4816
  124MOL    H1039616   1.810   5.939   2.572  1.4436  0.4921 -0.4339
  124MOL    H1139617   1.627   6.008   2.395  0.1764  2.0574 -1.9109
  124MOL    H1239618   1.429   6.138   2.349 -1.7987 -0.4838  0.2573
  124MOL    H1339619   1.294   6.425   2.532  1.8745 -1.0951  0.8377
  124MOL    H1439620   1.277   6.325   2.394  0.1932  0.8411  0.0704
  124MOL    H1539621   1.433   6.308   2.745  0.3787 -1.5068  1.8186
  124MOL    H1639622   1.640   6.199   2.788 -0.4436  0.7661  0.3166
  124MOL    H1739623   1.868   6.111   2.615 -0.9148  0.3364  1.7236
  124MOL    C1839624   1.167   6.253   2.560  0.1373  0.7105  0.8952
  124MOL    C1939625   1.037   6.338   2.530  0.9138  0.3732 -0.1995
  124MOL    C2039626   0.998   6.425   2.631 -0.3959 -0.1524 -0.8493
  124MOL    C2139627   0.877   6.502   2.611 -0.2729  0.1438  0.0897
  124MOL    C2239628   0.810   6.491   2.493  0.3625 -0.1324 -0.2791
  124MOL    C2339629   0.690   6.575   2.469  0.1689 -0.2763  0.6138
  124MOL    C2439630   0.853   6.407   2.388  0.4104 -0.3613 -0.8317
  124MOL    C2539631   0.971   6.329   2.407 -0.2210  0.3349  0.3171
  124MOL    H2639632   1.150   6.148   2.537 -1.1078  0.4498  2.8759
  124MOL    H2739633   1.184   6.257   2.668  0.4789 -0.3229  0.8852
  124MOL    H2839634   1.053   6.434   2.723 -1.1186 -1.5715 -0.2693
  124MOL    H2939635   0.859   6.574   2.690 -0.7731 -0.2432  0.3265
  124MOL    H3039636   0.615   6.500   2.443 -0.4831  1.2977 -2.2852
  124MOL    H3139637   0.705   6.627   2.375  0.0337 -1.2243  0.0601
  124MOL    H3239638   0.809   6.423   2.290 -0.0774 -4.6519 -1.3883
  124MOL    H3339639   1.021   6.273   2.329 -0.2886 -0.5874  0.9411
  124MOL    C3439640   0.651   6.671   2.577  1.9233 -0.2704 -0.4005
  124MOL    C3539641   0.523   6.754   2.541  0.2757 -0.4177  0.5867
  124MOL    C3639642   0.526   6.873   2.465  0.7462 -0.3527  0.6239
  124MOL    C3739643   0.405   6.946   2.452 -1.1858  0.1802  0.0003
  124MOL    C3839644   0.284   6.896   2.506  0.4514  0.5247  0.4925
  124MOL    C3939645   0.154   6.982   2.493 -0.1822  0.1136  0.5581
  124MOL    C4039646   0.287   6.770   2.571  0.0929  0.3877  0.4255
  124MOL    C4139647   0.410   6.702   2.595  0.4318 -0.0913 -0.7740
  124MOL    H4239648   0.732   6.742   2.590  0.7853  1.3106 -1.7901
  124MOL    H4339649   0.636   6.624   2.675  1.3400  0.0147 -0.3534
  124MOL    H4439650   0.626   6.900   2.433 -0.3274  0.4975 -2.1898
  124MOL    H4539651   0.416   7.035   2.393 -1.1910  0.4484  0.3969
  124MOL    H4639652   0.073   6.919   2.456  0.7312  0.2703 -1.8465
  124MOL    H4739653   0.143   7.027   2.591  3.0224  1.2187  0.4597
  124MOL    H4839654   0.194   6.725   2.603 -0.0464  0.5525  0.2508
  124MOL    H4939655   0.407   6.612   2.655 -1.5678  1.8092  2.0869
  124MOL    C5039656   0.155   7.094   2.390 -0.5077 -0.0938 -0.3754
  124MOL    C5139657   0.027   7.175   2.397  0.2073 -0.5820 -0.3322
  124MOL    C5239658  -0.076   7.136   2.309  0.0078  0.2316 -0.0893
  124MOL    C5339659  -0.204   7.202   2.310  0.2703 -0.3613 -0.2454
  124MOL    C5439660  -0.226   7.310   2.396 -0.2504  0.2444 -0.1291
  124MOL    C5539661  -0.364   7.382   2.403 -0.1289 -0.6302 -0.0224
  124MOL    C5639662  -0.121   7.343   2.486  0.4964 -0.0576 -0.0337
  124MOL    C5739663   0.001   7.273   2.495  0.1631  0.2699  0.8979
  124MOL    H5839664   0.170   7.057   2.289  1.5273 -0.2243 -0.0476
  124MOL    H5939665   0.234   7.154   2.436 -1.2814  1.0033 -0.4599
  124MOL    H6039666  -0.056   7.059   2.235  3.1625  2.4821 -1.6899
  124MOL    H6139667  -0.283   7.167   2.245  2.2629  0.2289 -3.0828
  124MOL    H6239668  -0.443   7.314   2.371 -1.4362 -0.3017  2.3353
  124MOL    H6339669  -0.379   7.406   2.509 -2.2059 -2.2878  0.0980
  124MOL    H6439670  -0.144   7.434   2.539  1.0604  0.7376 -1.1430
  124MOL    H6539671   0.081   7.301   2.562 -0.0463  0.3825  1.1004
  124MOL    C6639672  -0.357   7.509   2.312 -0.1012  0.2266  0.0938
  124MOL    C6739673  -0.486   7.595   2.301  0.5399 -0.0264  0.7518
  124MOL    C6839674  -0.609   7.531   2.300 -0.0975  0.5149  0.6807
  124MOL    C6939675  -0.734   7.607   2.304 -0.7169  0.1370 -0.6585
  124MOL    C7039676  -0.724   7.745   2.302  0.2747  0.3171  0.1483
  124MOL    C7139677  -0.845   7.830   2.321  0.8927 -0.1809  0.3185
  124MOL    C7239678  -0.599   7.809   2.285  0.2546  0.8008 -0.4929
  124MOL    C7339679  -0.477   7.736   2.302  0.6962 -0.2433  0.0841
  124MOL    H7439680  -0.323   7.475   2.214 -1.9179 -0.1392 -0.4137
  124MOL    H7539681  -0.286   7.582   2.350  0.9936 -2.2936  3.0964
  124MOL    H7639682  -0.611   7.423   2.302  0.0765  0.5214  1.5082
  124MOL    H7739683  -0.819   7.542   2.309 -1.3397  0.9823  0.0046
  124MOL    H7839684  -0.829   7.926   2.372  0.7733  0.2498 -0.4431
  124MOL    H7939685  -0.901   7.773   2.394 -0.6991  0.0757 -0.6791
  124MOL    H8039686  -0.586   7.916   2.279 -2.1727  1.1647 -0.0631
  124MOL    H8139687  -0.392   7.803   2.309 -1.2520  2.0574  2.4793
  124MOL    C8239688  -0.909   7.837   2.184  0.7365  0.0057 -0.1538
  124MOL    C8339689  -1.043   7.913   2.183  0.0223 -0.2162  0.6842
  124MOL    C8439690  -1.150   7.850   2.245 -0.2421 -0.1676  1.0329
  124MOL    C8539691  -1.274   7.916   2.243  0.2114 -0.3064  0.2695
  124MOL    C8639692  -1.291   8.049   2.193 -0.2877 -0.4466 -0.4162
  124MOL    C8739693  -1.433   8.108   2.172  0.3188 -0.6531  0.4049
  124MOL    C8839694  -1.178   8.115   2.143 -0.1500  0.4087  0.2786
  124MOL    C8939695  -1.052   8.046   2.132  1.0123  0.2431 -0.9639
  124MOL    H9039696  -0.932   7.738   2.144  0.8670 -0.6231  1.2884
  124MOL    H9139697  -0.843   7.883   2.110  0.1757  1.3351  0.1660
  124MOL    H9239698  -1.146   7.754   2.293  0.2124 -1.3650 -1.3185
  124MOL    H9339699  -1.359   7.865   2.286 -0.2337  0.8541  0.8047
  124MOL    H9439700  -1.497   8.041   2.115  1.8881  0.4235 -2.6992
  124MOL    H9539701  -1.441   8.198   2.112  1.1266  1.5197  3.3992
  124MOL    H9639702  -1.198   8.212   2.099  0.3937  0.3086 -0.1862
  124MOL    H9739703  -0.969   8.100   2.090  0.2337  1.3784 -1.0675
  124MOL    C9839704  -1.497   8.143   2.306  0.5033 -0.1460  0.0724
  124MOL    C9939705  -1.643   8.186   2.283 -0.1974  0.1326 -0.0528
  124MOL   C10039706  -1.667   8.322   2.242  0.3671 -0.3922 -0.0962
  124MOL   C10139707  -1.797   8.377   2.219 -0.6296  0.2885  0.3160
  124MOL   C10239708  -1.904   8.285   2.235 -0.3657  0.3804  0.4694
  124MOL   C10339709  -2.044   8.342   2.216  0.2279 -0.4725 -0.6354
  124MOL   C10439710  -1.879   8.145   2.267 -0.2082  0.4654  0.2852
  124MOL   C10539711  -1.747   8.098   2.290  0.2128 -0.0853  0.3787
  124MOL   H10639712  -1.439   8.215   2.364  0.0657  0.2459  0.0267
  124MOL   H10739713  -1.498   8.057   2.374  0.1012  1.0221  1.5676
  124MOL   H10839714  -1.586   8.392   2.232 -0.0355 -0.3576 -3.6459
  124MOL   H10939715  -1.813   8.476   2.178 -0.3560  1.0174  1.9511
  124MOL   H11039716  -2.040   8.449   2.200 -1.0599 -0.3136 -0.0026
  124MOL   H11139717  -2.086   8.299   2.125  2.3641 -2.6226 -0.6451
  124MOL   H11239718  -1.960   8.073   2.267  0.1327  0.0704  0.0063
  124MOL   H11339719  -1.734   7.994   2.318  1.8422 -0.7558 -2.6366
  124MOL   C11439720  -2.138   8.301   2.329  0.3493 -0.1876  0.1087
  124MOL   C11539721  -2.287   8.364   2.315 -0.2210 -0.2871 -0.5753
  124MOL   C11639722  -2.303   8.499   2.289  0.0806 -0.3593  0.0890
  124MOL   C11739723  -2.436   8.540   2.271  0.2627  0.0162 -0.5455
  124MOL   C11839724  -2.552   8.457   2.275 -0.5905  1.5313  0.2989
  124MOL   C11939725  -2.692   8.511   2.250  1.4297  0.0005 -0.0139
  124MOL   C12039726  -2.531   8.322   2.311 -0.8900 -0.1485  0.2535
  124MOL   C12139727  -2.398   8.282   2.330 -0.5879  0.1411 -0.3365
  124MOL   H12239728  -2.101   8.345   2.422 -0.8946  3.1040 -0.8556
  124MOL   H12339729  -2.139   8.192   2.331 -0.8832 -0.2029 -0.6354
  124MOL   H12439730  -2.225   8.569   2.265 -2.0630  2.3539  0.7496
  124MOL   H12539731  -2.452   8.644   2.245  2.3109  0.4071 -0.2957
  124MOL   H12639732  -2.684   8.599   2.186 -0.5143 -0.5708 -1.0909
  124MOL   H12739733  -2.746   8.434   2.194  2.2373 -1.8291  1.6571
  124MOL   H12839734  -2.607   8.245   2.314 -0.4054 -0.6874 -0.8373
  124MOL   H12939735  -2.375   8.179   2.353  1.9091  1.1082  1.7448
  124MOL   C13039736  -2.764   8.546   2.386  0.2753  0.4892  0.1149
  124MOL   C13139737  -2.905   8.588   2.357 -0.1892  0.9622  0.2217
  124MOL   C13239738  -3.006   8.490   2.346  0.3448  0.0726 -0.5007
  124MOL   C13339739  -3.137   8.523   2.336 -0.4270  0.3236  0.3568
  124MOL   C13439740  -3.174   8.657   2.318  0.0030 -0.2068 -0.1482
  124MOL   C13539741  -3.313   8.701   2.289  0.1342 -0.9231  0.3551
  124MOL   C13639742  -3.079   8.756   2.321 -0.2270 -0.8181 -0.3649
  124MOL   C13739743  -2.944   8.717   2.342  0.2280 -0.2139  0.1283
  124MOL   H13839744  -2.711   8.632   2.426  2.7161  0.0679 -2.0632
  124MOL   H13939745  -2.774   8.465   2.459  0.3719  0.8902  0.5733
  124MOL   H14039746  -2.978   8.386   2.341 -0.1299 -0.1306  0.9296
  124MOL   H14139747  -3.209   8.443   2.326  0.6795 -0.7612  0.9855
  124MOL   H14239748  -3.311   8.769   2.204  0.0284  1.1421  1.9864
  124MOL   H14339749  -3.358   8.617   2.235  1.5799 -0.8400 -1.0447
  124MOL   H14439750  -3.100   8.862   2.324 -0.1786 -0.7730 -1.3692
  124MOL   H14539751  -2.872   8.796   2.351  2.7030 -2.4507  0.5337
  124MOL   C14639752  -3.393   8.741   2.408  0.3866 -0.1518 -0.0426
  124MOL   C14739753  -3.537   8.777   2.373 -0.2482  0.1817  0.0593
  124MOL   C14839754  -3.562   8.899   2.319 -0.1665 -0.7449  0.8592
  124MOL   C14939755  -3.691   8.953   2.302  0.6184  0.3120  0.2033
  124MOL   C15039756  -3.798   8.870   2.331  0.5040 -0.5163 -0.0487
  124MOL   C15139757  -3.938   8.920   2.315 -0.9654 -0.3111  0.2443
  124MOL   C15239758  -3.780   8.738   2.381  0.0862  0.0128  0.1612
  124MOL   C15339759  -3.648   8.691   2.402 -0.6178  0.2739 -0.4458
  124MOL   H15439760  -3.348   8.832   2.448  1.2072 -0.4009 -0.3810
  124MOL   H15539761  -3.390   8.660   2.480 -0.3793 -0.2450 -0.1166
  124MOL   H15639762  -3.480   8.968   2.305 -0.8035 -0.1498  0.0158
  124MOL   H15739763  -3.716   9.054   2.271  2.0349  1.3901  2.4156
  124MOL   H15839764  -3.946   8.962   2.215  0.1164 -0.1740  0.2136
  124MOL   H15939765  -4.011   8.839   2.327  0.9261 -2.1790 -0.4265
  124MOL   H16039766  -3.870   8.682   2.400  0.8500 -2.3519 -2.7707
  124MOL   H16139767  -3.626   8.592   2.439 -0.8777 -0.4406 -2.1664
  124MOL   C16239768  -3.977   9.027   2.421 -0.0994 -0.5866 -0.3932
  124MOL   C16339769  -4.124   9.072   2.413 -0.7295 -0.2496 -0.3297
  124MOL   C16439770  -4.229   8.987   2.452  0.5690 -0.0409  0.2858
  124MOL   C16539771  -4.366   9.028   2.441 -0.8673 -0.1244 -0.8232
  124MOL   C16639772  -4.392   9.149   2.390 -0.2308  0.5136  0.0204
  124MOL   C16739773  -4.531   9.195   2.372  0.3681 -0.3712 -0.5813
  124MOL   C16839774  -4.289   9.236   2.354  0.7633  0.7093 -0.0157
  124MOL   C16939775  -4.152   9.198   2.364  0.4674 -0.0311 -0.8020
  124MOL   H17039776  -3.908   9.111   2.417  0.5624 -1.0604  0.8539
  124MOL   H17139777  -3.973   8.972   2.515 -0.8202 -0.4533 -0.2826
  124MOL   H17239778  -4.211   8.890   2.496  1.5050  0.6870  1.5668
  124MOL   H17339779  -4.449   8.968   2.473 -0.8340  0.3070  0.1076
  124MOL   H17439780  -4.532   9.277   2.301  2.9376  0.0308 -0.2345
  124MOL   H17539781  -4.576   9.109   2.323  0.2631  0.5377 -2.0816
  124MOL   H17639782  -4.308   9.334   2.313 -1.4019  0.0098 -0.7397
  124MOL   H17739783  -4.080   9.269   2.326 -0.6548  1.8378  0.5139
  124MOL   C17839784  -4.607   9.234   2.500  0.0418 -0.7990 -0.0813
  124MOL   C17939785  -4.743   9.284   2.479 -0.6026 -0.0395 -0.5501
  124MOL   C18039786  -4.772   9.415   2.443  0.3455  0.4436  0.2244
  124MOL   C18139787  -4.904   9.462   2.434  0.5685 -0.4680 -0.0073
  124MOL   C18239788  -5.013   9.380   2.456  0.4566  0.6916  0.0134
  124MOL   C18339789  -5.153   9.434   2.453 -0.1865  1.2962 -0.2820
  124MOL   C18439790  -4.986   9.244   2.488  0.0166 -0.3936  0.0993
  124MOL   C18539791  -4.854   9.197   2.498 -0.4059 -0.2750  0.0576
  124MOL   H18639792  -4.554   9.311   2.556 -0.7058 -0.7722  0.5966
  124MOL   H18739793  -4.599   9.153   2.572  1.0944  1.3483  2.2986
  124MOL   H18839794  -4.690   9.474   2.405  0.5799 -0.8520 -1.3423
  124MOL   H18939795  -4.915   9.565   2.402  1.6011 -0.0927  0.8097
  124MOL   H19039796  -5.155   9.512   2.377 -0.1039  1.5097 -0.0666
  124MOL   H19139797  -5.210   9.357   2.402  0.9190  0.7493 -0.7005
  124MOL   H19239798  -5.067   9.175   2.508  0.2897 -0.6600  0.2835
  124MOL   H19339799  -4.823   9.095   2.519  3.5925  1.0916  1.2464
  124MOL   C19439800  -5.213   9.461   2.587  0.1357 -0.3788 -0.3036
  124MOL   C19539801  -5.359   9.482   2.575  0.4747  0.4647 -0.0734
  124MOL   C19639802  -5.411   9.613   2.586  0.0839 -0.3295 -0.2777
  124MOL   C19739803  -5.550   9.638   2.586 -0.2477 -0.0730  0.7939
  124MOL   C19839804  -5.640   9.530   2.589  0.2442 -0.1626  0.2140
  124MOL   C19939805  -5.788   9.554   2.610 -0.0808  0.0325  0.2254
  124MOL   C20039806  -5.584   9.399   2.581 -0.1180  0.1587 -0.5030
  124MOL   C20139807  -5.445   9.377   2.565 -0.0666  0.0956  0.1177
  124MOL   H20239808  -5.164   9.542   2.642 -0.0671 -2.0274  2.4364
  124MOL   H20339809  -5.188   9.381   2.658  0.5003  2.4028  2.8484
  124MOL   H20439810  -5.342   9.694   2.606 -1.8950  0.7271  2.5866
  124MOL   H20539811  -5.588   9.738   2.598 -0.3354  0.3595 -2.6479
  124MOL   H20639812  -5.804   9.506   2.706 -0.6969  0.0526  0.1362
  124MOL   H20739813  -5.809   9.660   2.623 -0.4059 -0.1573  1.2347
  124MOL   H20839814  -5.645   9.310   2.581  0.3068 -0.1563 -2.6129
  124MOL   H20939815  -5.412   9.275   2.551  2.7311  0.8051  1.3261
  124MOL   C21039816  -5.878   9.480   2.518  0.7206 -0.4907  0.0782
  124MOL   C21139817  -6.029   9.514   2.544  0.1613 -0.1781  0.7251
  124MOL   C21239818  -6.124   9.422   2.603 -0.1800 -0.8391  0.2343
  124MOL   C21339819  -6.257   9.451   2.628  0.4286 -0.0434  0.4500
  124MOL   C21439820  -6.300   9.581   2.600 -0.7960 -0.5893  0.5396
  124MOL   C21539821  -6.448   9.616   2.635 -0.7805 -0.4276  0.4399
  124MOL   C21639822  -6.211   9.671   2.527  0.1429  0.5619 -0.1884
  124MOL   C21739823  -6.077   9.638   2.509  0.1428  0.3440  0.4496
  124MOL   H21839824  -5.879   9.373   2.538  2.5612 -0.6347 -0.5256
  124MOL   H21939825  -5.861   9.497   2.412 -1.9609 -0.8202 -0.4398
  124MOL   H22039826  -6.080   9.328   2.631  1.7833  0.6406  2.2918
  124MOL   H22139827  -6.324   9.379   2.673  0.4192 -1.2019 -1.3941
  124MOL   H22239828  -6.472   9.552   2.720  3.8820 -1.1724  1.3269
  124MOL   H22339829  -6.453   9.723   2.654 -0.9142 -0.6426  1.6873
  124MOL   H22439830  -6.257   9.760   2.487 -1.2862 -0.3756 -0.6992
  124MOL   H22539831  -6.009   9.716   2.476  0.2416 -0.2383 -0.7638
  124MOL   C22639832  -6.536   9.581   2.512 -0.6546  0.3087  0.3857
  124MOL   C22739833  -6.683   9.591   2.553  1.0781  0.7312 -0.2591
  124MOL   C22839834  -6.771   9.476   2.557 -0.4226 -0.7517  0.1557
  124MOL   C22939835  -6.903   9.501   2.590  0.6110 -0.0075  0.3746
  124MOL   C23039836  -6.952   9.625   2.628  0.2485 -0.0222  0.1168
  124MOL   C23139837  -7.097   9.634   2.680 -0.6003  0.3861 -0.2953
  124MOL   C23239838  -6.858   9.738   2.624  0.4981 -0.2967 -0.9283
  124MOL   C23339839  -6.727   9.726   2.588 -0.1957  0.6723 -0.2346
  124MOL   H23439840  -6.500   9.484   2.478 -0.4459  1.0538 -1.5323
  124MOL   H23539841  -6.519   9.635   2.419  0.9075  0.4737  0.7433
  124MOL   H23639842  -6.733   9.376   2.544  1.1257 -0.0668 -0.7527
  124MOL   H23739843  -6.961   9.410   2.596  0.3617 -0.0457 -2.1107
  124MOL   H23839844  -7.096   9.567   2.766  0.6921 -1.3416 -1.6365
  124MOL   H23939845  -7.115   9.734   2.719  1.3643  0.3260  0.7880
  124MOL   H24039846  -6.889   9.838   2.651  2.2104  0.0219 -0.1005
  124MOL   H24139847  -6.656   9.808   2.586 -0.4791  0.9026 -0.9109
  124MOL   C24239848  -7.209   9.591   2.585  0.7963  0.0255 -0.6088
  124MOL   C24339849  -7.349   9.616   2.638  0.6990 -0.8092 -0.5663
  124MOL   C24439850  -7.430   9.505   2.658 -0.2829  0.8088  0.2119
  124MOL   C24539851  -7.564   9.524   2.700 -0.6893 -0.1089  0.1131
  124MOL   C24639852  -7.614   9.651   2.728  0.4342  0.6989 -0.8884
  124MOL   C24739853  -7.752   9.663   2.789 -0.1238  0.8347  0.5052
  124MOL   C24839854  -7.524   9.758   2.734 -0.8196  0.4804 -0.4633
  124MOL   C24939855  -7.395   9.737   2.686 -0.1262  0.0095 -0.6919
  124MOL   H25039856  -7.199   9.637   2.487  1.5142 -1.2654 -1.1609
  124MOL   H25139857  -7.195   9.483   2.573  0.3010 -0.1300  0.1783
  124MOL   H25239858  -7.385   9.408   2.647  0.1667  1.0361  0.0099
  124MOL   H25339859  -7.625   9.440   2.729  0.1500 -0.3870  1.0520
  124MOL   H25439860  -7.788   9.561   2.804  0.8638  0.4409  0.2576
  124MOL   H25539861  -7.743   9.712   2.885  0.1218 -0.2267  1.0323
  124MOL   H25639862  -7.551   9.854   2.776  1.7362  2.1808 -2.5003
  124MOL   H25739863  -7.329   9.822   2.703 -0.0145 -0.1327 -0.4034
  124MOL   C25839864  -7.850   9.735   2.703  0.2138  0.0285  0.5093
  124MOL   C25939865  -7.981   9.764   2.777 -0.2199 -0.3921 -0.4363
  124MOL   C26039866  -7.989   9.867   2.867 -0.7737  0.0131 -0.7707
  124MOL   C26139867  -8.106   9.888   2.936  0.0184 -0.0447 -0.2830
  124MOL   C26239868  -8.226   9.820   2.911  0.6449  0.0533 -0.3975
  124MOL   C26339869  -8.360   9.858   2.970  0.6275 -0.8078 -0.3843
  124MOL   C26439870  -8.219   9.705   2.825  0.5354 -0.4688 -0.6579
  124MOL   C26539871  -8.092   9.676   2.765 -0.6120  0.5615 -0.2760
  124MOL   H26639872  -7.877   9.683   2.611 -1.9376 -0.8127  1.5680
  124MOL   H26739873  -7.805   9.831   2.677 -0.5344  0.3266  0.2956
  124MOL   H26839874  -7.908   9.934   2.890  0.6397 -2.3786  1.4872
  124MOL   H26939875  -8.107   9.979   2.994 -1.7394 -1.8361  2.6552
  124MOL   H27039876  -8.399   9.775   3.028 -0.5643  0.0889  0.1188
  124MOL   H27139877  -8.347   9.950   3.028  2.9532 -0.7353 -0.9506
  124MOL   H27239878  -8.302   9.637   2.815  0.8057 -0.6385 -1.8145
  124MOL   H27339879  -8.086   9.593   2.696 -2.0094 -0.4023  0.7311
  124MOL   C27439880  -8.479   9.863   2.863  0.5566 -0.0537  0.0867
  124MOL   C27539881  -8.603   9.908   2.928  0.4481 -0.0803  0.1839
  124MOL   C27639882  -8.722   9.838   2.894 -0.0616 -0.1100  0.3515
  124MOL   C27739883  -8.845   9.883   2.945  0.4200 -0.1306  0.1035
  124MOL   C27839884  -8.858   9.990   3.029 -0.3051 -0.4056 -0.3347
  124MOL   C27939885  -8.996  10.023   3.080  0.1068  0.5091  0.4340
  124MOL   C28039886  -8.739  10.062   3.066  0.3457 -0.3357 -0.1822
  124MOL   C28139887  -8.612  10.018   3.017  0.1416  0.2580 -0.9551
  124MOL   H28239888  -8.462   9.930   2.779 -2.6331  1.2431  0.4091
  124MOL   H28339889  -8.497   9.767   2.814 -0.8388  1.0073 -1.5189
  124MOL   H28439890  -8.740   9.753   2.830 -0.5742  0.3705 -0.1607
  124MOL   H28539891  -8.935   9.833   2.915  0.5630 -0.4211  0.1563
  124MOL   H28639892  -9.041   9.948   3.145 -0.0484 -0.6080 -0.9407
  124MOL   H28739893  -8.973  10.106   3.147 -0.9627  1.1556  0.0143
  124MOL   H28839894  -8.737  10.136   3.145  1.6292 -1.9543  1.3234
  124MOL   H28939895  -8.526  10.074   3.051  1.2072 -1.8869 -0.0003
  124MOL   C29039896  -9.094  10.062   2.965  0.5250 -0.3088  0.8399
  124MOL   C29139897  -9.233  10.092   3.007  0.3815  0.5058 -0.0190
  124MOL   C29239898  -9.263  10.138   3.143  0.1808  0.1064 -0.1144
  124MOL   C29339899  -9.388  10.183   3.183 -0.0824 -0.0834  0.1348
  124MOL   C29439900  -9.486  10.188   3.088 -0.4518  0.0793  0.3898
  124MOL   C29539901  -9.628  10.232   3.124 -0.5336  0.0941  0.1278
  124MOL   C29639902  -9.462  10.154   2.952 -0.3898 -0.1528  1.3347
  124MOL   C29739903  -9.334  10.101   2.913 -0.0878 -0.0745 -0.0057
  124MOL   H29839904  -9.094   9.980   2.894  0.4479  2.1604 -2.1047
  124MOL   H29939905  -9.064  10.150   2.908  2.3379  1.0956  3.8433
  124MOL   H30039906  -9.181  10.158   3.211 -0.7923  2.8674  0.3025
  124MOL   H30139907  -9.396  10.237   3.277 -1.4316  1.9568 -1.0984
  124MOL   H30239908  -9.700  10.162   3.081 -2.3789  2.4989 -0.8004
  124MOL   H30339909  -9.632  10.229   3.233 -0.2028  2.3088  0.2328
  124MOL   H30439910  -9.541  10.160   2.878  0.5022 -1.6921  0.2553
  124MOL   H30539911  -9.318  10.077   2.809  0.2592  1.4003 -0.3046
  124MOL   C30639912  -9.664  10.378   3.089 -0.4260 -0.0220 -0.0328
  124MOL   C30739913  -9.807  10.391   3.119  0.3408  0.1100  0.2106
  124MOL   C30839914  -9.896  10.374   3.014  0.0055  0.2988 -1.2826
  124MOL   C30939915 -10.033  10.384   3.037  0.1157  0.5305  0.1257
  124MOL   C31039916 -10.081  10.409   3.167 -0.2392  0.5371  0.4662
  124MOL   C31139917 -10.227  10.422   3.196 -0.2570  0.1169  0.1863
  124MOL   C31239918  -9.988  10.426   3.267  0.6873 -0.0462  0.1358
  124MOL   C31339919  -9.850  10.415   3.249  0.9111 -0.0619  0.1241
  124MOL   H31439920  -9.636  10.398   2.986 -3.5299 -2.0018 -1.3458
  124MOL   H31539921  -9.596  10.444   3.143 -2.7401  2.4401 -0.0042
  124MOL   H31639922  -9.858  10.345   2.918 -0.2191 -3.0491 -0.4191
  124MOL   H31739923 -10.103  10.372   2.956 -0.4883  1.4519  0.5016
  124MOL   H31839924 -10.275  10.448   3.102  1.1047  0.1498 -0.5062
  124MOL   H31939925 -10.267  10.328   3.234  3.3440 -1.3368  0.6147
  124MOL   H32039926 -10.020  10.455   3.366 -4.4960  0.7520 -1.5781
  124MOL   H32139927  -9.776  10.446   3.322  1.7158  0.7439 -1.0224
  124MOL   H32239928 -10.247  10.506   3.263  2.5054  1.0877 -0.1200
  125MOL     C139929   2.561   3.746   2.715  0.0804  0.2845  0.1150
  125MOL     C239930   2.635   3.627   2.770  0.5739 -0.2099  0.2553
  125MOL     C339931   2.744   3.647   2.862  0.1669 -0.5458  0.8761
  125MOL     C439932   2.833   3.543   2.891  0.3499  0.8388 -0.9302
  125MOL     C539933   2.819   3.420   2.828 -0.5163  0.0226 -0.3802
  125MOL     C639934   2.925   3.314   2.850  0.3507 -0.3707  0.0286
  125MOL     C739935   2.717   3.397   2.733 -0.0786 -0.5330  0.4332
  125MOL     C839936   2.620   3.497   2.710  0.8111 -0.3280 -0.2602
  125MOL     H939937   2.579   3.826   2.788 -1.0449  1.3509 -0.7547
  125MOL    H1039938   2.591   3.775   2.614  0.0315  0.9252  0.2808
  125MOL    H1139939   2.757   3.744   2.908  2.1310 -1.4777  2.3052
  125MOL    H1239940   2.918   3.557   2.957 -0.4044 -0.3790  0.3286
  125MOL    H1339941   2.902   3.232   2.782 -1.8596 -0.7315  1.1595
  125MOL    H1439942   3.021   3.345   2.809  0.3350 -1.6889 -1.0181
  125MOL    H1539943   2.717   3.298   2.691  0.5357 -1.3252  2.2209
  125MOL    H1639944   2.542   3.481   2.637  0.3900  1.3243 -0.2115
  125MOL    H1739945   2.457   3.715   2.708 -0.3156  1.6125  0.0192
  125MOL    C1839946   2.944   3.273   2.998 -0.5410  0.3083  0.0720
  125MOL    C1939947   3.056   3.170   3.002 -0.0104 -0.0768  0.2836
  125MOL    C2039948   3.176   3.195   3.071 -1.1736  0.6080 -0.0610
  125MOL    C2139949   3.286   3.106   3.060 -0.5546  0.1099 -0.0874
  125MOL    C2239950   3.270   2.984   2.994 -0.1555  0.1522  0.4315
  125MOL    C2339951   3.380   2.882   2.996  0.7721  0.1649  0.6781
  125MOL    C2439952   3.148   2.958   2.930  0.6507 -0.3848  0.2921
  125MOL    C2539953   3.040   3.049   2.930 -0.4217  0.0356  0.6976
  125MOL    H2639954   2.975   3.355   3.064  1.9703 -0.7762  0.3228
  125MOL    H2739955   2.857   3.224   3.041  1.2524 -2.7381  0.3626
  125MOL    H2839956   3.187   3.293   3.116  3.1617 -0.8752  2.4306
  125MOL    H2939957   3.386   3.134   3.090 -0.8745  1.2108 -0.0040
  125MOL    H3039958   3.475   2.926   2.968  0.5730 -0.5350 -1.2287
  125MOL    H3139959   3.356   2.815   2.913 -2.7668  0.1041  1.6430
  125MOL    H3239960   3.128   2.862   2.883 -1.0091  0.0351  0.0970
  125MOL    H3339961   2.945   3.025   2.884 -0.1213 -0.6812  0.4505
  125MOL    C3439962   3.384   2.790   3.120 -0.5677  0.4772 -0.7327
  125MOL    C3539963   3.512   2.717   3.131 -0.6917  0.0040  0.9472
  125MOL    C3639964   3.526   2.586   3.070 -0.1086  0.4346 -0.7004
  125MOL    C3739965   3.656   2.529   3.059  0.6265 -0.6811  0.1090
  125MOL    C3839966   3.768   2.593   3.111 -0.3497 -0.1865  0.9376
  125MOL    C3939967   3.910   2.536   3.104 -0.8932  0.2195  0.8364
  125MOL    C4039968   3.748   2.711   3.182  0.1708  0.8036 -0.5771
  125MOL    C4139969   3.625   2.772   3.188  0.3369  0.3172  0.2689
  125MOL    H4239970   3.297   2.724   3.115  0.0676 -0.4715  0.3992
  125MOL    H4339971   3.373   2.840   3.216 -0.7434  0.1084 -0.5596
  125MOL    H4439972   3.438   2.531   3.040 -0.3457  1.8340 -2.6565
  125MOL    H4539973   3.660   2.430   3.017 -0.9440  0.1715 -2.1610
  125MOL    H4639974   3.984   2.599   3.154 -0.9600  1.4454 -0.5635
  125MOL    H4739975   3.908   2.443   3.161 -1.0415  0.2709  0.9155
  125MOL    H4839976   3.825   2.759   3.239  0.2687  1.2640 -1.0936
  125MOL    H4939977   3.607   2.869   3.232 -4.1814 -0.7145  0.8918
  125MOL    C5039978   3.945   2.492   2.959  0.4158 -0.0681  0.3196
  125MOL    C5139979   4.088   2.445   2.957  0.7583 -0.1261  0.5261
  125MOL    C5239980   4.123   2.316   3.004 -0.0597  0.6595  0.6290
  125MOL    C5339981   4.260   2.280   3.016  0.2537  0.4528  0.0352
  125MOL    C5439982   4.362   2.365   2.970 -0.6706 -0.1439 -0.0943
  125MOL    C5539983   4.501   2.330   2.993 -0.2809 -0.1967  0.2404
  125MOL    C5639984   4.330   2.486   2.907  0.1082 -0.4096 -0.0466
  125MOL    C5739985   4.194   2.525   2.910  0.1841  0.0910  0.1219
  125MOL    H5839986   3.924   2.576   2.893 -0.6361 -0.4592  0.1361
  125MOL    H5939987   3.892   2.400   2.932 -2.7486  2.3304 -2.1182
  125MOL    H6039988   4.050   2.248   3.045  0.1838  0.7089  1.1473
  125MOL    H6139989   4.302   2.193   3.065 -0.2331  0.5020  0.5447
  125MOL    H6239990   4.563   2.419   3.000 -0.2110  0.1375 -3.4810
  125MOL    H6339991   4.504   2.279   3.089 -1.1417  0.5698  0.6844
  125MOL    H6439992   4.410   2.550   2.874 -0.7966 -0.8664 -3.2715
  125MOL    H6539993   4.177   2.624   2.869 -1.3946 -0.1912  0.0599
  125MOL    C6639994   4.548   2.232   2.881 -0.1390  0.6140 -0.0164
  125MOL    C6739995   4.684   2.179   2.909  0.6211  0.1156  0.1222
  125MOL    C6839996   4.795   2.256   2.862 -0.4901  0.4325  0.5530
  125MOL    C6939997   4.929   2.215   2.890  1.0887 -0.1359 -0.4211
  125MOL    C7039998   4.948   2.092   2.961 -0.3277  0.8654  0.1946
  125MOL    C7139999   5.091   2.035   2.990  0.6807  0.2251  0.0307
  125MOL    C7240000   4.835   2.013   3.004 -0.0429 -0.2666  0.1154
  125MOL    C7340001   4.704   2.050   2.972 -0.3318  0.5534  0.0337
  125MOL    H7440002   4.550   2.271   2.780 -0.7467  1.5023  0.3039
  125MOL    H7540003   4.474   2.152   2.883 -0.5470  0.9346 -1.6419
  125MOL    H7640004   4.778   2.347   2.806  3.4386  1.2091  0.4771
  125MOL    H7740005   5.012   2.269   2.846  0.9470  1.6346  1.4328
  125MOL    H7840006   5.113   2.019   3.095  0.0703  1.2499  0.3276
  125MOL    H7940007   5.155   2.120   2.967  0.1860  0.7573  0.5715
  125MOL    H8040008   4.844   1.922   3.061 -1.3017 -0.8146 -0.5200
  125MOL    H8140009   4.613   2.000   3.003 -0.4609 -0.0005 -1.2035
  125MOL    C8240010   5.119   1.908   2.905 -0.1344  0.4257  0.6221
  125MOL    C8340011   5.264   1.872   2.903 -0.3967 -0.2048 -0.3125
  125MOL    C8440012   5.313   1.776   3.001 -0.1533  0.6452 -0.8134
  125MOL    C8540013   5.448   1.753   3.010  0.2404 -0.5037 -0.6443
  125MOL    C8640014   5.541   1.807   2.916 -0.1737 -1.2895 -0.3971
  125MOL    C8740015   5.691   1.787   2.924 -0.4186  0.5271  0.0876
  125MOL    C8840016   5.488   1.900   2.824 -0.6958  0.4483  0.2451
  125MOL    C8940017   5.349   1.928   2.813 -0.8082  0.1235  0.2937
  125MOL    H9040018   5.099   1.938   2.802 -1.4172 -2.0921  0.1110
  125MOL    H9140019   5.049   1.826   2.922  0.8056 -0.4345  0.3978
  125MOL    H9240020   5.242   1.726   3.065  0.4671 -0.7984 -1.2200
  125MOL    H9340021   5.485   1.686   3.086  0.6434  1.6248  1.0737
  125MOL    H9440022   5.727   1.766   3.024 -2.6639  0.1988  0.8523
  125MOL    H9540023   5.730   1.884   2.892 -0.4515  0.9016  1.1833
  125MOL    H9640024   5.560   1.949   2.760 -0.1925  0.4818  0.8358
  125MOL    H9740025   5.302   1.979   2.730 -0.0558 -0.3930 -0.4553
  125MOL    C9840026   5.733   1.672   2.830 -0.0397 -0.1818 -0.3391
  125MOL    C9940027   5.883   1.649   2.826 -0.2328  0.5820  0.0152
  125MOL   C10040028   5.946   1.544   2.904  0.1735  0.1492  0.2596
  125MOL   C10140029   6.086   1.533   2.911  0.4587  0.3385 -0.2579
  125MOL   C10240030   6.165   1.610   2.829  0.3314  0.4626 -0.3651
  125MOL   C10340031   6.318   1.597   2.843  0.8136 -0.2161 -0.0259
  125MOL   C10440032   6.110   1.699   2.731  0.7504 -0.3100 -0.5482
  125MOL   C10540033   5.971   1.717   2.735  0.1646  0.1083 -0.0100
  125MOL   H10640034   5.695   1.700   2.732 -0.6919 -0.0453 -0.0539
  125MOL   H10740035   5.688   1.576   2.855  2.6837 -0.8815  2.1128
  125MOL   H10840036   5.881   1.492   2.973 -1.8151  0.9965 -0.9308
  125MOL   H10940037   6.119   1.450   2.973  2.1805  1.1660 -0.0353
  125MOL   H11040038   6.358   1.698   2.833 -0.5475  0.3324 -0.0099
  125MOL   H11140039   6.342   1.567   2.945 -1.4552 -1.4823  0.1558
  125MOL   H11240040   6.173   1.750   2.660 -0.3469  0.6348 -0.8515
  125MOL   H11340041   5.921   1.792   2.676 -2.0457 -1.4506 -0.1819
  125MOL   C11440042   6.383   1.497   2.749  0.5860  0.0142 -0.2903
  125MOL   C11540043   6.532   1.454   2.786 -0.3820  0.1929  0.2522
  125MOL   C11640044   6.633   1.495   2.692  0.1368  0.0943 -0.6055
  125MOL   C11740045   6.761   1.429   2.710  0.0277 -0.4837  0.2262
  125MOL   C11840046   6.793   1.342   2.815 -0.6019 -0.3224 -0.2126
  125MOL   C11940047   6.936   1.296   2.843  0.1619 -0.0105 -0.0803
  125MOL   C12040048   6.694   1.318   2.909 -0.3700 -0.1125  0.2234
  125MOL   C12140049   6.559   1.367   2.892  0.0963 -0.3968 -0.2427
  125MOL   H12240050   6.379   1.532   2.646 -1.2124 -0.8079 -0.5152
  125MOL   H12340051   6.320   1.408   2.758 -0.4562  0.8312  0.6341
  125MOL   H12440052   6.615   1.560   2.607 -1.0870 -1.5080 -1.6158
  125MOL   H12540053   6.829   1.448   2.628  0.0149  2.4103  0.8277
  125MOL   H12640054   6.995   1.387   2.848 -0.9239  0.7951 -1.6558
  125MOL   H12740055   6.936   1.243   2.938 -1.2353 -0.0194 -0.0740
  125MOL   H12840056   6.727   1.252   2.988 -2.2476 -0.0942  1.0517
  125MOL   H12940057   6.481   1.339   2.961  0.8438 -0.7355  0.4635
  125MOL   C13040058   6.996   1.202   2.731 -0.1245 -0.2309 -0.4632
  125MOL   C13140059   7.143   1.163   2.752  0.3763  0.1587 -0.3511
  125MOL   C13240060   7.235   1.194   2.651  0.8519 -0.5758 -0.1991
  125MOL   C13340061   7.370   1.158   2.660  0.3338 -0.2720  0.6375
  125MOL   C13440062   7.412   1.089   2.777 -0.1583  0.3867 -0.1121
  125MOL   C13540063   7.557   1.036   2.781  0.4593 -0.6840 -0.1876
  125MOL   C13640064   7.322   1.055   2.880  0.4472  0.2585 -0.0992
  125MOL   C13740065   7.186   1.093   2.865  0.1081  0.4371 -0.3397
  125MOL   H13840066   6.988   1.257   2.637  0.8280  0.2262 -0.2826
  125MOL   H13940067   6.940   1.110   2.712 -0.7980  0.5342 -2.2703
  125MOL   H14040068   7.198   1.242   2.561 -2.0654  0.8809  1.7100
  125MOL   H14140069   7.436   1.174   2.576 -0.0878 -0.1958  0.3188
  125MOL   H14240070   7.614   1.129   2.781 -0.4739 -0.0754  1.7648
  125MOL   H14340071   7.588   1.000   2.879  1.8339 -0.0623 -0.3744
  125MOL   H14440072   7.356   0.998   2.965  2.0869  1.5249  0.1328
  125MOL   H14540073   7.114   1.067   2.940  2.1281 -0.9677  1.1748
  125MOL   C14640074   7.606   0.946   2.665 -0.4125 -0.4482 -0.1433
  125MOL   C14740075   7.744   0.889   2.696  0.5945  0.0534 -0.5095
  125MOL   C14840076   7.766   0.754   2.725 -0.1097 -0.1941  0.5189
  125MOL   C14940077   7.893   0.703   2.746  0.3431 -0.4631 -0.1509
  125MOL   C15040078   8.002   0.785   2.751  0.2187  0.0413  0.4031
  125MOL   C15140079   8.138   0.722   2.774  0.2668  0.1030 -0.4652
  125MOL   C15240080   7.982   0.917   2.696  0.5146  0.9018  0.1762
  125MOL   C15340081   7.853   0.970   2.670  0.0424  0.4272 -0.0332
  125MOL   H15440082   7.599   1.005   2.573 -0.5459 -0.3969 -0.0994
  125MOL   H15540083   7.538   0.862   2.652 -1.2032  0.1971 -0.1926
  125MOL   H15640084   7.679   0.690   2.728 -2.4734  2.9427  1.3623
  125MOL   H15740085   7.901   0.599   2.774  0.0552 -0.0049  1.7121
  125MOL   H15840086   8.217   0.770   2.716 -0.8930  0.3711 -1.8551
  125MOL   H15940087   8.161   0.727   2.880 -0.1860  1.1614 -0.4068
  125MOL   H16040088   8.062   0.989   2.687  1.5436  0.0128  1.8604
  125MOL   H16140089   7.831   1.072   2.641  0.0011  0.2914 -0.4740
  125MOL   C16240090   8.157   0.572   2.733  0.6769  0.0044  0.2944
  125MOL   C16340091   8.305   0.538   2.761  0.2999 -0.0131 -0.3562
  125MOL   C16440092   8.397   0.551   2.661 -0.0873  0.2992 -0.5590
  125MOL   C16540093   8.530   0.515   2.685 -0.6437 -0.5885 -0.2552
  125MOL   C16640094   8.572   0.472   2.817  0.4234 -0.6037  0.8047
  125MOL   C16740095   8.718   0.427   2.841  0.1861  0.0521  0.1564
  125MOL   C16840096   8.474   0.454   2.914 -1.1030  0.2921 -0.4592
  125MOL   C16940097   8.344   0.485   2.889  0.2397 -0.3822  0.0514
  125MOL   H17040098   8.135   0.563   2.626  0.5022 -0.8204  0.3942
  125MOL   H17140099   8.083   0.508   2.780  1.4186  0.3370  1.9552
  125MOL   H17240100   8.377   0.586   2.561  0.0344  1.1031 -0.3002
  125MOL   H17340101   8.606   0.521   2.609  0.8837 -0.9855  1.2112
  125MOL   H17440102   8.787   0.502   2.802  0.5095 -0.3360 -0.0298
  125MOL   H17540103   8.737   0.428   2.948  1.8382 -0.1889 -0.1119
  125MOL   H17640104   8.497   0.412   3.011 -0.9726 -0.3578 -0.7697
  125MOL   H17740105   8.277   0.454   2.967 -1.5726 -0.2273 -1.4012
  125MOL   C17840106   8.744   0.284   2.780 -0.2991 -0.0103  0.3312
  125MOL   C17940107   8.896   0.270   2.779  0.2825 -0.6170  0.4402
  125MOL   C18040108   8.984   0.326   2.678  0.0133  0.1273  0.0262
  125MOL   C18140109   9.122   0.324   2.692 -0.8019 -0.0737 -0.1115
  125MOL   C18240110   9.177   0.265   2.807 -0.3092 -0.3376 -0.8566
  125MOL   C18340111   9.327   0.253   2.825 -0.9921  0.1193 -0.6502
  125MOL   C18440112   9.089   0.225   2.910  0.5364  0.5835  0.3729
  125MOL   C18540113   8.952   0.223   2.892  0.2381 -0.3785 -0.6724
  125MOL   H18640114   8.716   0.290   2.674  2.1749 -0.6797 -0.3882
  125MOL   H18740115   8.685   0.206   2.827  0.7412 -2.7796 -2.7153
  125MOL   H18840116   8.934   0.382   2.600 -2.7229 -2.2392 -0.0195
  125MOL   H18940117   9.188   0.365   2.617  1.6184 -3.0517  0.2545
  125MOL   H19040118   9.361   0.345   2.777 -1.4618  1.0492  0.7381
  125MOL   H19140119   9.345   0.243   2.932 -1.7284 -1.0823 -0.6340
  125MOL   H19240120   9.133   0.175   2.996 -0.7788 -0.2510  0.5737
  125MOL   H19340121   8.883   0.192   2.969  0.1366 -1.1629 -1.0650
  125MOL   C19440122   9.380   0.132   2.748 -0.4332  0.3882  0.1216
  125MOL   C19540123   9.530   0.128   2.760  0.6797 -0.9418  0.4042
  125MOL   C19640124   9.608   0.172   2.652 -0.4561 -0.4119 -0.4009
  125MOL   C19740125   9.749   0.183   2.655  0.2293 -0.2487  0.4634
  125MOL   C19840126   9.814   0.135   2.773  0.4838  0.0163  0.2064
  125MOL   C19940127   9.965   0.135   2.785  0.2268  0.2221  0.1976
  125MOL   C20040128   9.743   0.079   2.875 -0.1119  0.2288  0.4149
  125MOL   C20140129   9.600   0.075   2.871 -0.3891  0.3482  0.2213
  125MOL   H20240130   9.347   0.120   2.645 -0.3342 -4.7413  0.5775
  125MOL   H20340131   9.334   0.042   2.788 -0.0074 -0.5315 -1.4511
  125MOL   H20440132   9.555   0.218   2.569 -0.5765  0.6658  0.2670
  125MOL   H20540133   9.797   0.235   2.574 -1.7669  0.6469 -0.1877
  125MOL   H20640134  10.003   0.176   2.691  1.7633  0.3581  0.8696
  125MOL   H20740135  10.001   0.198   2.866  0.1718 -0.3216  0.6482
  125MOL   H20840136   9.788   0.040   2.965 -1.4257  1.0071  1.4297
  125MOL   H20940137   9.545   0.031   2.953  2.0251 -1.7399  0.7849
  125MOL   C21040138  10.019  -0.004   2.782  0.7937 -0.7529  0.2519
  125MOL   C21140139  10.175  -0.003   2.776 -0.0708  0.3801 -0.0500
  125MOL   C21240140  10.260  -0.010   2.893  0.4804 -0.6567  0.4207
  125MOL   C21340141  10.400  -0.011   2.876  0.4307  0.7940 -0.1270
  125MOL   C21440142  10.449  -0.014   2.747 -0.1408 -0.2337  0.1084
  125MOL   C21540143  10.601  -0.032   2.740 -0.4272 -0.2253  0.2536
  125MOL   C21640144  10.365  -0.026   2.631 -0.0752  0.1182 -0.1275
  125MOL   C21740145  10.227  -0.019   2.646  0.0836 -0.2576 -0.9640
  125MOL   H21840146   9.974  -0.073   2.711 -0.8309 -0.1031  0.6422
  125MOL   H21940147   9.993  -0.045   2.880  1.9248 -0.7245  0.5693
  125MOL   H22040148  10.229  -0.013   2.996  0.7378  1.3213  0.5817
  125MOL   H22140149  10.465  -0.010   2.963  1.5292  0.9545 -0.9400
  125MOL   H22240150  10.629   0.010   2.644  0.8017 -2.3602 -0.3765
  125MOL   H22340151  10.656   0.032   2.809  0.2953 -0.3676 -0.1911
  125MOL   H22440152  10.410  -0.040   2.534 -0.1750  0.7417 -0.2680
  125MOL   H22540153  10.160  -0.030   2.562  0.8056  0.6356 -1.6640
  125MOL   C22640154  10.644  -0.181   2.758  0.5800  0.6132 -0.1028
  125MOL   C22740155  10.799  -0.192   2.747 -0.4644  0.2227 -0.5804
  125MOL   C22840156  10.867  -0.209   2.625 -0.2482  0.5770  0.1446
  125MOL   C22940157  11.010  -0.211   2.621 -0.4307 -0.6811  0.3984
  125MOL   C23040158  11.088  -0.200   2.739 -1.1082  0.8095  0.0754
  125MOL   C23140159  11.242  -0.218   2.740  0.3978  0.0098 -0.0462
  125MOL   C23240160  11.017  -0.184   2.859  0.3456  0.4871 -0.9318
  125MOL   C23340161  10.877  -0.182   2.864 -0.1426  1.0954 -0.1284
  125MOL   H23440162  10.603  -0.241   2.676  1.0192  0.5289 -0.2607
  125MOL   H23540163  10.600  -0.226   2.847 -3.6117  0.7257 -2.0194
  125MOL   H23640164  10.812  -0.222   2.533 -0.4918 -1.6257  0.5713
  125MOL   H23740165  11.047  -0.214   2.520 -0.4692 -0.0601  0.3666
  125MOL   H23840166  11.286  -0.174   2.650  3.6991 -1.5159  0.7473
  125MOL   H23940167  11.282  -0.146   2.812  0.8501 -1.2768  0.9933
  125MOL   H24040168  11.055  -0.182   2.960 -0.3111  0.4757 -0.6810
  125MOL   H24140169  10.835  -0.163   2.961 -1.3749  1.1345 -0.6611
  125MOL   C24240170  11.293  -0.362   2.744  0.4620 -0.1264  0.0299
  125MOL   C24340171  11.442  -0.372   2.753  0.2973 -0.3699 -0.0811
  125MOL   C24440172  11.514  -0.425   2.642 -0.6573 -0.6201 -0.0388
  125MOL   C24540173  11.653  -0.429   2.643  0.1951  0.5518 -0.0847
  125MOL   C24640174  11.718  -0.406   2.769 -0.5519  0.7497 -0.0404
  125MOL   C24740175  11.868  -0.425   2.770 -0.1096  0.0902  0.3613
  125MOL   C24840176  11.647  -0.365   2.884  0.0855  1.1341 -0.2530
  125MOL   C24940177  11.506  -0.340   2.876 -0.3649  0.3072 -0.0071
  125MOL   H25040178  11.251  -0.430   2.818 -0.2852 -1.6217 -1.7121
  125MOL   H25140179  11.257  -0.416   2.657 -1.4214 -6.8134  4.5998
  125MOL   H25240180  11.460  -0.434   2.548 -0.4001 -1.0461 -0.1480
  125MOL   H25340181  11.699  -0.454   2.548 -0.5528 -0.0957 -0.2775
  125MOL   H25440182  11.908  -0.405   2.671 -2.2253 -0.3189 -0.6168
  125MOL   H25540183  11.911  -0.345   2.829 -2.3000  0.7608  1.1134
  125MOL   H25640184  11.697  -0.342   2.976  1.1356 -0.9729 -0.2690
  125MOL   H25740185  11.453  -0.307   2.964 -1.2867 -1.0009 -0.0593
  125MOL   C25840186  11.912  -0.563   2.808  0.5905 -0.0329 -0.1269
  125MOL   C25940187  12.063  -0.569   2.781  0.0934  0.3192  0.3458
  125MOL   C26040188  12.152  -0.539   2.883 -0.5597  0.1700  0.3918
  125MOL   C26140189  12.287  -0.561   2.861  0.0962 -0.4158 -0.2571
  125MOL   C26240190  12.330  -0.618   2.736 -0.2363 -0.2994 -0.3069
  125MOL   C26340191  12.474  -0.654   2.709  0.0842  0.4463 -0.2377
  125MOL   C26440192  12.237  -0.630   2.626 -0.0472  1.0547  0.0302
  125MOL   C26540193  12.099  -0.608   2.648  0.5313  0.3903 -0.1714
  125MOL   H26640194  11.860  -0.643   2.755 -0.8870 -0.7567  2.3096
  125MOL   H26740195  11.894  -0.587   2.913  0.7138  0.2684 -0.0376
  125MOL   H26840196  12.119  -0.516   2.984 -0.6608 -1.7193  0.8186
  125MOL   H26940197  12.360  -0.543   2.938  1.1930  0.4531 -1.4840
  125MOL   H27040198  12.487  -0.698   2.610  0.7091  1.1265 -0.4627
  125MOL   H27140199  12.540  -0.568   2.726 -0.0060  0.5774 -0.5518
  125MOL   H27240200  12.271  -0.654   2.526  1.3686 -0.2970  0.8034
  125MOL   H27340201  12.029  -0.617   2.566  1.0312  2.6084 -0.8870
  125MOL   C27440202  12.517  -0.779   2.796 -0.3277 -0.3916  0.7245
  125MOL   C27540203  12.663  -0.810   2.777 -0.5199  1.1415 -0.2228
  125MOL   C27640204  12.741  -0.834   2.893 -0.0198  0.5865 -0.4339
  125MOL   C27740205  12.879  -0.865   2.873  0.3055 -0.2104  0.7353
  125MOL   C27840206  12.935  -0.868   2.742 -0.6094 -0.3597  0.7848
  125MOL   C27940207  13.081  -0.907   2.736  0.2254  0.0209 -0.5798
  125MOL   C28040208  12.863  -0.843   2.634  0.6524  0.4632  0.1288
  125MOL   C28140209  12.729  -0.803   2.650 -0.3761  0.4101  0.0381
  125MOL   H28240210  12.489  -0.767   2.901 -0.8406  0.0223  0.5423
  125MOL   H28340211  12.457  -0.861   2.756 -2.2996  1.2654  0.1928
  125MOL   H28440212  12.694  -0.832   2.990 -1.0103  1.4212 -0.9219
  125MOL   H28540213  12.950  -0.876   2.954  3.5020 -1.5225 -2.0947
  125MOL   H28640214  13.120  -0.887   2.636  1.7980 -0.4447 -0.0785
  125MOL   H28740215  13.144  -0.843   2.798  0.7283 -0.3967 -0.6496
  125MOL   H28840216  12.906  -0.832   2.536  1.9284  0.2146  0.6419
  125MOL   H28940217  12.673  -0.781   2.560 -0.3660  2.3250  0.4674
  125MOL   C29040218  13.121  -1.055   2.768 -0.2849  0.2364  0.3595
  125MOL   C29140219  13.270  -1.086   2.748  0.2116 -0.0489 -0.8515
  125MOL   C29240220  13.347  -1.082   2.860 -0.0727 -0.7797 -0.7960
  125MOL   C29340221  13.481  -1.113   2.846 -0.4582 -0.4313 -0.9668
  125MOL   C29440222  13.540  -1.146   2.725  0.4513  0.5484  0.1780
  125MOL   C29540223  13.685  -1.176   2.715  0.2530  0.4391  1.0761
  125MOL   C29640224  13.460  -1.144   2.608  0.0527 -0.0097 -0.0897
  125MOL   C29740225  13.322  -1.121   2.622 -0.9863  0.2805  0.4276
  125MOL   H29840226  13.055  -1.121   2.712 -3.1591  3.0677  0.2732
  125MOL   H29940227  13.100  -1.082   2.871 -0.6622 -2.5534 -0.3927
  125MOL   H30040228  13.296  -1.056   2.952 -1.2130  0.6273 -1.7994
  125MOL   H30140229  13.536  -1.116   2.939  0.8098  2.0700 -1.5965
  125MOL   H30240230  13.714  -1.116   2.628  0.1064  0.2382  0.8890
  125MOL   H30340231  13.733  -1.142   2.806  0.1270  1.5877  0.7216
  125MOL   H30440232  13.493  -1.152   2.505 -2.5223  1.3041 -1.0732
  125MOL   H30540233  13.251  -1.124   2.540 -2.3097 -1.3516  1.6186
  125MOL   C30640234  13.699  -1.334   2.705 -0.2437 -0.1719 -0.4302
  125MOL   C30740235  13.845  -1.370   2.706  0.9807 -0.1614 -0.2956
  125MOL   C30840236  13.915  -1.412   2.591  0.1815  0.4175  0.3467
  125MOL   C30940237  14.052  -1.444   2.603 -0.0674  0.5858 -0.1048
  125MOL   C31040238  14.130  -1.407   2.716  0.4564  0.4819  0.0221
  125MOL   C31140239  14.268  -1.444   2.726  0.2740 -0.0608  0.5484
  125MOL   C31240240  14.063  -1.360   2.828  0.3784  0.3171 -0.2060
  125MOL   C31340241  13.921  -1.340   2.823 -0.5725  0.0938 -0.5100
  125MOL   H31440242  13.645  -1.374   2.619 -1.7063 -2.2805  1.3754
  125MOL   H31540243  13.661  -1.388   2.792 -1.6820 -1.0609 -1.5858
  125MOL   H31640244  13.873  -1.430   2.494  4.0487  0.5854 -1.4717
  125MOL   H31740245  14.099  -1.487   2.515 -1.2224 -1.2976  0.1820
  125MOL   H31840246  14.280  -1.512   2.642 -2.3068 -0.4384  0.4255
  125MOL   H31940247  14.343  -1.366   2.715  1.4254 -1.4903 -2.1882
  125MOL   H32040248  14.109  -1.330   2.921 -0.4473  0.9803  0.0046
  125MOL   H32140249  13.873  -1.312   2.916  0.4866 -1.8047  0.6600
  125MOL   H32240250  14.288  -1.494   2.821 -0.3119  0.2774  0.8525
  126MOL     C140251   2.545   5.724   0.582 -0.4134 -0.1032  0.4057
  126MOL     C240252   2.682   5.660   0.540  0.0409  0.2454  0.0618
  126MOL     C340253   2.738   5.561   0.623 -0.2682  0.1931 -0.1786
  126MOL     C440254   2.871   5.518   0.598  0.3152  0.1946 -0.3982
  126MOL     C540255   2.946   5.570   0.492 -0.6778 -0.3327  0.1394
  126MOL     C640256   3.087   5.521   0.458 -0.8370 -0.5100  0.0767
  126MOL     C740257   2.886   5.658   0.403  0.5876 -0.0285 -0.1308
  126MOL     C840258   2.752   5.707   0.429 -0.5076  0.2213 -0.3774
  126MOL     H940259   2.561   5.829   0.606 -1.7587  0.5452 -1.4083
  126MOL    H1040260   2.469   5.719   0.504 -0.6820 -0.0617  0.6597
  126MOL    H1140261   2.678   5.530   0.707  0.2659 -0.1455  0.0857
  126MOL    H1240262   2.913   5.444   0.664  0.7126  0.9813  0.2474
  126MOL    H1340263   3.140   5.594   0.395  1.0297 -1.2628  0.7415
  126MOL    H1440264   3.135   5.498   0.553 -1.2324  2.0243  0.9218
  126MOL    H1540265   2.927   5.672   0.304 -0.1380 -0.5130 -0.5019
  126MOL    H1640266   2.712   5.760   0.344  0.1672  0.1505 -0.7411
  126MOL    H1740267   2.504   5.681   0.674  0.0084  1.4505  1.3354
  126MOL    C1840268   3.081   5.397   0.381 -0.1169  0.0685  0.1796
  126MOL    C1940269   3.218   5.351   0.327  0.6566  0.5334 -0.4632
  126MOL    C2040270   3.258   5.224   0.373  0.5037 -0.1718 -0.2517
  126MOL    C2140271   3.379   5.170   0.324 -0.3432  0.1654  0.1332
  126MOL    C2240272   3.458   5.235   0.228  0.5734 -0.2023 -0.3184
  126MOL    C2340273   3.584   5.175   0.157 -0.0692  0.6906 -0.0892
  126MOL    C2440274   3.414   5.366   0.192  0.1862  0.2036  0.5137
  126MOL    C2540275   3.300   5.425   0.237  0.8409  0.2300  0.7707
  126MOL    H2640276   3.033   5.319   0.440  0.0106 -0.7072 -0.7303
  126MOL    H2740277   3.010   5.396   0.297  0.9750 -2.7453 -0.7762
  126MOL    H2840278   3.205   5.163   0.445  1.7660  0.1863  1.0208
  126MOL    H2940279   3.403   5.074   0.366  0.8741  1.0556  1.5226
  126MOL    H3040280   3.593   5.193   0.050 -0.1988 -1.7291 -0.5339
  126MOL    H3140281   3.576   5.068   0.175 -3.6583  0.7229 -1.1864
  126MOL    H3240282   3.472   5.421   0.119  0.1082  2.3420  2.0151
  126MOL    H3340283   3.262   5.520   0.205  0.7954 -0.3007 -0.7905
  126MOL    C3440284   3.711   5.224   0.225  0.0095  0.0388 -0.3484
  126MOL    C3540285   3.841   5.189   0.156  0.2601  0.5871  0.6700
  126MOL    C3640286   3.926   5.098   0.219 -0.0677 -0.1482  0.2660
  126MOL    C3740287   4.044   5.063   0.160  0.6956  0.1948  0.1798
  126MOL    C3840288   4.088   5.128   0.041 -0.6614  0.6405  0.0845
  126MOL    C3940289   4.223   5.104  -0.019  0.0675  0.5411 -0.2832
  126MOL    C4040290   4.007   5.225  -0.017 -0.4147  0.5030  0.7480
  126MOL    C4140291   3.876   5.251   0.031  0.5392  0.5327 -0.7759
  126MOL    H4240292   3.707   5.198   0.331 -0.6529  3.9672  0.6829
  126MOL    H4340293   3.719   5.333   0.224  1.3684 -0.0548 -1.3743
  126MOL    H4440294   3.890   5.072   0.318 -0.1858 -0.5915  0.1099
  126MOL    H4540295   4.110   4.996   0.213  0.0924 -0.2726  0.3408
  126MOL    H4640296   4.274   5.199  -0.037  0.0339  0.5421 -0.3800
  126MOL    H4740297   4.288   5.048   0.048 -0.8246 -0.3599 -0.1663
  126MOL    H4840298   4.044   5.284  -0.100 -1.1066  0.4521  0.4027
  126MOL    H4940299   3.807   5.322  -0.011 -2.3971 -0.8847  1.4553
  126MOL    C5040300   4.211   5.022  -0.149 -0.6977  0.6957 -0.8507
  126MOL    C5140301   4.342   4.960  -0.188 -0.4252  0.1051  0.5564
  126MOL    C5240302   4.349   4.864  -0.279 -0.0050  0.2605  0.4232
  126MOL    C5340303   4.469   4.804  -0.320 -0.1246  0.1018 -0.4089
  126MOL    C5440304   4.592   4.847  -0.265 -0.4922 -0.2878 -0.1307
  126MOL    C5540305   4.728   4.798  -0.318 -0.0947  0.7941 -0.0069
  126MOL    C5640306   4.590   4.953  -0.168  0.3110 -0.2807  0.4181
  126MOL    C5740307   4.467   5.006  -0.131 -0.1987  0.1875  0.1563
  126MOL    H5840308   4.170   5.090  -0.224 -0.7769  0.3176 -1.1549
  126MOL    H5940309   4.140   4.940  -0.134  0.9666 -0.3546  1.5272
  126MOL    H6040310   4.258   4.829  -0.325  0.4928 -0.7624  0.2054
  126MOL    H6140311   4.474   4.719  -0.387  0.2601 -0.8860  0.8527
  126MOL    H6240312   4.764   4.871  -0.391  2.1055  0.5944  0.8459
  126MOL    H6340313   4.804   4.807  -0.241 -1.0048 -0.6258  1.0601
  126MOL    H6440314   4.684   4.983  -0.125 -0.4113  0.1401  1.7283
  126MOL    H6540315   4.463   5.085  -0.057 -0.3918 -0.1351  0.4896
  126MOL    C6640316   4.728   4.657  -0.395 -0.7216  0.3615 -0.7331
  126MOL    C6740317   4.863   4.640  -0.469  0.3378 -0.5191 -0.6237
  126MOL    C6840318   4.874   4.683  -0.600 -0.4475  0.3909  0.5787
  126MOL    C6940319   4.990   4.659  -0.676  0.0693  0.7622 -0.3775
  126MOL    C7040320   5.106   4.610  -0.608 -0.3253 -0.1757  0.1346
  126MOL    C7140321   5.235   4.594  -0.679  0.2817  0.6967  0.5405
  126MOL    C7240322   5.096   4.569  -0.470  0.0749  0.1619  0.1558
  126MOL    C7340323   4.973   4.581  -0.404 -0.2028 -1.1368 -0.0573
  126MOL    H7440324   4.654   4.646  -0.475  1.4701 -3.0988 -2.4213
  126MOL    H7540325   4.698   4.571  -0.335  0.5968  0.9885  0.8627
  126MOL    H7640326   4.785   4.723  -0.647 -2.5652 -1.8794  2.5451
  126MOL    H7740327   4.993   4.669  -0.784  3.0408 -0.3902 -0.4428
  126MOL    H7840328   5.311   4.628  -0.610  1.0887  1.5141 -0.7304
  126MOL    H7940329   5.229   4.670  -0.757 -1.8393  0.5203  0.4905
  126MOL    H8040330   5.177   4.522  -0.415 -0.5950 -1.7996 -0.5014
  126MOL    H8140331   4.958   4.558  -0.300 -0.2380  2.9274  0.8941
  126MOL    C8240332   5.243   4.448  -0.737  0.2137  0.4088  0.1307
  126MOL    C8340333   5.370   4.435  -0.822 -0.0648  0.8478  0.3614
  126MOL    C8440334   5.364   4.402  -0.956 -0.0089 -0.2712  0.1018
  126MOL    C8540335   5.479   4.390  -1.038  0.4793  0.2054 -0.6057
  126MOL    C8640336   5.606   4.411  -0.978 -0.7665  0.4618  0.5405
  126MOL    C8740337   5.730   4.396  -1.054 -0.4158 -0.2669  0.5659
  126MOL    C8840338   5.616   4.431  -0.841 -0.0781 -0.0197 -0.4967
  126MOL    C8940339   5.500   4.443  -0.768 -0.9470 -0.1697 -0.8118
  126MOL    H9040340   5.151   4.418  -0.786  1.3760 -2.3231 -0.4450
  126MOL    H9140341   5.259   4.377  -0.656  1.5408  2.6401  1.8906
  126MOL    H9240342   5.271   4.369  -1.000  0.1874  1.1958 -1.4234
  126MOL    H9340343   5.464   4.362  -1.142 -1.5847 -3.3713  0.5998
  126MOL    H9440344   5.801   4.334  -1.000  0.4063  0.4472  0.3154
  126MOL    H9540345   5.774   4.494  -1.075 -1.1834 -0.2593 -1.1352
  126MOL    H9640346   5.713   4.429  -0.794 -0.3762  0.9219  0.1943
  126MOL    H9740347   5.503   4.449  -0.660 -0.0883  0.4719 -0.8589
  126MOL    C9840348   5.731   4.312  -1.188 -0.7377 -0.0495 -0.4139
  126MOL    C9940349   5.872   4.289  -1.241  0.2777 -0.1724  0.2604
  126MOL   C10040350   5.954   4.399  -1.264  0.2141 -0.2983  0.5730
  126MOL   C10140351   6.083   4.374  -1.300 -0.1593  0.5153  0.2444
  126MOL   C10240352   6.132   4.250  -1.325  0.3082 -0.7263 -0.2636
  126MOL   C10340353   6.274   4.234  -1.370 -0.2697  0.5123  0.7997
  126MOL   C10440354   6.047   4.138  -1.310 -0.2371 -0.1224  0.1544
  126MOL   C10540355   5.918   4.157  -1.265 -0.2084  0.0227  0.0660
  126MOL   H10640356   5.666   4.352  -1.266 -1.3927  1.8455  1.0771
  126MOL   H10740357   5.675   4.224  -1.157  2.2608 -1.7737  0.3081
  126MOL   H10840358   5.915   4.497  -1.242  1.2977  0.0788  0.8413
  126MOL   H10940359   6.152   4.457  -1.291 -1.7060  1.8128  0.4542
  126MOL   H11040360   6.272   4.178  -1.464  0.2366  0.0207  1.0738
  126MOL   H11140361   6.316   4.333  -1.384 -0.9843  0.5830 -0.9965
  126MOL   H11240362   6.087   4.042  -1.339  0.1030 -0.5278  1.8659
  126MOL   H11340363   5.852   4.074  -1.246 -1.9101  0.7580 -2.4271
  126MOL   C11440364   6.359   4.148  -1.277 -0.4227 -0.3156 -0.2265
  126MOL   C11540365   6.497   4.130  -1.328  0.5699 -0.0791  0.1187
  126MOL   C11640366   6.524   4.025  -1.412  0.6655 -0.4686 -0.3804
  126MOL   C11740367   6.653   4.014  -1.471  0.5569 -0.6455 -0.2153
  126MOL   C11840368   6.751   4.111  -1.458 -0.2814 -0.7486 -0.2607
  126MOL   C11940369   6.889   4.091  -1.517 -0.3913  1.3610  0.1395
  126MOL   C12040370   6.726   4.220  -1.373  0.6996 -0.3339  0.5906
  126MOL   C12140371   6.598   4.228  -1.309 -0.1232 -0.2143 -0.8377
  126MOL   H12240372   6.321   4.046  -1.275 -0.1180 -0.4224  1.1236
  126MOL   H12340373   6.359   4.183  -1.173  2.3599  0.3452 -0.4103
  126MOL   H12440374   6.447   3.958  -1.449 -0.2345  0.2166  0.2263
  126MOL   H12540375   6.658   3.936  -1.546 -2.3941  0.5872 -1.8056
  126MOL   H12640376   6.878   4.061  -1.621  3.4562 -1.0878  0.3324
  126MOL   H12740377   6.938   4.187  -1.533 -1.7042  1.9134 -0.6427
  126MOL   H12840378   6.796   4.301  -1.360 -1.6692  1.6614  1.3672
  126MOL   H12940379   6.582   4.311  -1.242  0.3604 -0.0570 -0.9177
  126MOL   C13040380   6.983   3.983  -1.455 -0.1536 -0.1334  0.0728
  126MOL   C13140381   7.109   3.963  -1.543 -0.1908  0.3653 -0.8064
  126MOL   C13240382   7.141   3.839  -1.609  0.4353 -0.5615 -0.3699
  126MOL   C13340383   7.262   3.814  -1.669 -0.0265 -1.1491 -1.0116
  126MOL   C13440384   7.361   3.918  -1.663 -0.2728  0.1356  0.1115
  126MOL   C13540385   7.499   3.902  -1.722 -0.4912  0.2537 -1.0048
  126MOL   C13640386   7.330   4.041  -1.604  0.3369  0.1055 -0.6878
  126MOL   C13740387   7.205   4.063  -1.540 -0.0862  0.4174  0.1624
  126MOL   H13840388   6.925   3.893  -1.433 -1.9611  0.5495 -1.6888
  126MOL   H13940389   7.018   4.026  -1.362  1.6184 -0.9804 -0.1926
  126MOL   H14040390   7.064   3.763  -1.607  0.3477 -0.4485  1.0310
  126MOL   H14140391   7.283   3.723  -1.723  0.3591 -2.4228  1.2087
  126MOL   H14240392   7.491   3.846  -1.815 -0.3378  0.0448 -0.8933
  126MOL   H14340393   7.531   4.003  -1.748 -0.8592  1.2839  2.1964
  126MOL   H14440394   7.401   4.122  -1.597  1.6055 -1.1038  0.7600
  126MOL   H14540395   7.191   4.159  -1.493  1.4986  0.0812  1.3810
  126MOL   C14640396   7.588   3.828  -1.623  0.1318  0.3475 -0.0237
  126MOL   C14740397   7.726   3.813  -1.685 -0.1517  0.2190 -0.1023
  126MOL   C14840398   7.820   3.913  -1.677 -0.0571  0.1199 -0.2215
  126MOL   C14940399   7.946   3.897  -1.732  1.1180  0.2456 -0.5230
  126MOL   C15040400   7.988   3.778  -1.798  0.3089  0.1980  0.3158
  126MOL   C15140401   8.125   3.757  -1.842  0.1214 -0.0028 -0.5368
  126MOL   C15240402   7.889   3.681  -1.817  0.0129  1.0215  0.1294
  126MOL   C15340403   7.757   3.696  -1.755  0.1900 -0.2496  0.0304
  126MOL   H15440404   7.551   3.734  -1.582  1.4740  0.5255  1.6968
  126MOL   H15540405   7.587   3.909  -1.550 -1.8230  0.1775  0.1595
  126MOL   H15640406   7.803   4.009  -1.630 -1.8819 -0.8193  1.1032
  126MOL   H15740407   8.020   3.974  -1.718  2.2084 -0.6724 -1.1411
  126MOL   H15840408   8.112   3.719  -1.943 -0.5980 -2.1379  0.3433
  126MOL   H15940409   8.186   3.848  -1.848  1.6999 -1.1609 -2.3414
  126MOL   H16040410   7.920   3.592  -1.871 -0.5383  1.0788 -0.2868
  126MOL   H16140411   7.697   3.606  -1.755  0.7252 -0.6426  1.5872
  126MOL   C16240412   8.195   3.659  -1.755 -0.1532 -0.3679 -0.3479
  126MOL   C16340413   8.332   3.637  -1.813  0.2112 -0.7180 -0.1227
  126MOL   C16440414   8.439   3.728  -1.803  0.1482 -0.0579  0.0476
  126MOL   C16540415   8.564   3.702  -1.857 -0.1602  0.5953  1.0952
  126MOL   C16640416   8.593   3.581  -1.934  0.1854  0.7941 -0.0820
  126MOL   C16740417   8.738   3.551  -1.983  0.0459 -0.5794 -0.4221
  126MOL   C16840418   8.485   3.489  -1.948 -0.5109  0.2789 -0.4779
  126MOL   C16940419   8.357   3.520  -1.884  0.1134 -0.6200  0.3190
  126MOL   H17040420   8.140   3.565  -1.766 -2.4678  0.7366  1.3450
  126MOL   H17140421   8.208   3.685  -1.650  0.4228 -2.4267  0.1227
  126MOL   H17240422   8.428   3.817  -1.742  1.8626 -0.3497  0.8393
  126MOL   H17340423   8.653   3.760  -1.837  1.8913 -1.9194 -0.4434
  126MOL   H17440424   8.737   3.466  -2.051 -1.4742  0.2458 -1.4769
  126MOL   H17540425   8.765   3.637  -2.044 -1.2468  1.6579  2.0577
  126MOL   H17640426   8.503   3.401  -2.008  1.5268  0.3130  0.0514
  126MOL   H17740427   8.280   3.445  -1.890 -0.5954 -0.0089  1.5521
  126MOL   C17840428   8.829   3.513  -1.871 -0.0824 -0.1415  0.6893
  126MOL   C17940429   8.974   3.481  -1.920 -0.0829  0.1263  0.4109
  126MOL   C18040430   9.074   3.582  -1.907 -0.6449  0.2022 -0.4759
  126MOL   C18140431   9.206   3.561  -1.952  0.4640  0.1453 -0.4137
  126MOL   C18240432   9.230   3.436  -2.014  0.1295 -0.6634 -0.4112
  126MOL   C18340433   9.365   3.417  -2.070  0.4989  0.9227  0.6298
  126MOL   C18440434   9.136   3.332  -2.012 -0.0397 -0.6505  0.2052
  126MOL   C18540435   9.006   3.352  -1.963  0.5046  0.6088 -0.2504
  126MOL   H18640436   8.779   3.426  -1.829  1.2923 -0.4965  1.6270
  126MOL   H18740437   8.826   3.583  -1.788  1.1462  0.7194  0.0220
  126MOL   H18840438   9.054   3.684  -1.877  1.3171 -0.2004  2.3109
  126MOL   H18940439   9.284   3.634  -1.938  1.2763 -0.5372 -1.2493
  126MOL   H19040440   9.357   3.350  -2.156 -0.7757 -0.8822  2.1132
  126MOL   H19140441   9.410   3.515  -2.086  1.0644  0.8763  1.9195
  126MOL   H19240442   9.153   3.232  -2.050 -0.8384 -0.5350 -0.4844
  126MOL   H19340443   8.929   3.276  -1.963 -0.2047  1.3169 -1.0645
  126MOL   C19440444   9.453   3.347  -1.970 -0.3967 -0.3134 -0.5699
  126MOL   C19540445   9.583   3.319  -2.032  0.4772  0.2565  0.7463
  126MOL   C19640446   9.690   3.405  -2.002  0.0229 -0.4661 -0.0137
  126MOL   C19740447   9.819   3.379  -2.060 -0.4733 -0.1504  0.7331
  126MOL   C19840448   9.836   3.264  -2.145 -0.1945 -0.5369  0.3484
  126MOL   C19940449   9.964   3.238  -2.220  0.1877  0.0417 -0.1076
  126MOL   C20040450   9.731   3.170  -2.153 -0.4676 -0.1223 -0.4576
  126MOL   C20140451   9.602   3.204  -2.107 -0.1136 -0.3019  0.1926
  126MOL   H20240452   9.407   3.254  -1.937 -0.9611  0.2695  0.3141
  126MOL   H20340453   9.463   3.402  -1.877 -1.7135  1.5273 -1.4886
  126MOL   H20440454   9.677   3.493  -1.940  1.9615  0.4543 -0.8865
  126MOL   H20540455   9.898   3.452  -2.052  0.7126 -1.0499 -2.2808
  126MOL   H20640456  10.044   3.256  -2.149  0.3554 -3.5479  0.6857
  126MOL   H20740457   9.962   3.133  -2.249  1.3899  0.4529 -1.7732
  126MOL   H20840458   9.747   3.074  -2.201 -0.0021  0.9919 -2.5532
  126MOL   H20940459   9.523   3.131  -2.117  0.7916 -1.4069  0.9319
  126MOL   C21040460   9.981   3.313  -2.358  0.1675 -0.2191 -0.0985
  126MOL   C21140461  10.093   3.262  -2.445  0.9025 -0.1157 -0.0194
  126MOL   C21240462  10.079   3.136  -2.503 -0.0544  0.2848 -0.4838
  126MOL   C21340463  10.168   3.087  -2.598 -0.2648 -0.2486 -0.6237
  126MOL   C21440464  10.273   3.168  -2.637 -0.3573  0.5630  0.0344
  126MOL   C21540465  10.375   3.127  -2.745  0.2085  0.1172 -0.1028
  126MOL   C21640466  10.297   3.297  -2.578 -0.0466 -0.1488  0.3029
  126MOL   C21740467  10.207   3.349  -2.483  0.4836  0.8317  0.0844
  126MOL   H21840468   9.983   3.422  -2.356 -1.3356 -0.0834 -3.0992
  126MOL   H21940469   9.891   3.302  -2.419  0.5051 -1.8116 -0.3211
  126MOL   H22040470   9.985   3.082  -2.491 -1.3235  3.0974  3.0473
  126MOL   H22140471  10.156   2.993  -2.651  0.0283  0.0948 -1.2998
  126MOL   H22240472  10.474   3.130  -2.699  0.0026  1.6205  0.2851
  126MOL   H22340473  10.337   3.033  -2.785  0.5605  0.5632 -1.5137
  126MOL   H22440474  10.385   3.351  -2.610 -0.7695 -1.1373 -3.5592
  126MOL   H22540475  10.223   3.449  -2.446  0.9733 -0.1394  2.6222
  126MOL   C22640476  10.377   3.222  -2.874 -0.3627 -0.1349 -0.6862
  126MOL   C22740477  10.243   3.260  -2.938  0.0599 -0.6803 -0.0680
  126MOL   C22840478  10.165   3.169  -3.011 -0.0646 -0.0684 -0.4033
  126MOL   C22940479  10.038   3.210  -3.055 -0.0414 -0.0621 -0.2493
  126MOL   C23040480   9.995   3.342  -3.031 -0.0202  0.2356 -0.2509
  126MOL   C23140481   9.846   3.375  -3.059 -0.2815 -0.0694 -0.4388
  126MOL   C23240482  10.080   3.435  -2.969  0.1928 -0.5152  0.0099
  126MOL   C23340483  10.202   3.395  -2.928 -0.3350 -0.0865  0.4082
  126MOL   H23440484  10.434   3.182  -2.958 -1.8626 -0.7018 -1.4331
  126MOL   H23540485  10.421   3.320  -2.854  0.3780 -0.6832  0.4383
  126MOL   H23640486  10.195   3.067  -3.031  0.7826  0.3210 -1.1079
  126MOL   H23740487   9.984   3.134  -3.108 -0.3285 -0.1812  0.2066
  126MOL   H23840488   9.795   3.302  -2.996  0.0149  1.9205  2.1757
  126MOL   H23940489   9.836   3.477  -3.023 -1.8970 -0.2167 -0.4444
  126MOL   H24040490  10.052   3.540  -2.961 -1.6744 -1.0914  1.3827
  126MOL   H24140491  10.260   3.467  -2.872 -1.3097  1.1602 -0.1699
  126MOL   C24240492   9.807   3.355  -3.202 -0.7418  0.1520 -0.4910
  126MOL   C24340493   9.659   3.375  -3.212  0.4797  1.1237 -0.6073
  126MOL   C24440494   9.604   3.507  -3.229  0.0874  0.2890  0.2122
  126MOL   C24540495   9.463   3.517  -3.234 -0.8970  0.1540  0.0015
  126MOL   C24640496   9.383   3.401  -3.227  0.3150  1.3555  0.1296
  126MOL   C24740497   9.228   3.417  -3.226 -0.2087  0.4375  0.8695
  126MOL   C24840498   9.438   3.273  -3.215 -0.1219  0.7451 -0.2432
  126MOL   C24940499   9.577   3.259  -3.207 -0.9655 -0.0108 -0.3570
  126MOL   H25040500   9.861   3.427  -3.263 -0.1273  0.4039  0.3460
  126MOL   H25140501   9.830   3.256  -3.240 -0.5529  0.1586 -0.3949
  126MOL   H25240502   9.659   3.600  -3.223  0.4039  0.1183  0.0267
  126MOL   H25340503   9.423   3.617  -3.244  2.6069  1.4342 -2.1223
  126MOL   H25440504   9.196   3.374  -3.131 -1.4266  0.6604  0.5612
  126MOL   H25540505   9.194   3.518  -3.245 -1.9013 -0.7166 -2.5661
  126MOL   H25640506   9.378   3.183  -3.207 -1.2751  1.5639  0.5226
  126MOL   H25740507   9.628   3.166  -3.185  1.2887  0.8905 -1.5448
  126MOL   C25840508   9.154   3.334  -3.332  0.5173  0.3967 -0.0636
  126MOL   C25940509   9.002   3.350  -3.324 -0.1212 -0.3247 -0.4247
  126MOL   C26040510   8.927   3.260  -3.248 -0.4475  0.3874  0.6919
  126MOL   C26140511   8.791   3.277  -3.238 -0.2598  0.0388  0.1388
  126MOL   C26240512   8.725   3.381  -3.310  0.1039  0.2354 -0.5112
  126MOL   C26340513   8.572   3.401  -3.291  0.1957  0.3748  0.4096
  126MOL   C26440514   8.798   3.478  -3.384  0.0216 -0.1963  0.0921
  126MOL   C26540515   8.939   3.461  -3.392 -0.4321  0.6283 -0.1108
  126MOL   H26640516   9.180   3.229  -3.315  0.5757  0.2952 -0.7744
  126MOL   H26740517   9.184   3.360  -3.434  3.2781  0.8177  0.8269
  126MOL   H26840518   8.976   3.176  -3.201  1.5092  1.2193  0.1688
  126MOL   H26940519   8.731   3.217  -3.172  1.1483 -0.9971  0.5055
  126MOL   H27040520   8.561   3.430  -3.186 -0.3871  0.2945  0.3693
  126MOL   H27140521   8.531   3.476  -3.358  0.6169 -0.8314 -1.2151
  126MOL   H27240522   8.752   3.565  -3.428  3.1055  1.0968 -0.7104
  126MOL   H27340523   8.988   3.537  -3.450 -2.5071  1.1373 -1.2267
  126MOL   C27440524   8.484   3.279  -3.313  0.1390 -0.6724  0.3286
  126MOL   C27540525   8.341   3.315  -3.278 -0.8647 -0.0433  0.2743
  126MOL   C27640526   8.274   3.256  -3.170 -0.0747  1.3685  0.9073
  126MOL   C27740527   8.136   3.286  -3.150  1.0278 -0.4114  0.2226
  126MOL   C27840528   8.062   3.356  -3.242  0.6936 -0.1987  0.9941
  126MOL   C27940529   7.920   3.396  -3.207  0.5952  0.5696  0.0405
  126MOL   C28040530   8.126   3.416  -3.351 -0.0782 -0.3633 -0.0526
  126MOL   C28140531   8.263   3.397  -3.370 -0.2694  0.7660 -1.3270
  126MOL   H28240532   8.484   3.237  -3.414  0.4126 -1.2833  0.5815
  126MOL   H28340533   8.518   3.205  -3.241  0.1172 -1.2930 -0.2934
  126MOL   H28440534   8.330   3.188  -3.108 -0.8121  0.7276  0.8829
  126MOL   H28540535   8.079   3.251  -3.064 -0.7497  2.7068  0.3728
  126MOL   H28640536   7.920   3.444  -3.109  0.1716  1.0497 -0.1872
  126MOL   H28740537   7.890   3.471  -3.281 -0.3895  0.2705  0.1373
  126MOL   H28840538   8.066   3.469  -3.423  0.0101 -0.2852 -0.0692
  126MOL   H28940539   8.314   3.439  -3.456  0.5045  2.2636 -0.1430
  126MOL   C29040540   7.821   3.277  -3.194 -0.0470  0.3756  0.2389
  126MOL   C29140541   7.680   3.325  -3.167 -0.2369  0.3506 -0.1544
  126MOL   C29240542   7.637   3.346  -3.029  0.1249  0.4178 -0.2378
  126MOL   C29340543   7.508   3.393  -3.009  0.0713 -0.3211  0.3511
  126MOL   C29440544   7.422   3.411  -3.116 -0.3093  0.7589  0.9164
  126MOL   C29540545   7.276   3.461  -3.091  0.3666  0.3210 -0.2599
  126MOL   C29640546   7.463   3.389  -3.250 -0.5752  0.6750 -0.8115
  126MOL   C29740547   7.597   3.346  -3.280 -0.0609  0.0710 -0.4774
  126MOL   H29840548   7.849   3.210  -3.113 -0.6862  1.5363  1.4458
  126MOL   H29940549   7.817   3.219  -3.286 -1.0634 -1.6139  1.5112
  126MOL   H30040550   7.712   3.327  -2.954  0.1683 -1.5354 -0.7525
  126MOL   H30140551   7.471   3.400  -2.908 -0.3937 -0.7646  0.2164
  126MOL   H30240552   7.269   3.512  -2.995 -1.5728  1.5548 -1.0087
  126MOL   H30340553   7.250   3.533  -3.170 -1.6916 -0.1614 -0.0625
  126MOL   H30440554   7.394   3.393  -3.333  0.5923  2.0558 -1.7302
  126MOL   H30540555   7.626   3.342  -3.384  1.0048  0.5114 -0.2021
  126MOL   C30640556   7.184   3.342  -3.104 -0.2425 -0.4829 -0.1280
  126MOL   C30740557   7.041   3.395  -3.099 -0.5736  0.1500  0.3832
  126MOL   C30840558   6.992   3.467  -2.989 -0.3256  0.5521 -0.5119
  126MOL   C30940559   6.853   3.487  -2.980  0.2849  0.1773 -0.0498
  126MOL   C31040560   6.778   3.483  -3.095 -0.3630  0.3632  0.8913
  126MOL   C31140561   6.629   3.515  -3.086 -0.0976  0.4592  1.1307
  126MOL   C31240562   6.833   3.440  -3.217  0.1862 -0.4463  0.1444
  126MOL   C31340563   6.963   3.389  -3.219 -0.1671  0.2035  0.2144
  126MOL   H31440564   7.220   3.262  -3.040 -0.1343  0.2036  0.6723
  126MOL   H31540565   7.184   3.300  -3.205 -1.2205 -0.7261 -0.0367
  126MOL   H31640566   7.046   3.488  -2.898  1.6515 -0.1187 -1.5095
  126MOL   H31740567   6.804   3.521  -2.890  0.1758  1.2211 -0.4893
  126MOL   H31840568   6.583   3.516  -3.185  1.3826 -2.1612  0.3745
  126MOL   H31940569   6.576   3.439  -3.027 -0.0257  1.8335  3.0029
  126MOL   H32040570   6.776   3.437  -3.309 -0.6111  0.4658  0.6011
  126MOL   H32140571   6.998   3.338  -3.308 -0.1324  1.1829 -0.3376
  126MOL   H32240572   6.606   3.611  -3.039 -0.7033  1.7805 -1.7461
  127MOL     C140573   4.516   1.382   0.046  0.4935 -0.6462 -0.5925
  127MOL     C240574   4.391   1.436   0.115  0.1080 -0.2641 -0.2833
  127MOL     C340575   4.353   1.390   0.240 -1.0053 -0.3354 -0.1527
  127MOL     C440576   4.230   1.439   0.293 -0.0883  0.7142  0.4768
  127MOL     C540577   4.157   1.526   0.221  0.1235  0.0633  0.7639
  127MOL     C640578   4.017   1.565   0.261 -0.5352 -0.4367 -0.7642
  127MOL     C740579   4.196   1.577   0.096 -0.1210 -0.2829  0.9698
  127MOL     C840580   4.322   1.537   0.045 -0.0910  0.4348 -0.1844
  127MOL     H940581   4.479   1.318  -0.035 -1.1643 -1.1599  0.5423
  127MOL    H1040582   4.577   1.464   0.008  0.0680  0.8938  1.9243
  127MOL    H1140583   4.411   1.321   0.299  1.6928  0.2644 -2.0163
  127MOL    H1240584   4.191   1.392   0.382 -2.0047  0.7066 -0.3343
  127MOL    H1340585   3.953   1.534   0.177 -1.7578 -1.7255  0.6009
  127MOL    H1440586   3.994   1.488   0.335  1.5058  0.9272  1.3413
  127MOL    H1540587   4.133   1.636   0.032 -0.1995 -1.1358  0.2411
  127MOL    H1640588   4.351   1.576  -0.051 -0.0877  1.8959  0.3971
  127MOL    H1740589   4.570   1.323   0.120  1.3338  1.0551  0.1820
  127MOL    C1840590   3.981   1.701   0.303 -0.0437 -0.0193  0.3184
  127MOL    C1940591   3.829   1.727   0.334 -0.0672 -0.8591 -0.3795
  127MOL    C2040592   3.793   1.854   0.380 -0.1972 -0.1504 -0.5875
  127MOL    C2140593   3.654   1.884   0.405 -0.2616  0.3122 -0.1221
  127MOL    C2240594   3.555   1.790   0.387  0.3381 -0.1803 -0.0797
  127MOL    C2340595   3.411   1.821   0.428  0.4871 -0.4551 -0.2419
  127MOL    C2440596   3.593   1.668   0.357 -0.1777  0.6495  0.1640
  127MOL    C2540597   3.725   1.636   0.325  0.5618 -0.7360  0.6453
  127MOL    H2640598   4.038   1.735   0.390 -0.1861  1.3267 -0.1124
  127MOL    H2740599   4.019   1.770   0.228 -1.8136 -0.4381 -0.9949
  127MOL    H2840600   3.870   1.929   0.389 -1.1664  0.6516  1.2734
  127MOL    H2940601   3.622   1.976   0.451 -0.6127  0.1770 -0.0995
  127MOL    H3040602   3.426   1.870   0.524 -3.9255 -1.3850  0.9942
  127MOL    H3140603   3.356   1.729   0.442 -1.5143  0.9719  1.6381
  127MOL    H3240604   3.517   1.593   0.342 -0.3049  0.9788 -0.8766
  127MOL    H3340605   3.755   1.538   0.290  2.0305 -0.0653 -0.0336
  127MOL    C3440606   3.339   1.912   0.329 -0.2355 -0.6930 -0.5102
  127MOL    C3540607   3.187   1.921   0.348 -0.1591 -0.3765 -0.2729
  127MOL    C3640608   3.099   1.910   0.238 -0.3578 -0.3918  0.2813
  127MOL    C3740609   2.959   1.924   0.248 -0.1390 -0.3937  0.5578
  127MOL    C3840610   2.902   1.961   0.374 -0.8918  0.3620  0.3848
  127MOL    C3940611   2.754   1.991   0.392 -0.5234 -0.3781  0.7108
  127MOL    C4040612   2.988   1.976   0.486  0.1094  0.4616 -0.2047
  127MOL    C4140613   3.125   1.942   0.475 -0.3848  0.3431 -0.1091
  127MOL    H4240614   3.356   1.885   0.224  3.5100 -0.3257 -0.0559
  127MOL    H4340615   3.367   2.018   0.332  1.4660 -1.1126 -0.8255
  127MOL    H4440616   3.144   1.892   0.141 -0.6841  0.3067 -0.0046
  127MOL    H4540617   2.900   1.932   0.158 -0.5332 -0.2102  0.8337
  127MOL    H4640618   2.694   1.927   0.327  2.1771 -0.4435 -1.7768
  127MOL    H4740619   2.730   1.970   0.497 -0.7730 -1.8957  0.3566
  127MOL    H4840620   2.960   2.025   0.579  0.4329 -0.7679  0.5451
  127MOL    H4940621   3.186   1.954   0.563 -1.4848 -1.8311  0.9775
  127MOL    C5040622   2.718   2.138   0.370  0.6003  0.2980 -0.3500
  127MOL    C5140623   2.580   2.177   0.381 -0.8515  0.2951  0.4860
  127MOL    C5240624   2.506   2.121   0.490  0.2262  0.6122 -0.0220
  127MOL    C5340625   2.369   2.142   0.502 -0.1414 -0.4599  0.2594
  127MOL    C5440626   2.305   2.232   0.411 -0.4462  0.6032 -0.0199
  127MOL    C5540627   2.160   2.266   0.413  0.2406 -0.6189 -1.3992
  127MOL    C5640628   2.382   2.288   0.304 -0.4939 -0.7538 -0.1808
  127MOL    C5740629   2.516   2.260   0.284 -0.5163  0.4732  0.5064
  127MOL    H5840630   2.740   2.154   0.264 -1.2506 -0.8534 -0.9257
  127MOL    H5940631   2.771   2.194   0.447 -1.0837 -0.7263  1.6080
  127MOL    H6040632   2.560   2.069   0.568 -0.9812 -0.3659  0.1968
  127MOL    H6140633   2.318   2.092   0.583 -1.8103  3.1156  1.4839
  127MOL    H6240634   2.115   2.259   0.314  0.9084 -2.6805 -1.5876
  127MOL    H6340635   2.107   2.188   0.468  1.9424 -0.2509  0.8573
  127MOL    H6440636   2.340   2.367   0.244  0.4026  0.3966  0.6960
  127MOL    H6540637   2.572   2.309   0.206 -0.6114  1.7112  1.2025
  127MOL    C6640638   2.148   2.406   0.469  0.9589 -0.5199 -0.8480
  127MOL    C6740639   2.007   2.449   0.502  0.2713 -0.4463  0.6195
  127MOL    C6840640   1.949   2.542   0.412  0.0513  0.0540 -0.7015
  127MOL    C6940641   1.814   2.559   0.418 -0.0496 -0.7878 -0.3203
  127MOL    C7040642   1.740   2.499   0.527  0.0796  0.3028  0.0450
  127MOL    C7140643   1.590   2.529   0.529  0.5044  0.1527  0.2192
  127MOL    C7240644   1.797   2.424   0.627 -0.3651 -0.4477  0.2124
  127MOL    C7340645   1.937   2.398   0.614  0.6195  0.1010  0.6742
  127MOL    H7440646   2.205   2.479   0.412  1.1240  1.4791  1.7829
  127MOL    H7540647   2.189   2.412   0.570 -0.8307  4.1847 -0.2803
  127MOL    H7640648   2.002   2.586   0.329  0.6538  0.7118  0.0242
  127MOL    H7740649   1.761   2.617   0.344  0.2969  0.2560  0.2441
  127MOL    H7840650   1.532   2.443   0.561  0.3621  0.5393  1.0089
  127MOL    H7940651   1.560   2.562   0.429 -0.3383 -3.1092 -0.6560
  127MOL    H8040652   1.738   2.367   0.698 -0.9127  2.1311  1.9248
  127MOL    H8140653   1.986   2.338   0.690  1.1131 -0.2761  0.0709
  127MOL    C8240654   1.551   2.636   0.629  0.1013  0.3588  0.4651
  127MOL    C8340655   1.399   2.649   0.631  0.3258  0.1468  0.4271
  127MOL    C8440656   1.330   2.565   0.717 -0.0469 -0.3611 -0.1313
  127MOL    C8540657   1.194   2.580   0.743  0.5866 -0.2174  0.1253
  127MOL    C8640658   1.118   2.684   0.686 -0.5269 -0.3789 -0.3819
  127MOL    C8740659   0.971   2.705   0.729 -0.4837 -0.4925 -0.1177
  127MOL    C8840660   1.186   2.778   0.598  0.2458  0.5632  0.6441
  127MOL    C8940661   1.321   2.754   0.568 -0.4248 -0.6502 -0.5231
  127MOL    H9040662   1.594   2.734   0.607 -1.2109  1.3026  1.9906
  127MOL    H9140663   1.586   2.612   0.729 -3.3729 -1.7481  1.2619
  127MOL    H9240664   1.387   2.489   0.768 -0.7221 -1.0514 -0.4122
  127MOL    H9340665   1.143   2.510   0.808  0.8162  1.9387  2.7088
  127MOL    H9440666   0.927   2.623   0.785  0.0584 -0.5943  0.1615
  127MOL    H9540667   0.907   2.703   0.640 -0.1864  2.9486 -0.4977
  127MOL    H9640668   1.143   2.863   0.549  0.0063  0.5845  0.8890
  127MOL    H9740669   1.377   2.828   0.513 -1.5346  0.8026  0.2496
  127MOL    C9840670   0.959   2.841   0.803 -0.0710  0.7856  0.7695
  127MOL    C9940671   0.817   2.879   0.849 -0.3346  0.3156  0.3104
  127MOL   C10040672   0.801   2.990   0.927  0.2418  0.1368  0.2006
  127MOL   C10140673   0.673   3.031   0.966 -0.1671 -0.1122 -0.6688
  127MOL   C10240674   0.564   2.945   0.957  0.4206  0.6500  0.6958
  127MOL   C10340675   0.428   2.965   1.025  0.9337 -0.1727 -0.3286
  127MOL   C10440676   0.584   2.825   0.884 -0.4610  0.1076 -0.4187
  127MOL   C10540677   0.707   2.790   0.832 -0.0462 -1.1499  0.6497
  127MOL   H10640678   0.984   2.925   0.737 -1.0949  0.6384  0.1836
  127MOL   H10740679   1.026   2.841   0.889 -0.8932 -3.4182  1.4825
  127MOL   H10840680   0.888   3.048   0.954 -0.3672  0.4660  1.5101
  127MOL   H10940681   0.658   3.120   1.024 -0.3498 -0.5974  0.0364
  127MOL   H11040682   0.385   2.871   1.061 -0.1498  0.7676  0.8776
  127MOL   H11140683   0.450   3.034   1.106 -1.3660 -0.9722  1.0377
  127MOL   H11240684   0.504   2.756   0.863  0.4501 -1.2793  0.6083
  127MOL   H11340685   0.720   2.700   0.773 -1.0576 -0.8966  0.0270
  127MOL   C11440686   0.319   3.024   0.933 -0.3467  0.2280 -0.2241
  127MOL   C11540687   0.203   3.056   1.016 -0.0995  0.0706 -0.0838
  127MOL   C11640688   0.201   3.178   1.090 -0.5128 -0.2268  0.2405
  127MOL   C11740689   0.077   3.223   1.148 -0.2193 -0.2315 -0.3119
  127MOL   C11840690  -0.037   3.149   1.123  0.2965  0.2812  0.3405
  127MOL   C11940691  -0.163   3.196   1.187 -0.5515 -0.4807  0.1401
  127MOL   C12040692  -0.032   3.028   1.053 -0.1099  0.5807  0.5637
  127MOL   C12140693   0.083   2.982   0.996 -0.4377  0.2058  0.1164
  127MOL   H12240694   0.296   2.943   0.864 -0.9823  0.1723  0.0515
  127MOL   H12340695   0.368   3.109   0.884  0.7539  0.0612  0.5535
  127MOL   H12440696   0.290   3.239   1.093 -0.9344  0.4547 -0.8809
  127MOL   H12540697   0.073   3.323   1.189  2.1165 -0.8925  1.7069
  127MOL   H12640698  -0.250   3.131   1.171 -0.7951 -0.0837 -0.1618
  127MOL   H12740699  -0.145   3.205   1.294  0.1043  0.1522 -0.0271
  127MOL   H12840700  -0.119   2.965   1.043  0.9492 -0.6091 -1.5310
  127MOL   H12940701   0.076   2.894   0.934  2.4876 -1.0960  1.5295
  127MOL   C13040702  -0.207   3.333   1.136  0.3312 -0.0744  0.4083
  127MOL   C13140703  -0.323   3.388   1.218  0.1910  0.2337  0.4531
  127MOL   C13240704  -0.448   3.329   1.207  0.4049 -0.0314  0.0929
  127MOL   C13340705  -0.553   3.372   1.289  0.9994 -0.8161  0.3169
  127MOL   C13440706  -0.527   3.466   1.395  0.2543  0.4527 -0.5699
  127MOL   C13540707  -0.643   3.514   1.479  0.4215 -1.0485  0.2259
  127MOL   C13640708  -0.395   3.516   1.412  0.1026  0.3072  0.2064
  127MOL   C13740709  -0.299   3.481   1.316  0.1400 -0.2022 -0.2624
  127MOL   H13840710  -0.233   3.332   1.030 -0.1264 -2.1813  0.5217
  127MOL   H13940711  -0.115   3.389   1.152  1.4711 -2.0429  0.9171
  127MOL   H14040712  -0.463   3.255   1.129 -1.0232  0.0361  0.2913
  127MOL   H14140713  -0.653   3.332   1.277  2.1411 -3.9438  0.9614
  127MOL   H14240714  -0.622   3.608   1.529  0.7461  0.6761 -3.0075
  127MOL   H14340715  -0.731   3.534   1.417  0.2399  0.0706  0.8417
  127MOL   H14440716  -0.371   3.590   1.487  1.4171 -1.1983  1.3071
  127MOL   H14540717  -0.200   3.524   1.320 -0.0939  0.2595  0.8097
  127MOL   C14640718  -0.694   3.410   1.593 -0.6144 -0.2853  0.1456
  127MOL   C14740719  -0.588   3.351   1.676 -0.5058 -0.3127  0.1824
  127MOL   C14840720  -0.517   3.235   1.644 -0.2955 -0.1793  0.4556
  127MOL   C14940721  -0.415   3.191   1.732 -0.1133  0.3335  0.1323
  127MOL   C15040722  -0.390   3.263   1.848 -0.2501 -0.3378  0.4103
  127MOL   C15140723  -0.279   3.212   1.944  0.4285  0.2387 -0.5351
  127MOL   C15240724  -0.461   3.380   1.880  0.5023 -0.0113 -0.0095
  127MOL   C15340725  -0.558   3.426   1.793  0.4228  0.0368  0.3610
  127MOL   H15440726  -0.753   3.333   1.544  0.7385  0.2776 -2.4359
  127MOL   H15540727  -0.766   3.463   1.655  0.7888 -1.1423  2.5769
  127MOL   H15640728  -0.532   3.188   1.548 -1.2539  1.3530 -0.1646
  127MOL   H15740729  -0.360   3.101   1.710  1.1598  0.8409  1.1973
  127MOL   H15840730  -0.280   3.252   2.045  1.6765 -2.7313  0.7387
  127MOL   H15940731  -0.292   3.103   1.948 -1.9441  0.5490  0.5672
  127MOL   H16040732  -0.433   3.430   1.972  1.5030 -0.0805 -0.2744
  127MOL   H16140733  -0.606   3.519   1.822  0.1749 -0.0140  0.1223
  127MOL   C16240734  -0.141   3.261   1.898  0.8703 -0.0083 -0.0021
  127MOL   C16340735  -0.018   3.177   1.935  0.8900 -0.0840 -0.8025
  127MOL   C16440736   0.084   3.227   2.020 -0.4886 -0.2032 -0.1914
  127MOL   C16540737   0.198   3.151   2.048  0.2749  0.3750  1.0447
  127MOL   C16640738   0.218   3.023   1.987 -0.1126 -0.2720 -0.0899
  127MOL   C16740739   0.351   2.946   2.016  0.1373  0.2936 -0.0391
  127MOL   C16840740   0.114   2.965   1.907 -0.7815  0.5407 -0.2628
  127MOL   C16940741   0.001   3.042   1.884  0.0337 -0.0934 -0.9935
  127MOL   H17040742  -0.128   3.368   1.918 -0.0905 -0.4149  3.0670
  127MOL   H17140743  -0.148   3.245   1.791 -1.2903 -2.9834  0.5205
  127MOL   H17240744   0.075   3.323   2.070  1.2606 -1.2355  2.2001
  127MOL   H17340745   0.273   3.195   2.113  0.9201 -0.0530  0.5965
  127MOL   H17440746   0.437   3.013   2.006  1.8384 -1.8597 -0.3273
  127MOL   H17540747   0.366   2.919   2.120 -0.3392 -1.5553 -0.4356
  127MOL   H17640748   0.109   2.862   1.876  2.8400  1.0063 -2.6244
  127MOL   H17740749  -0.074   3.005   1.816 -0.3287  0.2652 -0.7951
  127MOL   C17840750   0.385   2.830   1.913  0.5212 -0.4562 -0.2148
  127MOL   C17940751   0.526   2.768   1.932  0.0973  0.0622  0.2230
  127MOL   C18040752   0.545   2.628   1.958  0.3403  0.1409  0.3231
  127MOL   C18140753   0.673   2.576   1.957 -0.3986 -0.0760 -1.1019
  127MOL   C18240754   0.788   2.654   1.927 -0.3198 -0.0298  0.4910
  127MOL   C18340755   0.923   2.589   1.921  0.5361 -0.8312 -0.4141
  127MOL   C18440756   0.771   2.786   1.883 -0.5597  0.6544  0.6387
  127MOL   C18540757   0.646   2.843   1.898 -0.0213  0.2109  0.3392
  127MOL   H18640758   0.393   2.862   1.809  4.9230  2.3143  0.8217
  127MOL   H18740759   0.314   2.748   1.904  0.1139  0.2112 -3.8274
  127MOL   H18840760   0.460   2.567   1.985 -0.1051  0.3282 -0.6079
  127MOL   H18940761   0.673   2.473   1.991 -3.0555  0.6907  1.4321
  127MOL   H19040762   0.975   2.679   1.954 -1.3893 -0.5927  2.1318
  127MOL   H19140763   0.944   2.519   2.002  4.0171  0.2425 -0.3014
  127MOL   H19240764   0.850   2.841   1.835  1.1554 -1.3342  1.1326
  127MOL   H19340765   0.647   2.946   1.868  2.2474 -0.7702 -3.2329
  127MOL   C19440766   0.965   2.526   1.788  0.5109 -0.0180  0.0389
  127MOL   C19540767   1.120   2.491   1.778  0.1542 -0.0286 -0.1675
  127MOL   C19640768   1.165   2.373   1.835  0.0788 -0.5889 -0.2219
  127MOL   C19740769   1.303   2.343   1.819 -0.6777 -0.2490 -0.9473
  127MOL   C19840770   1.390   2.433   1.766 -0.3299 -0.3461 -0.5192
  127MOL   C19940771   1.539   2.398   1.771 -0.9009 -0.9290  0.0521
  127MOL   C20040772   1.343   2.552   1.712  0.0790 -0.4460  0.2850
  127MOL   C20140773   1.201   2.576   1.710  0.4490 -0.6437  0.1227
  127MOL   H20240774   0.940   2.595   1.708 -0.7882 -2.7707 -2.0163
  127MOL   H20340775   0.899   2.442   1.767 -1.8237  1.7379  0.2424
  127MOL   H20440776   1.097   2.307   1.885  1.0293 -0.8472  0.7502
  127MOL   H20540777   1.332   2.244   1.848  0.8570  0.1228 -1.1910
  127MOL   H20640778   1.593   2.492   1.766 -0.8790 -1.0549 -3.0622
  127MOL   H20740779   1.565   2.351   1.866  1.7583 -0.9130 -0.6262
  127MOL   H20840780   1.412   2.625   1.673  0.7006 -0.3722  1.5099
  127MOL   H20940781   1.158   2.662   1.661  0.1173 -0.1382  1.2597
  127MOL   C21040782   1.583   2.309   1.655  0.5902 -0.2765  0.0417
  127MOL   C21140783   1.732   2.274   1.671 -0.8068 -0.0723  0.0272
  127MOL   C21240784   1.833   2.358   1.615 -0.0090  0.3158  0.5219
  127MOL   C21340785   1.964   2.312   1.617  0.6293 -0.4368  0.4330
  127MOL   C21440786   2.000   2.192   1.673  0.4735 -0.2935 -0.2318
  127MOL   C21540787   2.149   2.139   1.682 -0.4702 -0.4553  0.6039
  127MOL   C21640788   1.904   2.118   1.739  0.1126  1.7391 -0.1527
  127MOL   C21740789   1.767   2.149   1.730 -0.5663  1.0084 -0.0105
  127MOL   H21840790   1.566   2.370   1.566  0.8777 -1.8299 -1.1056
  127MOL   H21940791   1.520   2.220   1.653  0.2897 -0.0594 -0.2592
  127MOL   H22040792   1.806   2.452   1.569 -2.7214  0.5155  2.4054
  127MOL   H22140793   2.039   2.371   1.567 -0.4404 -1.2713 -2.2421
  127MOL   H22240794   2.222   2.220   1.690 -1.7679  0.7486  0.5934
  127MOL   H22340795   2.166   2.075   1.768 -1.1406  0.8496  1.7375
  127MOL   H22440796   1.932   2.025   1.786 -0.3096  1.2002 -0.9604
  127MOL   H22540797   1.693   2.083   1.774 -0.6886  0.9508 -0.2993
  127MOL   C22640798   2.185   2.059   1.559 -0.1187  0.1207  0.0624
  127MOL   C22740799   2.333   2.012   1.559  0.5894  0.3069  0.1901
  127MOL   C22840800   2.359   1.898   1.639 -0.1912  0.7053 -0.8367
  127MOL   C22940801   2.497   1.850   1.650 -0.2379 -0.3560  0.2171
  127MOL   C23040802   2.598   1.918   1.583  0.3013 -0.3706  0.3787
  127MOL   C23140803   2.744   1.878   1.600  0.6394 -0.2273  0.5045
  127MOL   C23240804   2.575   2.034   1.510  0.0186 -0.2292  0.3824
  127MOL   C23340805   2.442   2.080   1.497 -0.1402 -0.4280 -0.0410
  127MOL   H23440806   2.175   2.123   1.471 -0.5510 -0.9193 -0.6639
  127MOL   H23540807   2.114   1.977   1.550 -1.0811  1.0704 -1.2261
  127MOL   H23640808   2.283   1.852   1.701  1.0470 -1.5040 -0.9103
  127MOL   H23740809   2.526   1.765   1.711 -0.4045 -0.2893  0.3872
  127MOL   H23840810   2.799   1.971   1.618 -0.2084  0.0608  1.6618
  127MOL   H23940811   2.751   1.819   1.691  2.9689  0.0583  0.5604
  127MOL   H24040812   2.648   2.087   1.451  1.5774 -1.0570  1.5247
  127MOL   H24140813   2.422   2.164   1.433  0.2612 -0.7671 -0.6161
  127MOL   C24240814   2.793   1.789   1.490 -0.0400 -0.2953 -0.4484
  127MOL   C24340815   2.943   1.771   1.491 -0.2639 -0.7573 -0.6095
  127MOL   C24440816   3.037   1.867   1.445  0.2965  0.1448 -0.1844
  127MOL   C24540817   3.174   1.842   1.457 -0.3184  0.4823 -0.5198
  127MOL   C24640818   3.224   1.714   1.493 -1.0718 -0.7030 -0.1579
  127MOL   C24740819   3.375   1.681   1.496  0.4663  0.0173 -0.7062
  127MOL   C24840820   3.130   1.617   1.532 -0.2979  0.0807 -0.1126
  127MOL   C24940821   2.990   1.646   1.528 -0.3033  0.0095  0.1192
  127MOL   H25040822   2.752   1.688   1.487  0.2197 -0.3809 -1.2828
  127MOL   H25140823   2.781   1.830   1.389  0.2141 -1.6025 -1.0251
  127MOL   H25240824   3.004   1.961   1.404  2.3861  0.7075 -0.6487
  127MOL   H25340825   3.236   1.922   1.418 -1.7324  1.5867 -0.5195
  127MOL   H25440826   3.427   1.774   1.475  2.3259 -0.9673 -0.5418
  127MOL   H25540827   3.418   1.655   1.593  0.6114 -1.1576 -1.0706
  127MOL   H25640828   3.170   1.522   1.566  1.1053  0.9016  0.5853
  127MOL   H25740829   2.927   1.565   1.561  1.5947 -1.6335 -0.1488
  127MOL   C25840830   3.416   1.568   1.395  0.0382  0.3754 -0.1127
  127MOL   C25940831   3.566   1.551   1.390 -1.0072 -0.5594 -0.0911
  127MOL   C26040832   3.655   1.642   1.324  0.0758  0.2113  0.0402
  127MOL   C26140833   3.796   1.621   1.331 -0.4566  1.2345 -0.9710
  127MOL   C26240834   3.846   1.513   1.411 -0.1061  0.5022  0.5972
  127MOL   C26340835   3.993   1.482   1.417 -0.1336  0.4266  0.0228
  127MOL   C26440836   3.761   1.427   1.472 -0.2098  0.0252  0.7816
  127MOL   C26540837   3.622   1.450   1.468 -1.1528  0.1172 -0.4003
  127MOL   H26640838   3.383   1.580   1.292  0.7352  0.6499 -0.3097
  127MOL   H26740839   3.353   1.483   1.420 -2.4283  1.3377 -2.8537
  127MOL   H26840840   3.623   1.726   1.264 -0.4938  0.1197  0.2169
  127MOL   H26940841   3.873   1.676   1.279  3.2511 -1.8246  0.9924
  127MOL   H27040842   4.044   1.560   1.360  0.8327  0.3445  0.7596
  127MOL   H27140843   4.037   1.497   1.516  1.1470  0.5177 -0.5494
  127MOL   H27240844   3.789   1.347   1.538  1.5350 -1.0404 -1.1967
  127MOL   H27340845   3.572   1.376   1.530  0.7448 -1.7185 -1.0110
  127MOL   C27440846   4.024   1.350   1.343  0.1306 -0.3372  0.2458
  127MOL   C27540847   4.172   1.318   1.336  0.2863 -0.4623 -0.6707
  127MOL   C27640848   4.218   1.208   1.418  0.3359  0.3070 -0.5750
  127MOL   C27740849   4.355   1.179   1.416 -0.6343 -0.1694  0.3683
  127MOL   C27840850   4.444   1.256   1.342 -0.8301 -0.3113  0.6000
  127MOL   C27940851   4.590   1.237   1.334 -0.4758  0.2189  0.3233
  127MOL   C28040852   4.394   1.362   1.260 -0.5960 -0.1140 -0.2815
  127MOL   C28140853   4.254   1.393   1.258 -0.5989 -0.3569 -0.1991
  127MOL   H28240854   3.976   1.264   1.390  1.6391 -1.1367  0.3651
  127MOL   H28340855   3.989   1.357   1.240 -1.8809 -1.6269  0.8252
  127MOL   H28440856   4.151   1.145   1.474  0.8895 -1.4784 -1.8966
  127MOL   H28540857   4.405   1.101   1.470 -0.0504 -1.5187 -2.0353
  127MOL   H28640858   4.635   1.337   1.337  0.1889 -0.0758  0.3935
  127MOL   H28740859   4.627   1.193   1.426 -3.2732 -1.3962  0.7121
  127MOL   H28840860   4.461   1.424   1.203  0.4257  0.4408  1.4825
  127MOL   H28940861   4.216   1.473   1.195 -1.2077  0.4865  1.2291
  127MOL   C29040862   4.638   1.147   1.222  0.2919 -0.4712  0.1653
  127MOL   C29140863   4.792   1.121   1.227  1.2237 -0.0760  0.0244
  127MOL   C29240864   4.835   1.009   1.302 -0.8551  0.6265 -1.2557
  127MOL   C29340865   4.973   0.970   1.297  0.2962 -0.3622 -0.1574
  127MOL   C29440866   5.064   1.054   1.229  0.3244  0.6233  0.4625
  127MOL   C29540867   5.211   1.024   1.221 -0.1364  0.0503 -0.4668
  127MOL   C29640868   5.021   1.172   1.170 -0.2237 -0.3799  0.1707
  127MOL   C29740869   4.884   1.205   1.168 -0.2635  0.0560  0.0077
  127MOL   H29840870   4.618   1.190   1.124 -0.3909 -1.8046 -0.2890
  127MOL   H29940871   4.604   1.044   1.215  0.0207 -0.5984  2.7404
  127MOL   H30040872   4.748   0.956   1.337 -0.1195 -0.9427 -1.7730
  127MOL   H30140873   5.010   0.887   1.355  1.8785  0.2699 -0.2527
  127MOL   H30240874   5.250   1.079   1.136  2.3360  0.7613  1.0923
  127MOL   H30340875   5.249   1.066   1.314 -4.7247 -1.2092  2.1414
  127MOL   H30440876   5.097   1.231   1.122  0.1289  0.6862  1.9634
  127MOL   H30540877   4.852   1.297   1.121 -1.4491 -0.3348  0.0302
  127MOL   C30640878   5.252   0.873   1.207  0.0393 -0.0623  0.1283
  127MOL   C30740879   5.399   0.857   1.186 -0.2351 -0.5535  0.4743
  127MOL   C30840880   5.485   0.883   1.299 -0.1833 -0.3148 -0.2441
  127MOL   C30940881   5.625   0.877   1.280 -0.4017  0.4258 -0.1946
  127MOL   C31040882   5.676   0.836   1.155 -0.4317  0.1131 -0.3768
  127MOL   C31140883   5.826   0.805   1.135 -1.4323  0.5621  0.0893
  127MOL   C31240884   5.593   0.819   1.042 -0.0102 -0.5795 -0.5466
  127MOL   C31340885   5.451   0.832   1.058 -0.3846  0.2901 -0.4728
  127MOL   H31440886   5.199   0.829   1.123  1.8735  0.0080 -1.1060
  127MOL   H31540887   5.223   0.821   1.298  0.6717 -0.2550  0.2267
  127MOL   H31640888   5.437   0.908   1.392 -0.1126 -0.9753 -0.0244
  127MOL   H31740889   5.697   0.896   1.358  1.3941 -2.4034 -1.0874
  127MOL   H31840890   5.857   0.828   1.033 -0.3491 -0.7229  0.1102
  127MOL   H31940891   5.894   0.873   1.187 -2.7665  2.4212 -0.5475
  127MOL   H32040892   5.632   0.796   0.944 -2.8444 -0.4498 -1.7776
  127MOL   H32140893   5.389   0.816   0.971  0.4004  0.3014 -1.0395
  127MOL   H32240894   5.850   0.703   1.165  1.5403  0.2244 -3.1381
  128MOL     C140895   5.212   6.856   5.058  0.1703 -1.3646  0.2131
  128MOL     C240896   5.093   6.934   5.112 -0.1019  0.7541  0.2164
  128MOL     C340897   5.065   7.062   5.063  0.3807  0.1397  0.4475
  128MOL     C440898   4.945   7.122   5.106 -0.1163 -0.4844 -0.8346
  128MOL     C540899   4.860   7.059   5.202  0.1787  0.2946  0.1904
  128MOL     C640900   4.736   7.132   5.251  0.0027  0.2428 -0.2950
  128MOL     C740901   4.899   6.938   5.259 -0.0740  0.4098  0.4701
  128MOL     C840902   5.013   6.872   5.209 -0.0086 -0.1312  0.6234
  128MOL     H940903   5.308   6.882   5.101  0.2623 -2.0879  0.4578
  128MOL    H1040904   5.201   6.748   5.069 -1.4570 -1.0027  2.6285
  128MOL    H1140905   5.138   7.104   4.995  0.6748 -0.2798  0.5039
  128MOL    H1240906   4.926   7.222   5.071  1.9126 -1.1278 -3.9240
  128MOL    H1340907   4.749   7.140   5.359  2.0711  0.5564 -0.5510
  128MOL    H1440908   4.742   7.234   5.214  0.5359  1.0318  1.8800
  128MOL    H1540909   4.834   6.891   5.331 -1.2995  0.5437 -0.5363
  128MOL    H1640910   5.028   6.773   5.251  1.8834  0.1983  0.7591
  128MOL    H1740911   5.212   6.878   4.951  1.0397 -1.8037  0.1173
  128MOL    C1840912   4.605   7.055   5.233  1.1107 -0.1823  0.3417
  128MOL    C1940913   4.487   7.135   5.278 -0.3185 -0.3943 -0.0089
  128MOL    C2040914   4.435   7.236   5.190  0.3030  0.1740  0.3849
  128MOL    C2140915   4.324   7.313   5.238 -0.1045  1.0195  0.0498
  128MOL    C2240916   4.264   7.282   5.360  0.4451 -0.6935  0.1714
  128MOL    C2340917   4.161   7.375   5.417  0.2562 -0.3267 -0.4329
  128MOL    C2440918   4.302   7.174   5.438  0.3166  0.0123  0.1360
  128MOL    C2540919   4.416   7.100   5.394 -0.1840 -0.2474 -0.2706
  128MOL    H2640920   4.592   7.039   5.126 -1.7584 -0.6597  0.7205
  128MOL    H2740921   4.610   6.952   5.267 -0.1049 -0.3655 -0.0269
  128MOL    H2840922   4.478   7.254   5.092 -0.8913  0.8578 -0.0242
  128MOL    H2940923   4.282   7.388   5.172  0.2586 -0.6776 -2.1758
  128MOL    H3040924   4.170   7.480   5.389  1.4310 -0.1054  0.7235
  128MOL    H3140925   4.166   7.379   5.526 -0.2943 -1.8515 -0.3464
  128MOL    H3240926   4.256   7.151   5.533  1.0689 -0.6753  0.3427
  128MOL    H3340927   4.454   7.022   5.458  1.1643  2.0113  1.7523
  128MOL    C3440928   4.022   7.325   5.379 -0.0596 -0.2890 -0.2904
  128MOL    C3540929   3.907   7.400   5.444  0.7724  0.0933  0.9987
  128MOL    C3640930   3.857   7.374   5.571  0.8400 -0.2355  0.3967
  128MOL    C3740931   3.746   7.442   5.621 -0.3410 -0.0494 -1.0823
  128MOL    C3840932   3.698   7.553   5.558  0.7834 -0.2901 -0.1642
  128MOL    C3940933   3.589   7.640   5.616  0.2970  0.0301  0.6126
  128MOL    C4040934   3.754   7.592   5.436  0.2025 -0.5380  0.8920
  128MOL    C4140935   3.855   7.512   5.372 -0.0622  0.2590  0.2444
  128MOL    H4240936   4.015   7.224   5.419 -0.2323 -0.0558  0.2630
  128MOL    H4340937   4.009   7.317   5.271 -1.0037  1.2602 -0.2977
  128MOL    H4440938   3.909   7.302   5.633 -0.0825 -0.7405  0.6002
  128MOL    H4540939   3.709   7.407   5.717 -0.5055 -0.0486 -1.1451
  128MOL    H4640940   3.641   7.685   5.701 -1.1191  0.0491  1.4882
  128MOL    H4740941   3.568   7.718   5.543 -0.7258 -0.6744  0.1453
  128MOL    H4840942   3.734   7.683   5.380 -2.6708 -1.3196  0.5672
  128MOL    H4940943   3.892   7.537   5.274 -0.5772  1.7531  0.4283
  128MOL    C5040944   3.463   7.564   5.644 -0.1425  0.3117  0.3695
  128MOL    C5140945   3.361   7.637   5.725 -0.9077  0.3732  0.2765
  128MOL    C5240946   3.297   7.751   5.667  0.0959 -0.4598 -0.0626
  128MOL    C5340947   3.199   7.827   5.734  0.7598 -0.1958  0.0637
  128MOL    C5440948   3.155   7.782   5.861  0.0844 -0.4813  0.2615
  128MOL    C5540949   3.048   7.866   5.926 -0.5731 -0.7409  0.0153
  128MOL    C5640950   3.208   7.669   5.913 -0.2293 -0.5854 -0.5619
  128MOL    C5740951   3.315   7.597   5.851 -0.3344 -0.4848  0.1346
  128MOL    H5840952   3.478   7.477   5.708 -1.3286  0.7059  1.2084
  128MOL    H5940953   3.420   7.539   5.546  2.7105  2.7214 -1.5702
  128MOL    H6040954   3.329   7.787   5.571  3.2253  0.3037  1.1810
  128MOL    H6140955   3.148   7.906   5.681  1.4890  1.6698  2.0951
  128MOL    H6240956   3.057   7.871   6.035  2.3874 -0.2028 -0.2026
  128MOL    H6340957   3.058   7.972   5.900 -2.3087 -1.1625 -2.4872
  128MOL    H6440958   3.161   7.634   6.004  2.1569  2.1052  1.8020
  128MOL    H6540959   3.353   7.504   5.889  0.0833 -1.6290 -2.9192
  128MOL    C6640960   2.904   7.820   5.888  0.1224 -0.3961  0.3294
  128MOL    C6740961   2.784   7.896   5.938 -1.1199 -0.0589  0.0072
  128MOL    C6840962   2.738   7.872   6.069 -0.2396  0.6008  1.2580
  128MOL    C6940963   2.626   7.939   6.126  0.5375  0.1030  0.5835
  128MOL    C7040964   2.557   8.035   6.046  0.2159 -0.1259 -0.0785
  128MOL    C7140965   2.442   8.126   6.101 -0.2370 -0.2068 -0.2578
  128MOL    C7240966   2.607   8.060   5.920  0.4064  0.3048 -0.2955
  128MOL    C7340967   2.724   8.003   5.869  0.3203  0.0651 -0.5519
  128MOL    H7440968   2.891   7.718   5.926 -0.1584 -0.7464 -0.6956
  128MOL    H7540969   2.894   7.809   5.780 -2.3382  0.4794  0.4373
  128MOL    H7640970   2.790   7.811   6.141 -1.0605 -0.1501  1.2113
  128MOL    H7740971   2.588   7.922   6.225 -0.4312 -1.3327 -0.0143
  128MOL    H7840972   2.381   8.163   6.019  2.1700  0.5786 -1.7509
  128MOL    H7940973   2.479   8.220   6.141 -1.3759 -0.2194  0.8558
  128MOL    H8040974   2.546   8.128   5.861 -0.3362  0.9749  1.2060
  128MOL    H8140975   2.762   8.025   5.770  1.4508 -2.0631 -0.6237
  128MOL    C8240976   2.352   8.061   6.204  0.2357 -0.4845  0.4338
  128MOL    C8340977   2.211   8.121   6.235 -0.3648  1.0629  0.9125
  128MOL    C8440978   2.190   8.216   6.335  0.6247 -0.2690 -0.0488
  128MOL    C8540979   2.069   8.293   6.331 -0.7092 -0.3307  0.0342
  128MOL    C8640980   1.970   8.260   6.233  1.1776 -0.5067  0.6764
  128MOL    C8740981   1.840   8.339   6.237  0.0785  0.2104  1.0113
  128MOL    C8840982   1.989   8.162   6.138  0.2715 -0.1880  0.0071
  128MOL    C8940983   2.107   8.092   6.142 -0.0790  0.0992  0.6838
  128MOL    H9040984   2.404   8.055   6.300  0.2316  2.2361  0.6575
  128MOL    H9140985   2.345   7.956   6.176  0.3510 -0.9726  2.1788
  128MOL    H9240986   2.266   8.244   6.407 -1.4107  1.4946  1.4773
  128MOL    H9340987   2.067   8.378   6.397  1.7425 -0.2117  0.0237
  128MOL    H9440988   1.802   8.339   6.135  0.1279  0.2905  0.9926
  128MOL    H9540989   1.850   8.440   6.278 -0.4981  0.6446  0.1003
  128MOL    H9640990   1.908   8.122   6.079 -0.4414  0.8076  0.3093
  128MOL    H9740991   2.119   8.002   6.083  0.0503 -0.2727  1.2809
  128MOL    C9840992   1.737   8.276   6.335 -0.1838 -0.2540 -0.3192
  128MOL    C9940993   1.600   8.347   6.338  0.0828  0.2953 -0.7380
  128MOL   C10040994   1.506   8.316   6.235 -0.1354  0.5341  0.7141
  128MOL   C10140995   1.372   8.360   6.248 -0.8069  0.5242  0.5252
  128MOL   C10240996   1.331   8.438   6.357  0.0504 -0.3012  0.0104
  128MOL   C10340997   1.189   8.487   6.381 -0.1083 -0.7239  0.1651
  128MOL   C10440998   1.431   8.482   6.440  0.1710 -0.0224  0.6665
  128MOL   C10540999   1.558   8.435   6.440 -0.4179  0.3941  0.5561
  128MOL   H10641000   1.789   8.296   6.429 -0.5801  0.3669 -0.2300
  128MOL   H10741001   1.739   8.168   6.320  1.5603 -0.1252 -1.2489
  128MOL   H10841002   1.529   8.254   6.150 -1.5646  0.7848  0.1373
  128MOL   H10941003   1.305   8.331   6.169 -2.0950  1.5704  1.2165
  128MOL   H11041004   1.184   8.580   6.438  0.0733  0.0884 -1.1279
  128MOL   H11141005   1.151   8.523   6.286 -0.8509 -0.4552  0.5543
  128MOL   H11241006   1.407   8.538   6.530  0.4374 -0.7963  1.2190
  128MOL   H11341007   1.628   8.460   6.518  2.7530  0.5847 -2.2510
  128MOL   C11441008   1.098   8.381   6.439 -0.8502 -0.3568 -0.1471
  128MOL   C11541009   0.958   8.442   6.482  0.0546 -0.6514  0.7561
  128MOL   C11641010   0.830   8.407   6.422  0.8011  0.4240 -0.2282
  128MOL   C11741011   0.713   8.488   6.453  0.7746  0.1577 -0.1148
  128MOL   C11841012   0.722   8.596   6.548  0.9660  0.0112 -0.0048
  128MOL   C11941013   0.601   8.683   6.578  0.3980 -0.9473  0.5156
  128MOL   C12041014   0.846   8.615   6.611  1.2185  0.0592 -0.1525
  128MOL   C12141015   0.958   8.540   6.579 -0.7328  0.1120  0.0577
  128MOL   H12241016   1.145   8.340   6.529 -0.9747  0.4202  0.2765
  128MOL   H12341017   1.082   8.301   6.367 -1.4611 -0.8785  0.5478
  128MOL   H12441018   0.825   8.325   6.352  1.1590 -1.4070  1.8499
  128MOL   H12541019   0.620   8.474   6.400  0.7799 -1.4840  0.2732
  128MOL   H12641020   0.627   8.748   6.662  2.0462  1.8845 -2.1203
  128MOL   H12741021   0.592   8.750   6.493  0.3408 -1.8776 -0.2234
  128MOL   H12841022   0.855   8.690   6.689  3.7708 -0.2905 -0.0618
  128MOL   H12941023   1.052   8.567   6.624 -0.0075  1.3497 -2.1291
  128MOL   C13041024   0.481   8.599   6.609  0.6215 -0.2501  0.7637
  128MOL   C13141025   0.366   8.687   6.639  0.2538 -0.3514 -0.6837
  128MOL   C13241026   0.245   8.667   6.562 -0.1033 -0.7048  0.4236
  128MOL   C13341027   0.127   8.735   6.599 -0.5024 -0.0944  0.0240
  128MOL   C13441028   0.125   8.816   6.714  0.3499 -0.5299  0.8733
  128MOL   C13541029  -0.004   8.891   6.742  0.0557  0.1944 -0.6565
  128MOL   C13641030   0.240   8.828   6.793 -0.0568 -0.0600  0.2594
  128MOL   C13741031   0.359   8.767   6.750  0.6925 -0.3139  0.0643
  128MOL   H13841032   0.492   8.532   6.694 -0.1486  0.0988  1.1340
  128MOL   H13941033   0.472   8.529   6.526  0.7625  0.3860  0.2025
  128MOL   H14041034   0.237   8.603   6.476 -0.5883  1.3514 -1.0745
  128MOL   H14141035   0.034   8.731   6.544 -0.8871  1.1654  0.5718
  128MOL   H14241036   0.001   8.966   6.821  1.3609  2.5206 -2.8756
  128MOL   H14341037  -0.040   8.938   6.651 -1.8630  2.1757  1.0630
  128MOL   H14441038   0.236   8.892   6.880  0.1626 -0.7908  0.8121
  128MOL   H14541039   0.442   8.777   6.818  0.6227 -2.9452  0.5967
  128MOL   C14641040  -0.128   8.811   6.789 -1.1609  0.6585  0.1165
  128MOL   C14741041  -0.255   8.894   6.819 -0.5442 -0.5109 -0.3113
  128MOL   C14841042  -0.270   8.962   6.946  0.1154  0.6079  0.6557
  128MOL   C14941043  -0.390   9.021   6.984 -0.1981 -0.0589  0.7254
  128MOL   C15041044  -0.496   9.031   6.887  0.4695  0.3393 -0.4730
  128MOL   C15141045  -0.636   9.083   6.925  0.4005 -0.2295  0.6115
  128MOL   C15241046  -0.469   8.985   6.757  0.4564 -0.5792  0.1028
  128MOL   C15341047  -0.358   8.905   6.728 -0.3245 -0.2711 -0.6365
  128MOL   H15441048  -0.091   8.745   6.868  1.5647  2.3166  0.2782
  128MOL   H15541049  -0.150   8.746   6.704  0.7581  1.3362 -0.9350
  128MOL   H15641050  -0.193   8.946   7.020  1.4286  1.5227 -0.4987
  128MOL   H15741051  -0.396   9.054   7.087 -0.2953 -1.2125  1.0947
  128MOL   H15841052  -0.622   9.189   6.950 -1.2004  1.1007 -3.7086
  128MOL   H15941053  -0.700   9.094   6.837 -0.6741  0.2233  1.4366
  128MOL   H16041054  -0.540   8.982   6.676  0.2586 -1.6423  0.3081
  128MOL   H16141055  -0.348   8.863   6.629 -1.8160 -2.9599  0.3224
  128MOL   C16241056  -0.714   8.990   7.016 -0.1314 -0.0043 -0.4394
  128MOL   C16341057  -0.852   9.046   7.050  0.3778  0.0961 -0.1039
  128MOL   C16441058  -0.881   9.103   7.174  0.1493 -0.4146  0.3562
  128MOL   C16541059  -1.018   9.145   7.202 -0.5729 -1.0343  0.0706
  128MOL   C16641060  -1.114   9.139   7.104  0.5279 -0.0817  0.1266
  128MOL   C16741061  -1.252   9.206   7.124  0.1208 -0.2581 -0.0395
  128MOL   C16841062  -1.080   9.090   6.974 -0.1165 -0.5172  0.0450
  128MOL   C16941063  -0.950   9.043   6.956  0.2373 -0.8070 -0.3029
  128MOL   H17041064  -0.651   8.980   7.104 -0.4858  2.5021  0.1276
  128MOL   H17141065  -0.714   8.891   6.970 -0.8925  0.5295 -1.6333
  128MOL   H17241066  -0.806   9.118   7.250 -1.5072  0.5195  1.8697
  128MOL   H17341067  -1.041   9.199   7.292  1.4889 -0.0107  0.0164
  128MOL   H17441068  -1.243   9.312   7.144 -0.2640 -0.2347  0.0085
  128MOL   H17541069  -1.297   9.215   7.025  0.6955 -0.1803 -0.2961
  128MOL   H17641070  -1.155   9.099   6.896  1.7629  2.6621 -1.4860
  128MOL   H17741071  -0.929   8.994   6.861  2.8507 -2.8771  1.2565
  128MOL   C17841072  -1.348   9.134   7.230  0.2502 -0.6821 -0.5700
  128MOL   C17941073  -1.466   9.216   7.256  0.3734  0.9379 -0.9252
  128MOL   C18041074  -1.465   9.353   7.289  0.5720 -0.0948  0.2645
  128MOL   C18141075  -1.590   9.420   7.311 -0.6440 -0.6845 -0.5904
  128MOL   C18241076  -1.714   9.354   7.301 -1.1727 -0.2560 -0.4855
  128MOL   C18341077  -1.848   9.420   7.321  0.6863 -0.0484  0.4668
  128MOL   C18441078  -1.715   9.219   7.264 -0.1566  0.0164  0.5121
  128MOL   C18541079  -1.594   9.150   7.245 -0.2885 -0.6344  0.2153
  128MOL   H18641080  -1.297   9.125   7.325 -0.3015  0.6799 -0.1257
  128MOL   H18741081  -1.378   9.033   7.200 -1.1087 -1.6919  3.8407
  128MOL   H18841082  -1.375   9.412   7.285 -0.1568  1.0245 -0.3745
  128MOL   H18941083  -1.593   9.519   7.353 -0.5209 -1.1352  0.5084
  128MOL   H19041084  -1.845   9.527   7.303  0.9984 -0.1174  0.0844
  128MOL   H19141085  -1.917   9.378   7.247  1.2740  1.5269 -0.9874
  128MOL   H19241086  -1.811   9.168   7.263 -1.0835  1.7250 -2.3103
  128MOL   H19341087  -1.596   9.046   7.216 -0.0035 -0.6002  0.0724
  128MOL   C19441088  -1.897   9.401   7.467 -0.8822 -0.1611  0.4975
  128MOL   C19541089  -2.028   9.473   7.497  0.7310  0.1810 -0.2606
  128MOL   C19641090  -2.051   9.601   7.445 -0.5392  0.8930 -0.1118
  128MOL   C19741091  -2.184   9.653   7.450 -0.0633  0.3421 -0.0153
  128MOL   C19841092  -2.297   9.588   7.510 -0.5686  0.9576  0.0765
  128MOL   C19941093  -2.439   9.646   7.510  0.0912 -0.5246 -0.5905
  128MOL   C20041094  -2.267   9.461   7.571  0.2585  0.7241  0.8219
  128MOL   C20141095  -2.139   9.405   7.559 -0.4384 -0.4089 -0.6153
  128MOL   H20241096  -1.820   9.434   7.537 -0.1163 -1.5289  0.3275
  128MOL   H20341097  -1.911   9.294   7.483 -0.5769  0.1408  2.9872
  128MOL   H20441098  -1.970   9.660   7.405 -0.3167  1.8935  1.7538
  128MOL   H20541099  -2.204   9.742   7.393 -0.5482 -0.3779 -0.9758
  128MOL   H20641100  -2.443   9.735   7.446 -1.4634  0.9493  1.4982
  128MOL   H20741101  -2.506   9.572   7.467 -3.3326  1.1991  1.5286
  128MOL   H20841102  -2.345   9.406   7.623  1.3894 -0.4720  1.2786
  128MOL   H20941103  -2.122   9.304   7.593  0.0726 -0.3353 -0.6511
  128MOL   C21041104  -2.479   9.683   7.653 -0.5809  0.6940 -0.2837
  128MOL   C21141105  -2.612   9.759   7.679 -0.0576 -0.0054  0.0236
  128MOL   C21241106  -2.683   9.741   7.800 -0.8519 -0.7377 -0.4130
  128MOL   C21341107  -2.806   9.807   7.817  0.0245  0.1477 -0.2939
  128MOL   C21441108  -2.850   9.901   7.721  0.3996  0.4817  0.0424
  128MOL   C21541109  -2.987   9.958   7.732 -0.2797 -0.8318  0.8525
  128MOL   C21641110  -2.779   9.921   7.602  0.8578 -0.0629  0.1414
  128MOL   C21741111  -2.655   9.851   7.580  0.4982 -0.1449 -1.0435
  128MOL   H21841112  -2.401   9.740   7.704 -1.4825  0.7215  1.0659
  128MOL   H21941113  -2.494   9.592   7.712  1.2631  0.4101 -0.2116
  128MOL   H22041114  -2.651   9.677   7.881  2.0800 -0.0066 -0.9599
  128MOL   H22141115  -2.856   9.795   7.911  0.1845  0.1546 -0.2069
  128MOL   H22241116  -3.046   9.950   7.641 -0.4017 -2.5373  1.0594
  128MOL   H22341117  -3.042   9.904   7.809  3.0663  0.3946  4.3161
  128MOL   H22441118  -2.824   9.979   7.522  1.7893 -1.2742 -1.3033
  128MOL   H22541119  -2.599   9.861   7.488  1.3602  1.4305 -0.3719
  128MOL   C22641120  -2.972  10.104   7.772 -0.0413  0.2933 -0.2764
  128MOL   C22741121  -3.104  10.174   7.812  0.6625 -0.2680  0.1238
  128MOL   C22841122  -3.202  10.114   7.900  0.0591  0.8040 -0.3073
  128MOL   C22941123  -3.322  10.178   7.926  0.8794  0.7735 -0.3123
  128MOL   C23041124  -3.349  10.304   7.871  0.5432 -0.2172 -0.5418
  128MOL   C23141125  -3.485  10.375   7.884  0.3991 -0.7652 -0.3302
  128MOL   C23241126  -3.250  10.369   7.793  0.0959 -0.5129  0.1949
  128MOL   C23341127  -3.125  10.308   7.766  0.5619  0.2875  0.4066
  128MOL   H23441128  -2.921  10.152   7.689  1.8754  0.2596  0.8565
  128MOL   H23541129  -2.900  10.113   7.853  1.5550  0.5084 -1.6970
  128MOL   H23641130  -3.195  10.011   7.933  0.8947  0.9881  0.0996
  128MOL   H23741131  -3.395  10.118   7.978  0.8950  2.2298  1.4652
  128MOL   H23841132  -3.457  10.476   7.853  0.3045 -1.0320 -1.3234
  128MOL   H23941133  -3.548  10.338   7.804  1.9972  0.9740 -2.4779
  128MOL   H24041134  -3.263  10.473   7.765 -1.1160 -0.8809 -0.6711
  128MOL   H24141135  -3.047  10.364   7.717 -0.8847  0.3690 -1.8524
  128MOL   C24241136  -3.564  10.361   8.023 -0.6257 -0.8206 -0.2311
  128MOL   C24341137  -3.690  10.447   8.035  0.2437 -0.4987  0.4718
  128MOL   C24441138  -3.703  10.547   8.134 -0.2488 -0.3969  0.0557
  128MOL   C24541139  -3.823  10.618   8.144 -0.5677 -0.1829  0.2799
  128MOL   C24641140  -3.933  10.595   8.063 -0.0799 -0.0306  1.1207
  128MOL   C24741141  -4.060  10.678   8.076  0.3440  0.4709 -0.1746
  128MOL   C24841142  -3.923  10.493   7.965  0.0326 -0.2038 -0.3397
  128MOL   C24941143  -3.802  10.420   7.948  0.4388  0.0495  0.8703
  128MOL   H25041144  -3.592  10.257   8.041 -1.9101  0.0154  2.9154
  128MOL   H25141145  -3.497  10.389   8.105  0.7242 -0.3837 -1.4569
  128MOL   H25241146  -3.621  10.557   8.204  2.5352 -1.0906 -2.9799
  128MOL   H25341147  -3.828  10.693   8.221  1.6485  0.3212 -0.0280
  128MOL   H25441148  -4.072  10.750   7.996  0.4728 -0.8723 -1.4159
  128MOL   H25541149  -4.139  10.602   8.070  1.5375 -0.6794 -1.7201
  128MOL   H25641150  -4.005  10.482   7.896  0.5106  1.0556 -1.1338
  128MOL   H25741151  -3.799  10.336   7.881 -0.8525 -1.0526  2.1303
  128MOL   C25841152  -4.064  10.769   8.197 -0.4457 -0.6741  0.2212
  128MOL   C25941153  -4.189  10.847   8.223  0.2616 -0.4683  0.3832
  128MOL   C26041154  -4.181  10.984   8.247 -0.3687  0.0684  0.9663
  128MOL   C26141155  -4.299  11.057   8.263  0.2123  0.0456 -1.1499
  128MOL   C26241156  -4.424  10.997   8.259 -0.0507 -0.2583 -0.2469
  128MOL   C26341157  -4.553  11.082   8.274 -0.7461 -0.4119  0.9390
  128MOL   C26441158  -4.433  10.858   8.243  0.1201  0.2392 -0.1548
  128MOL   C26541159  -4.316  10.785   8.227 -0.4476  0.3450  0.0885
  128MOL   H26641160  -3.977  10.833   8.208 -1.2091  0.1969  1.3113
  128MOL   H26741161  -4.064  10.704   8.284 -2.9231  0.9401  1.4760
  128MOL   H26841162  -4.089  11.037   8.229 -0.8336  0.6508  0.2378
  128MOL   H26941163  -4.283  11.164   8.269 -0.1139 -0.0349  2.1944
  128MOL   H27041164  -4.514  11.184   8.275 -3.3764  0.6282  1.5217
  128MOL   H27141165  -4.622  11.087   8.191 -0.9118  2.9082  1.1995
  128MOL   H27241166  -4.528  10.813   8.217  0.5044 -0.1448 -0.9122
  128MOL   H27341167  -4.334  10.681   8.204  1.1436  0.1147 -0.1251
  128MOL   C27441168  -4.639  11.053   8.394  0.6023  0.0717  0.0206
  128MOL   C27541169  -4.770  11.131   8.392  0.4113 -0.2107  0.2303
  128MOL   C27641170  -4.764  11.272   8.400  0.7224  0.7577  0.6557
  128MOL   C27741171  -4.886  11.349   8.390  0.1804  0.0087 -0.1877
  128MOL   C27841172  -5.008  11.281   8.371 -0.4857 -0.8222 -0.4693
  128MOL   C27941173  -5.136  11.361   8.357  0.5274  0.3808  0.0389
  128MOL   C28041174  -5.009  11.137   8.347  0.3849 -1.1895 -0.2980
  128MOL   C28141175  -4.894  11.066   8.359 -0.5222  0.1573 -0.6520
  128MOL   H28241176  -4.671  10.948   8.396 -1.1194  0.5820  0.6229
  128MOL   H28341177  -4.581  11.062   8.486  0.7127  1.6646 -0.2052
  128MOL   H28441178  -4.675  11.320   8.436  0.5073  2.5631 -1.1323
  128MOL   H28541179  -4.887  11.456   8.396 -0.3805  0.0589 -1.0506
  128MOL   H28641180  -5.114  11.453   8.302  2.4968 -0.1563 -0.1008
  128MOL   H28741181  -5.205  11.303   8.296 -0.2876 -1.5176  2.6973
  128MOL   H28841182  -5.104  11.089   8.325  0.3050 -0.8065 -0.7981
  128MOL   H28941183  -4.895  10.960   8.338 -0.6589  0.3011 -1.3506
  128MOL   C29041184  -5.192  11.387   8.499  0.7299  0.7045  0.2306
  128MOL   C29141185  -5.314  11.476   8.498  1.0162 -0.0963 -0.2380
  128MOL   C29241186  -5.437  11.430   8.452  0.2538  0.8852 -0.8313
  128MOL   C29341187  -5.545  11.515   8.465  0.1438 -1.0961  0.8464
  128MOL   C29441188  -5.545  11.641   8.530  0.4146 -0.2278  0.0065
  128MOL   C29541189  -5.668  11.726   8.539 -0.2514 -0.3739  0.3613
  128MOL   C29641190  -5.419  11.685   8.577 -0.1471  0.0384 -0.0676
  128MOL   C29741191  -5.308  11.602   8.559 -0.3770  0.0819  0.2198
  128MOL   H29841192  -5.114  11.412   8.570  0.2986  1.7795  0.3385
  128MOL   H29941193  -5.230  11.289   8.526 -1.2816  1.8640  1.7179
  128MOL   H30041194  -5.450  11.330   8.413 -0.4696  0.3622  0.7026
  128MOL   H30141195  -5.637  11.468   8.433  0.1668 -0.0206 -0.8961
  128MOL   H30241196  -5.755  11.660   8.538  0.6075 -1.5162 -2.0461
  128MOL   H30341197  -5.674  11.782   8.632  1.4387 -1.2049  0.9820
  128MOL   H30441198  -5.402  11.787   8.607 -1.1290 -0.1274  1.0799
  128MOL   H30541199  -5.212  11.639   8.592 -0.2692  0.0220 -0.0228
  128MOL   C30641200  -5.693  11.813   8.415 -0.4461  0.3026  0.4120
  128MOL   C30741201  -5.808  11.913   8.425  0.9043 -0.7007 -0.0994
  128MOL   C30841202  -5.799  12.024   8.503 -1.0715  0.0673  0.1833
  128MOL   C30941203  -5.902  12.109   8.541 -0.5485 -0.3170  0.1564
  128MOL   C31041204  -6.024  12.091   8.473 -0.6198 -0.1183  0.7364
  128MOL   C31141205  -6.141  12.174   8.512  0.4583 -0.4921 -0.0634
  128MOL   C31241206  -6.041  11.980   8.385 -0.1951  0.0015 -0.0848
  128MOL   C31341207  -5.935  11.892   8.368 -0.1142  0.1761  0.5965
  128MOL   H31441208  -5.707  11.745   8.331  2.0183 -2.0597  1.8754
  128MOL   H31541209  -5.604  11.872   8.394 -0.6039  0.2852 -0.3095
  128MOL   H31641210  -5.704  12.051   8.548 -0.7838 -1.3467  0.4559
  128MOL   H31741211  -5.893  12.194   8.606 -1.9145 -0.7683  0.9375
  128MOL   H31841212  -6.185  12.210   8.419  1.7774  1.5625  0.0774
  128MOL   H31941213  -6.217  12.106   8.549 -0.9821  0.0873 -1.9091
  128MOL   H32041214  -6.138  11.951   8.347  0.3864 -2.3305  0.1548
  128MOL   H32141215  -5.947  11.802   8.309  0.4412 -1.4518  2.8947
  128MOL   H32241216  -6.117  12.255   8.580 -0.6506  0.1767 -0.4655
  129MOL     C141217   5.755   4.058   2.401  0.1057  0.2435  0.3163
  129MOL     C241218   5.902   4.032   2.421 -0.3215 -0.2901 -0.5964
  129MOL     C341219   5.983   4.026   2.312 -0.3578 -0.1662 -0.2316
  129MOL     C441220   6.114   3.974   2.327  0.2802  0.2586 -0.2461
  129MOL     C541221   6.167   3.967   2.453  1.1064 -0.1466 -0.7833
  129MOL     C641222   6.315   3.939   2.471 -0.0599  0.1917 -0.1780
  129MOL     C741223   6.090   3.992   2.569 -0.0933 -0.2552 -0.2059
  129MOL     C841224   5.952   4.024   2.550  0.0414  0.2153  0.3984
  129MOL     H941225   5.739   4.163   2.373 -2.7885 -0.2362 -0.0153
  129MOL    H1041226   5.712   3.990   2.328 -0.3394  0.1978  0.6214
  129MOL    H1141227   5.934   4.041   2.217 -0.7267 -1.7218 -0.2996
  129MOL    H1241228   6.176   3.951   2.242 -1.7915  0.9951 -2.0143
  129MOL    H1341229   6.373   3.975   2.387  0.6456  0.9742  0.6313
  129MOL    H1441230   6.364   3.989   2.554  0.4838 -2.1748  0.9881
  129MOL    H1541231   6.135   4.002   2.667  0.7406  0.2623 -0.6372
  129MOL    H1641232   5.893   4.037   2.639 -1.6186  3.7322 -1.0981
  129MOL    H1741233   5.699   4.041   2.493  1.0932 -2.0690  0.5176
  129MOL    C1841234   6.345   3.793   2.500  0.5392  0.3226  0.2417
  129MOL    C1941235   6.494   3.768   2.515 -0.3869  0.1304 -0.2808
  129MOL    C2041236   6.565   3.704   2.411 -0.5725  0.4765 -0.4404
  129MOL    C2141237   6.703   3.691   2.423  0.0683 -0.3758 -0.0840
  129MOL    C2241238   6.767   3.735   2.540 -0.7120 -0.4950  0.2877
  129MOL    C2341239   6.915   3.709   2.561  0.3469 -0.3660 -0.0852
  129MOL    C2441240   6.696   3.799   2.638  0.1942 -0.1429 -0.2243
  129MOL    C2541241   6.556   3.822   2.632  0.0885 -0.3406 -0.2294
  129MOL    H2641242   6.287   3.769   2.589 -1.5914  2.3829 -0.5576
  129MOL    H2741243   6.305   3.722   2.427  1.4049  0.9139 -0.8236
  129MOL    H2841244   6.513   3.676   2.321 -0.9529  0.5384 -0.2408
  129MOL    H2941245   6.771   3.642   2.356 -0.2945  0.2291 -0.9057
  129MOL    H3041246   6.967   3.800   2.588 -1.7536  0.8935 -0.1895
  129MOL    H3141247   6.957   3.690   2.463  0.0610 -0.4785 -0.1858
  129MOL    H3241248   6.753   3.836   2.722 -0.5297 -1.0224  0.6506
  129MOL    H3341249   6.495   3.869   2.708  2.2208  0.4517  1.0071
  129MOL    C3441250   6.945   3.579   2.653 -0.1639 -0.9034 -0.1345
  129MOL    C3541251   7.090   3.581   2.695 -0.2006  0.7521 -0.1103
  129MOL    C3641252   7.186   3.501   2.626  0.0203  0.1086 -0.4716
  129MOL    C3741253   7.317   3.496   2.682 -0.3969  0.0656 -0.1135
  129MOL    C3841254   7.351   3.570   2.801  0.7809 -0.0493 -0.3724
  129MOL    C3941255   7.497   3.573   2.852  1.0319  0.7604 -0.0382
  129MOL    C4041256   7.257   3.655   2.857  0.9043  0.2383  0.0850
  129MOL    C4141257   7.125   3.655   2.809  0.6693  0.3102 -0.5969
  129MOL    H4241258   6.908   3.482   2.620  1.3784 -1.3461 -0.6111
  129MOL    H4341259   6.895   3.589   2.749 -0.9464  2.3158 -0.8404
  129MOL    H4441260   7.158   3.448   2.536 -1.6947 -0.1430  0.1780
  129MOL    H4541261   7.392   3.439   2.629 -0.8699 -1.5442  0.9192
  129MOL    H4641262   7.561   3.618   2.777 -1.2873  2.1580 -1.2489
  129MOL    H4741263   7.495   3.637   2.940  0.1809  1.2528 -0.4045
  129MOL    H4841264   7.286   3.723   2.935 -1.8032  1.1485  0.3428
  129MOL    H4941265   7.052   3.726   2.845  2.0442  1.0404  0.8166
  129MOL    C5041266   7.562   3.439   2.888  0.3515 -0.1055  0.4286
  129MOL    C5141267   7.714   3.441   2.921  0.2306 -0.6729  0.3185
  129MOL    C5241268   7.763   3.516   3.025 -0.1461  0.2024 -0.4352
  129MOL    C5341269   7.899   3.518   3.055  0.2801 -0.1639  0.1986
  129MOL    C5441270   7.984   3.435   2.983 -0.1586 -0.4441  0.4395
  129MOL    C5541271   8.128   3.435   3.019 -0.1017 -0.2286  0.4925
  129MOL    C5641272   7.932   3.348   2.891 -0.3086  0.0745 -0.0796
  129MOL    C5741273   7.799   3.349   2.857  0.6976 -0.2446 -0.4439
  129MOL    H5841274   7.528   3.367   2.813 -0.4005  0.5639  0.1193
  129MOL    H5941275   7.501   3.410   2.973  0.5244  0.7925  0.8577
  129MOL    H6041276   7.691   3.576   3.079 -2.0349 -2.3945  0.0603
  129MOL    H6141277   7.928   3.578   3.139  0.3802  0.0177  0.0357
  129MOL    H6241278   8.183   3.468   2.931 -0.6167  2.1430  1.0139
  129MOL    H6341279   8.148   3.506   3.100  0.7835  1.4303 -1.1252
  129MOL    H6441280   7.997   3.273   2.847 -1.5034 -0.7072 -0.5300
  129MOL    H6541281   7.757   3.274   2.792 -1.6814 -1.2297  2.0990
  129MOL    C6641282   8.171   3.297   3.076 -0.4926  0.2060  0.3892
  129MOL    C6741283   8.320   3.301   3.108 -0.3202 -0.6256 -0.2658
  129MOL    C6841284   8.363   3.377   3.217  0.1721 -0.0867 -0.0049
  129MOL    C6941285   8.497   3.382   3.260 -0.4980  0.0177  0.6323
  129MOL    C7041286   8.595   3.314   3.189 -0.2998 -0.4171 -0.4554
  129MOL    C7141287   8.733   3.306   3.240 -0.0820  0.6540 -0.0897
  129MOL    C7241288   8.552   3.230   3.082  0.0886 -0.2065 -0.3820
  129MOL    C7341289   8.415   3.221   3.046 -0.1628 -0.0880  0.4953
  129MOL    H7441290   8.160   3.213   3.007  0.8051  0.7630 -0.5036
  129MOL    H7541291   8.104   3.279   3.161  0.1876  2.7080  1.5007
  129MOL    H7641292   8.288   3.435   3.267 -0.3727 -1.5380  0.9091
  129MOL    H7741293   8.520   3.439   3.349 -0.3034  0.9625 -0.0156
  129MOL    H7841294   8.752   3.398   3.295 -1.9007  1.7159 -1.1975
  129MOL    H7941295   8.796   3.314   3.151 -0.5402  1.2461 -0.3637
  129MOL    H8041296   8.625   3.168   3.031  1.1423  2.3296 -2.1095
  129MOL    H8141297   8.385   3.149   2.971 -1.1423  2.4810 -1.6752
  129MOL    C8241298   8.771   3.174   3.312  0.4201  0.2355  0.3361
  129MOL    C8341299   8.920   3.161   3.335  0.8476 -0.1659  0.3882
  129MOL    C8441300   8.970   3.243   3.437  0.0159 -0.3205 -0.8073
  129MOL    C8541301   9.105   3.244   3.467 -0.1608 -0.3905  0.1002
  129MOL    C8641302   9.184   3.158   3.387  0.0528  0.1715  0.0435
  129MOL    C8741303   9.336   3.150   3.424 -0.6024 -0.2956  0.8422
  129MOL    C8841304   9.135   3.080   3.279 -0.5774 -0.5286 -0.3552
  129MOL    C8941305   9.002   3.072   3.256  0.5212  0.4868 -0.2200
  129MOL    H9041306   8.744   3.087   3.252 -1.3486  2.1160 -1.6613
  129MOL    H9141307   8.718   3.167   3.407 -0.7512 -1.8534 -0.4238
  129MOL    H9241308   8.909   3.317   3.486 -0.2125 -0.5162 -0.7928
  129MOL    H9341309   9.150   3.314   3.536 -0.7773  0.5862 -0.4838
  129MOL    H9441310   9.395   3.234   3.387 -3.2970  1.0811 -0.4253
  129MOL    H9541311   9.372   3.052   3.392  0.6107  0.5306 -0.3717
  129MOL    H9641312   9.210   3.027   3.222  0.8223 -1.2556  2.1046
  129MOL    H9741313   8.971   3.013   3.171  1.7200  0.8203 -0.8996
  129MOL    C9841314   9.357   3.134   3.576 -0.1839 -0.1973  0.1800
  129MOL    C9941315   9.509   3.106   3.606  0.5289 -0.3393  0.0522
  129MOL   C10041316   9.597   3.207   3.580 -0.1020  0.8922 -0.2052
  129MOL   C10141317   9.733   3.197   3.605 -0.4687 -0.0873 -0.6175
  129MOL   C10241318   9.777   3.080   3.678  0.4335 -0.3406  0.0121
  129MOL   C10341319   9.921   3.078   3.728 -0.4901  0.2007 -0.0327
  129MOL   C10441320   9.682   2.982   3.716 -0.4660  0.4578 -0.2023
  129MOL   C10541321   9.550   2.986   3.670 -0.1450 -0.5177  0.3276
  129MOL   H10641322   9.292   3.056   3.615 -3.3561  1.6302 -1.2608
  129MOL   H10741323   9.328   3.221   3.635  1.0379  1.1390 -1.1518
  129MOL   H10841324   9.568   3.300   3.533 -1.6696  0.5684  0.0991
  129MOL   H10941325   9.789   3.286   3.581  1.0207 -0.8070  0.1157
  129MOL   H11041326   9.983   3.129   3.655  1.1107 -1.2116  0.3120
  129MOL   H11141327   9.923   3.139   3.819  1.4369  0.8371 -0.4957
  129MOL   H11241328   9.704   2.897   3.778 -0.5003  1.4145  1.1393
  129MOL   H11341329   9.479   2.907   3.693 -3.7254  2.3143 -0.5197
  129MOL   C11441330   9.988   2.938   3.752  0.2968 -0.1135  0.2743
  129MOL   C11541331  10.126   2.948   3.824 -0.0681  0.4503  0.1250
  129MOL   C11641332  10.139   2.886   3.951 -0.2350 -0.1425  0.5416
  129MOL   C11741333  10.263   2.889   4.022  0.2369 -0.4705 -0.0795
  129MOL   C11841334  10.373   2.965   3.965 -0.4493 -0.0150 -0.1318
  129MOL   C11941335  10.497   2.990   4.058  0.3253  0.3266  0.2315
  129MOL   C12041336  10.365   3.021   3.836  0.0618  0.0661  0.2379
  129MOL   C12141337  10.241   3.004   3.768 -0.5647  0.0677 -0.0572
  129MOL   H12241338   9.991   2.907   3.648 -0.0895  3.8809 -1.0127
  129MOL   H12341339   9.927   2.869   3.810  1.4267 -0.4757  1.0486
  129MOL   H12441340  10.063   2.822   3.993  0.7226 -1.0186  0.9761
  129MOL   H12541341  10.273   2.839   4.118 -2.6177 -1.7344 -0.3871
  129MOL   H12641342  10.484   3.029   4.159  0.7149 -0.2290  0.4974
  129MOL   H12741343  10.547   2.895   4.076  1.5706  0.8074 -0.6296
  129MOL   H12841344  10.448   3.082   3.804  0.7444 -1.8770 -1.8173
  129MOL   H12941345  10.240   3.052   3.671 -0.0284 -1.0923 -0.6474
  129MOL   C13041346  10.602   3.085   4.000  0.5004 -0.0279  0.2581
  129MOL   C13141347  10.704   3.116   4.104  0.3330 -0.2269  0.7009
  129MOL   C13241348  10.717   3.234   4.173 -0.6496  0.2616 -0.1163
  129MOL   C13341349  10.827   3.255   4.256 -0.2568  0.0166 -0.0684
  129MOL   C13441350  10.936   3.160   4.265  0.5416 -0.8694 -0.1669
  129MOL   C13541351  11.056   3.184   4.361 -0.7779  0.4451  0.1026
  129MOL   C13641352  10.917   3.039   4.200  0.0160 -0.4855 -0.5416
  129MOL   C13741353  10.803   3.015   4.123  0.4856 -0.2044  0.3617
  129MOL   H13841354  10.543   3.172   3.971 -0.7888 -1.0256 -0.1922
  129MOL   H13941355  10.644   3.037   3.912  0.6662  0.3057  0.1568
  129MOL   H14041356  10.644   3.313   4.159 -1.5818 -0.3890  0.9888
  129MOL   H14141357  10.842   3.348   4.310 -0.6375 -1.4963  2.7713
  129MOL   H14241358  11.146   3.201   4.301 -0.4445 -1.8882 -0.0964
  129MOL   H14341359  11.039   3.266   4.431  0.4385  0.4267  0.4439
  129MOL   H14441360  10.987   2.957   4.200 -0.3399 -0.7960  1.1990
  129MOL   H14541361  10.801   2.917   4.078  1.0063 -0.2218  0.3792
  129MOL   C14641362  11.082   3.057   4.452 -0.2275 -0.1642  0.1454
  129MOL   C14741363  11.193   3.092   4.549 -0.5163 -0.1783 -0.2346
  129MOL   C14841364  11.323   3.077   4.509 -0.4112  0.4240 -0.3647
  129MOL   C14941365  11.426   3.093   4.605 -0.7830  0.1811 -0.1017
  129MOL   C15041366  11.403   3.133   4.739  0.5305  0.0674 -0.0380
  129MOL   C15141367  11.531   3.167   4.818  1.1484  0.2574  0.0852
  129MOL   C15241368  11.269   3.155   4.780  0.4408  0.0358 -0.1768
  129MOL   C15341369  11.166   3.125   4.684  0.1780 -0.3433  0.4523
  129MOL   H15441370  11.114   2.964   4.406  0.0996  0.1983 -0.3708
  129MOL   H15541371  10.983   3.030   4.490 -0.9274  1.3263 -0.5480
  129MOL   H15641372  11.342   3.044   4.408 -1.8399  0.1074 -0.5385
  129MOL   H15741373  11.527   3.075   4.572 -1.6942 -1.2304 -2.1989
  129MOL   H15841374  11.550   3.068   4.860 -0.2583 -0.2693 -0.4990
  129MOL   H15941375  11.605   3.197   4.744 -0.0376  1.3369 -0.6823
  129MOL   H16041376  11.241   3.195   4.877  1.4304 -1.6535  0.8372
  129MOL   H16141377  11.060   3.125   4.706  0.4283 -2.2035  1.7708
  129MOL   C16241378  11.532   3.276   4.927  0.1451  0.5112 -0.8464
  129MOL   C16341379  11.429   3.264   5.040  0.0440  0.2436  0.2183
  129MOL   C16441380  11.331   3.367   5.050  0.4080 -0.0564 -0.7981
  129MOL   C16541381  11.232   3.359   5.142 -0.3636 -0.2832  1.6321
  129MOL   C16641382  11.231   3.246   5.223  0.7427 -0.0368 -0.7657
  129MOL   C16741383  11.115   3.221   5.320 -0.3553  0.3472 -0.6686
  129MOL   C16841384  11.326   3.144   5.213 -0.5397  0.4490 -0.7183
  129MOL   C16941385  11.438   3.154   5.129  0.6767 -0.0418  0.0347
  129MOL   H17041386  11.530   3.374   4.880 -0.5608  0.8870 -0.0471
  129MOL   H17141387  11.634   3.269   4.967 -1.0877  0.9877  2.5868
  129MOL   H17241388  11.335   3.452   4.983  2.0745  1.2062  0.8744
  129MOL   H17341389  11.160   3.435   5.170  0.3703  0.2774  1.9949
  129MOL   H17441390  11.106   3.112   5.326 -2.2179  0.5481  0.7304
  129MOL   H17541391  11.150   3.258   5.416 -0.3783 -1.2303 -0.0436
  129MOL   H17641392  11.319   3.066   5.287  1.7256  0.4270 -0.5166
  129MOL   H17741393  11.511   3.076   5.116  1.0820  0.2355  0.6016
  129MOL   C17841394  10.984   3.281   5.281  0.1973  0.3474  0.1488
  129MOL   C17941395  10.869   3.246   5.379 -0.2051 -0.0418 -0.1414
  129MOL   C18041396  10.864   3.313   5.505  0.2319 -0.1314 -0.1607
  129MOL   C18141397  10.756   3.290   5.594  0.0369  0.1223 -0.3548
  129MOL   C18241398  10.659   3.196   5.560  0.2749  0.0835 -0.3071
  129MOL   C18341399  10.546   3.170   5.661 -0.7559 -0.5488 -0.5971
  129MOL   C18441400  10.664   3.126   5.438 -0.4352  0.5038  0.0102
  129MOL   C18541401  10.769   3.148   5.346  0.0419  0.3698  0.4843
  129MOL   H18641402  10.966   3.241   5.182 -1.8530 -1.6432  1.2691
  129MOL   H18741403  10.993   3.390   5.280  1.3534  0.2880  2.1802
  129MOL   H18841404  10.934   3.391   5.530 -1.9191  1.4240  1.2665
  129MOL   H18941405  10.741   3.346   5.686  1.7549 -1.5658  0.9943
  129MOL   H19041406  10.553   3.246   5.739 -1.2512 -1.7980  0.6988
  129MOL   H19141407  10.457   3.202   5.607  0.3847  4.0192  0.0500
  129MOL   H19241408  10.574   3.070   5.418 -0.7101  1.7602 -2.3574
  129MOL   H19341409  10.762   3.087   5.257 -3.5732  0.8019  0.4165
  129MOL   C19441410  10.543   3.031   5.709  0.1629  0.2707 -0.3010
  129MOL   C19541411  10.440   3.025   5.806  0.0189  0.6970 -0.5343
  129MOL   C19641412  10.453   3.085   5.932 -0.5737  0.2395 -1.2063
  129MOL   C19741413  10.357   3.070   6.035 -0.9793 -0.5192  0.4120
  129MOL   C19841414  10.234   3.013   6.008 -0.2918 -0.5966  0.0613
  129MOL   C19941415  10.124   3.006   6.113  0.3307 -0.0551 -0.2235
  129MOL   C20041416  10.212   2.962   5.878  1.4482  0.0819 -0.9838
  129MOL   C20141417  10.310   2.968   5.781 -0.4612 -0.5465 -0.0266
  129MOL   H20241418  10.631   3.003   5.767 -0.1812  3.6578  1.9588
  129MOL   H20341419  10.528   2.953   5.634 -2.5681  0.8543 -0.4205
  129MOL   H20441420  10.551   3.124   5.955 -0.7145 -0.8631  1.4016
  129MOL   H20541421  10.373   3.108   6.135  0.4532 -2.9938  1.1611
  129MOL   H20641422  10.040   2.983   6.048  0.1575 -0.2394  0.0658
  129MOL   H20741423  10.132   2.921   6.181 -0.0050 -1.2381 -1.6395
  129MOL   H20841424  10.114   2.919   5.859  1.3699 -0.6425  0.9202
  129MOL   H20941425  10.288   2.931   5.682  1.1743 -1.4075 -0.0863
  129MOL   C21041426  10.102   3.131   6.193 -0.6618  0.8214 -0.8647
  129MOL   C21141427   9.964   3.158   6.236  0.0053  0.6123 -0.1478
  129MOL   C21241428   9.859   3.178   6.146 -0.0730  0.1272 -0.2851
  129MOL   C21341429   9.727   3.177   6.198 -0.5193 -0.8887  0.1673
  129MOL   C21441430   9.706   3.183   6.339 -0.2133  0.3557  0.5359
  129MOL   C21541431   9.568   3.213   6.399 -0.4269 -0.5875  0.1914
  129MOL   C21641432   9.812   3.166   6.426  0.0194 -0.2752  0.3190
  129MOL   C21741433   9.944   3.163   6.376 -0.5932 -0.2367 -0.3784
  129MOL   H21841434  10.132   3.215   6.130 -2.1500  1.7558 -0.3658
  129MOL   H21941435  10.169   3.143   6.278 -1.3117  2.2125 -0.5177
  129MOL   H22041436   9.882   3.182   6.041 -0.4221 -0.3377 -0.3758
  129MOL   H22141437   9.640   3.195   6.136 -0.4097  1.9157  0.7343
  129MOL   H22241438   9.486   3.162   6.347 -0.6507  0.5309 -0.5689
  129MOL   H22341439   9.560   3.177   6.501  1.4951  1.5958  1.1337
  129MOL   H22441440   9.800   3.184   6.532 -2.4234  0.7547 -0.0801
  129MOL   H22541441  10.025   3.164   6.447 -0.5004  1.6550 -0.4693
  129MOL   C22641442   9.525   3.365   6.397  0.0195 -0.1247  0.2008
  129MOL   C22741443   9.379   3.390   6.419  0.2990 -0.3002  0.5683
  129MOL   C22841444   9.290   3.359   6.311  0.6643  0.1502 -0.1077
  129MOL   C22941445   9.152   3.376   6.325 -0.3118 -0.3089 -0.7979
  129MOL   C23041446   9.103   3.424   6.452 -0.3393  0.2835  0.5172
  129MOL   C23141447   8.955   3.422   6.473 -0.1664  0.0886  0.2024
  129MOL   C23241448   9.194   3.467   6.554  0.1651  0.4669  0.0582
  129MOL   C23341449   9.331   3.447   6.538 -0.1930  0.4967 -0.1689
  129MOL   H23441450   9.539   3.399   6.295 -3.3352  1.7157  0.2864
  129MOL   H23541451   9.591   3.420   6.464 -1.4511  0.7723  0.9372
  129MOL   H23641452   9.334   3.310   6.225  0.5073  0.3589 -0.3050
  129MOL   H23741453   9.083   3.346   6.247 -1.0827 -0.4481 -0.0707
  129MOL   H23841454   8.908   3.378   6.385 -0.0302 -1.3822  0.8617
  129MOL   H23941455   8.935   3.367   6.564  1.7317 -2.1010 -0.6609
  129MOL   H24041456   9.157   3.492   6.652 -1.5135  1.1333 -0.7340
  129MOL   H24141457   9.400   3.487   6.611 -1.1162  1.7254  0.0397
  129MOL   C24241458   8.893   3.565   6.470  0.5734 -0.3316 -0.3261
  129MOL   C24341459   8.743   3.561   6.506  0.1442 -0.1323 -0.2469
  129MOL   C24441460   8.694   3.620   6.624  0.5650  0.5180  0.2240
  129MOL   C24541461   8.555   3.636   6.656 -0.3101  0.4369 -0.0171
  129MOL   C24641462   8.464   3.578   6.564  0.2056 -0.2542 -0.4651
  129MOL   C24741463   8.317   3.577   6.608 -0.4237 -0.2161  0.0609
  129MOL   C24841464   8.505   3.522   6.442 -0.3637 -0.0426  0.3955
  129MOL   C24941465   8.645   3.517   6.412  0.8615  0.6107 -0.0930
  129MOL   H25041466   8.951   3.627   6.537 -2.3949 -0.3970  2.4534
  129MOL   H25141467   8.906   3.603   6.369  2.9525  0.0356  0.0956
  129MOL   H25241468   8.764   3.666   6.691  3.1891  1.2180 -2.8743
  129MOL   H25341469   8.522   3.671   6.752  2.8075  0.1070  1.2314
  129MOL   H25441470   8.264   3.503   6.547 -0.2134 -0.7430  0.5170
  129MOL   H25541471   8.307   3.536   6.708 -1.9566 -0.5285 -0.1998
  129MOL   H25641472   8.432   3.477   6.376 -0.9941 -0.5348  1.4174
  129MOL   H25741473   8.669   3.486   6.312  0.9665  1.6474 -0.3936
  129MOL   C25841474   8.261   3.718   6.599  0.3964  0.6193 -0.1215
  129MOL   C25941475   8.111   3.723   6.639 -0.2090 -0.7244  0.4808
  129MOL   C26041476   8.083   3.749   6.778 -0.5420 -0.4207 -0.9676
  129MOL   C26141477   7.951   3.766   6.819 -0.2903 -0.0765  0.0851
  129MOL   C26241478   7.846   3.749   6.727  0.6338 -0.9786  0.0389
  129MOL   C26341479   7.700   3.753   6.775  0.1964  0.2001  0.0427
  129MOL   C26441480   7.877   3.715   6.587 -0.2744 -0.1595 -0.2662
  129MOL   C26541481   8.009   3.710   6.543  0.1683  0.0213  0.2429
  129MOL   H26641482   8.267   3.757   6.498 -0.0154 -2.0662 -1.2271
  129MOL   H26741483   8.318   3.784   6.664  0.8303  0.8320 -0.7222
  129MOL   H26841484   8.167   3.769   6.843 -1.7775 -0.5971  0.7057
  129MOL   H26941485   7.922   3.793   6.920  0.2552 -0.0785  0.2435
  129MOL   H27041486   7.654   3.655   6.764 -1.5542  0.8734  1.0547
  129MOL   H27141487   7.693   3.765   6.884 -1.3531 -2.7491  0.3301
  129MOL   H27241488   7.798   3.703   6.516  1.0178  2.0714 -2.1531
  129MOL   H27341489   8.033   3.694   6.439 -1.0991 -0.2467 -0.0121
  129MOL   C27441490   7.625   3.871   6.711 -0.2425  0.0262  0.5431
  129MOL   C27541491   7.484   3.883   6.766  0.0366  0.0564  1.2182
  129MOL   C27641492   7.376   3.846   6.680  0.0098 -0.7156 -0.1387
  129MOL   C27741493   7.247   3.864   6.731 -0.8451  0.4406 -0.0963
  129MOL   C27841494   7.222   3.903   6.866 -0.4072  0.3012 -0.1376
  129MOL   C27941495   7.083   3.906   6.917 -0.6862  0.5863  0.0123
  129MOL   C28041496   7.334   3.930   6.950 -0.5147  0.5519  0.4829
  129MOL   C28141497   7.465   3.927   6.897 -0.0057  0.2879 -0.2517
  129MOL   H28241498   7.695   3.950   6.741  0.3116 -0.3149  0.1603
  129MOL   H28341499   7.639   3.866   6.603  0.7708  0.1482  0.6596
  129MOL   H28441500   7.393   3.826   6.575  1.7161  0.7571 -0.1723
  129MOL   H28541501   7.156   3.848   6.676 -0.1762  0.1078 -1.1103
  129MOL   H28641502   7.031   3.828   6.863 -2.1884  0.1729  1.9870
  129MOL   H28741503   7.079   3.896   7.026 -1.6196 -0.0183 -0.0782
  129MOL   H28841504   7.320   3.955   7.054 -2.2218  0.9807  0.1790
  129MOL   H28941505   7.555   3.947   6.953  0.4667  0.0734 -0.9270
  129MOL   C29041506   7.020   4.042   6.894  0.2849  0.3564 -0.9576
  129MOL   C29141507   6.881   4.053   6.961  0.1157  0.6485 -0.2357
  129MOL   C29241508   6.866   4.092   7.095 -0.0942  0.6995  0.7119
  129MOL   C29341509   6.736   4.103   7.149  1.2291 -0.5716  0.2109
  129MOL   C29441510   6.620   4.082   7.067  0.2035 -0.1683  1.1017
  129MOL   C29541511   6.484   4.090   7.125 -0.1859 -0.3918 -0.1242
  129MOL   C29641512   6.633   4.046   6.934 -0.2168 -0.2644 -0.0469
  129MOL   C29741513   6.765   4.028   6.882  0.2433  0.3255  0.0880
  129MOL   H29841514   7.018   4.066   6.787  0.4713 -0.5664 -1.1674
  129MOL   H29941515   7.091   4.115   6.932  1.2420 -2.4923  3.0245
  129MOL   H30041516   6.947   4.112   7.163  1.8013  0.8699 -1.5617
  129MOL   H30141517   6.727   4.127   7.254 -1.2620 -2.7542  0.5600
  129MOL   H30241518   6.428   4.004   7.088  0.2540 -0.4143 -0.7442
  129MOL   H30341519   6.488   4.085   7.234  2.0333 -1.3322 -0.2274
  129MOL   H30441520   6.547   4.050   6.868 -1.8243  1.8296  2.1109
  129MOL   H30541521   6.773   4.002   6.777 -2.4419 -0.2330 -0.0243
  129MOL   C30641522   6.406   4.210   7.077  0.3869 -0.4654 -0.1585
  129MOL   C30741523   6.260   4.199   7.120 -0.8930  1.1734  0.3386
  129MOL   C30841524   6.220   4.238   7.250  0.0811  0.1064  0.1122
  129MOL   C30941525   6.083   4.225   7.300 -0.7644 -0.9899  0.0940
  129MOL   C31041526   5.986   4.187   7.208  0.3734 -0.4134  0.0244
  129MOL   C31141527   5.845   4.181   7.254  0.1218  0.3780  0.2824
  129MOL   C31241528   6.020   4.160   7.073 -0.0929 -0.4696 -0.2764
  129MOL   C31341529   6.152   4.161   7.030  0.2059  0.5038  0.1747
  129MOL   H31441530   6.408   4.224   6.969  2.4302 -0.4042 -0.1192
  129MOL   H31541531   6.450   4.300   7.119  0.5606 -0.7968  0.3675
  129MOL   H31641532   6.297   4.260   7.322  0.9957 -1.7689 -0.2489
  129MOL   H31741533   6.066   4.252   7.403 -1.7486 -1.9496  0.1895
  129MOL   H31841534   5.829   4.076   7.278 -0.2279  0.2726 -0.4067
  129MOL   H31941535   5.832   4.232   7.350  1.5706  0.0933  0.6373
  129MOL   H32041536   5.938   4.126   7.011  1.4160 -0.3480 -2.4126
  129MOL   H32141537   6.176   4.121   6.933 -0.4730 -1.0532  0.6333
  129MOL   H32241538   5.770   4.218   7.185 -0.1709 -0.5955  0.0879
  130MOL     C141539   5.324   0.869   5.665  0.5053  0.2287 -0.1141
  130MOL     C241540   5.176   0.884   5.638  0.7814  0.6422 -0.6552
  130MOL     C341541   5.132   1.019   5.633  0.6562  0.3562  0.0280
  130MOL     C441542   4.995   1.047   5.612 -0.3836 -0.2733 -0.0943
  130MOL     C541543   4.895   0.944   5.610 -0.3239 -0.6996 -0.7824
  130MOL     C641544   4.746   0.978   5.600  0.0194 -0.4686 -0.2929
  130MOL     C741545   4.944   0.812   5.607  0.1288  0.0197  0.3249
  130MOL     C841546   5.083   0.776   5.624  0.3657 -0.2887 -0.2596
  130MOL     H941547   5.339   0.921   5.760 -0.6219  1.4215 -0.5699
  130MOL    H1041548   5.355   0.765   5.657 -0.9110 -0.1527 -0.7703
  130MOL    H1141549   5.198   1.100   5.660  0.4095  0.0091  1.7917
  130MOL    H1241550   4.961   1.149   5.618  0.4368 -0.0546  1.1007
  130MOL    H1341551   4.741   1.067   5.536 -1.6265 -0.3864 -0.0645
  130MOL    H1441552   4.709   0.891   5.546  0.7422 -1.2041  0.4035
  130MOL    H1541553   4.873   0.731   5.600 -1.0352  0.9018  1.6144
  130MOL    H1641554   5.120   0.676   5.640 -1.1326 -1.0379 -1.4535
  130MOL    H1741555   5.388   0.923   5.595  0.1732 -1.4167 -1.7318
  130MOL    C1841556   4.665   0.994   5.727 -0.7472 -0.1294  0.3259
  130MOL    C1941557   4.524   1.049   5.708 -0.0706 -0.0141  0.7686
  130MOL    C2041558   4.501   1.187   5.725 -0.5351  0.4585 -0.4623
  130MOL    C2141559   4.376   1.237   5.705 -0.0946  0.2528  0.1662
  130MOL    C2241560   4.265   1.159   5.665  0.7957  0.0565 -0.3742
  130MOL    C2341561   4.123   1.221   5.652  0.4201  0.4199 -0.1241
  130MOL    C2441562   4.287   1.016   5.650  0.0034 -0.2960  0.0090
  130MOL    C2541563   4.416   0.964   5.673 -0.5668  0.0991  0.3316
  130MOL    H2641564   4.660   0.895   5.772 -1.5860 -0.9756 -1.5747
  130MOL    H2741565   4.712   1.044   5.812 -0.6855  0.2423  0.0743
  130MOL    H2841566   4.576   1.253   5.768 -0.1080  0.1131 -0.6730
  130MOL    H2941567   4.356   1.342   5.723  0.3593  0.1804  1.1461
  130MOL    H3041568   4.122   1.244   5.545  0.1395 -1.9644 -0.6518
  130MOL    H3141569   4.115   1.312   5.713 -3.3080 -0.6088  1.0621
  130MOL    H3241570   4.215   0.942   5.620  0.0081 -1.3032  2.4076
  130MOL    H3341571   4.423   0.857   5.657  1.2442  0.2155  0.2596
  130MOL    C3441572   4.008   1.129   5.691  0.2565 -0.3183  0.5380
  130MOL    C3541573   3.864   1.181   5.670 -0.4250  0.8926  0.6631
  130MOL    C3641574   3.775   1.181   5.776 -0.0207 -0.7430 -0.2148
  130MOL    C3741575   3.636   1.201   5.753  0.4047  0.3598 -0.1244
  130MOL    C3841576   3.581   1.226   5.625  0.1471 -0.0088 -0.0849
  130MOL    C3941577   3.429   1.251   5.609  0.3726  0.2807 -0.1688
  130MOL    C4041578   3.674   1.218   5.514 -0.1115 -0.2016 -0.3230
  130MOL    C4141579   3.816   1.207   5.537 -0.0722  0.6194 -0.7416
  130MOL    H4241580   4.027   1.099   5.794 -1.4176 -0.2625  0.8728
  130MOL    H4341581   4.012   1.029   5.649 -1.4143 -0.8462  1.6176
  130MOL    H4441582   3.806   1.161   5.877 -0.5941 -1.2896 -0.1469
  130MOL    H4541583   3.576   1.192   5.842 -2.1425 -1.5752 -1.9613
  130MOL    H4641584   3.397   1.174   5.538 -1.2269  1.5767 -0.9112
  130MOL    H4741585   3.369   1.216   5.693 -0.2598  0.4614 -0.5377
  130MOL    H4841586   3.642   1.231   5.411 -1.2452  0.8902  0.1519
  130MOL    H4941587   3.884   1.195   5.453  2.6205  2.6069  1.0903
  130MOL    C5041588   3.393   1.384   5.552 -0.1264 -0.1273 -0.2830
  130MOL    C5141589   3.241   1.392   5.528 -0.2768  0.6148 -0.4203
  130MOL    C5241590   3.152   1.449   5.619  0.1126 -0.2817  0.3263
  130MOL    C5341591   3.014   1.471   5.588 -0.6823 -0.0295  0.2737
  130MOL    C5441592   2.963   1.430   5.465 -0.4143  0.5974  0.4541
  130MOL    C5541593   2.817   1.456   5.437  0.4713 -0.0473 -0.5008
  130MOL    C5641594   3.051   1.368   5.372 -0.3096 -0.2330 -0.2758
  130MOL    C5741595   3.191   1.352   5.402 -0.0937 -0.1320  0.1721
  130MOL    H5841596   3.434   1.394   5.452  1.5577 -3.0463  0.0611
  130MOL    H5941597   3.422   1.471   5.611 -1.8657  1.4253 -1.6449
  130MOL    H6041598   3.193   1.476   5.715 -0.4728 -1.3049  0.8665
  130MOL    H6141599   2.954   1.508   5.669 -0.7074  0.7331 -0.0944
  130MOL    H6241600   2.789   1.396   5.351  3.1253 -1.7204 -0.2656
  130MOL    H6341601   2.770   1.424   5.530 -0.0166 -0.7874 -1.0024
  130MOL    H6441602   3.013   1.347   5.274 -2.3550  1.2806  0.1674
  130MOL    H6541603   3.255   1.309   5.326  0.2511  0.2415  0.2509
  130MOL    C6641604   2.797   1.598   5.397  0.0268 -0.4585  0.0712
  130MOL    C6741605   2.660   1.633   5.345  0.7519  0.1741  0.2686
  130MOL    C6841606   2.636   1.735   5.254  0.2393  0.2649  0.3226
  130MOL    C6941607   2.513   1.783   5.224  0.2560 -0.2033  0.8235
  130MOL    C7041608   2.402   1.715   5.277  1.0879 -0.0062 -0.4003
  130MOL    C7141609   2.260   1.762   5.247 -0.1399 -0.1599 -1.0385
  130MOL    C7241610   2.419   1.600   5.355 -0.0058  0.2294  0.0121
  130MOL    C7341611   2.548   1.568   5.395  0.2857  0.0977 -0.1131
  130MOL    H7441612   2.873   1.634   5.327  0.1344 -2.3956 -0.8257
  130MOL    H7541613   2.795   1.661   5.485 -0.6999  1.1355 -1.0594
  130MOL    H7641614   2.726   1.786   5.224  0.9062 -0.3785  1.1892
  130MOL    H7741615   2.504   1.859   5.148  1.0794 -0.1645  0.7616
  130MOL    H7841616   2.203   1.682   5.201 -0.0969  0.2334 -1.7811
  130MOL    H7941617   2.272   1.841   5.172 -1.3812  1.6515  0.6055
  130MOL    H8041618   2.340   1.531   5.379 -1.0253  1.4052  0.0173
  130MOL    H8141619   2.552   1.483   5.462  1.2493  0.6671  0.5582
  130MOL    C8241620   2.198   1.838   5.371  0.1253 -0.4966 -0.1799
  130MOL    C8341621   2.057   1.885   5.348 -1.0291  0.0574  0.1621
  130MOL    C8441622   1.974   1.809   5.261  1.0773 -0.4125 -0.1694
  130MOL    C8541623   1.831   1.842   5.252 -0.4513  0.5832  0.4328
  130MOL    C8641624   1.782   1.955   5.317 -0.0329  0.3726 -0.6022
  130MOL    C8741625   1.637   2.001   5.305  0.6593  0.1953  0.3569
  130MOL    C8841626   1.870   2.028   5.405 -0.2228 -0.5152  0.4045
  130MOL    C8941627   2.006   1.996   5.412 -0.3995  0.4696 -0.5135
  130MOL    H9041628   2.261   1.915   5.413 -0.1181 -0.8358  0.8208
  130MOL    H9141629   2.189   1.759   5.445  1.3662  1.1522  1.7759
  130MOL    H9241630   2.001   1.727   5.197 -0.6944  0.0713 -1.5772
  130MOL    H9341631   1.783   1.784   5.174  1.5920 -1.5116  0.6665
  130MOL    H9441632   1.600   2.037   5.401 -1.2680 -1.5235  0.3081
  130MOL    H9541633   1.577   1.917   5.269  0.1112  1.3813 -1.5947
  130MOL    H9641634   1.833   2.110   5.465  2.4879  0.2665  1.0566
  130MOL    H9741635   2.058   2.059   5.483  0.9071 -1.6121  0.4102
  130MOL    C9841636   1.637   2.112   5.206  0.2471 -0.1438 -0.4136
  130MOL    C9941637   1.510   2.200   5.212  0.8462  0.0434 -0.6278
  130MOL   C10041638   1.512   2.343   5.226  0.1766  0.0851 -0.0538
  130MOL   C10141639   1.395   2.421   5.245 -0.4547 -0.5101  0.2586
  130MOL   C10241640   1.271   2.361   5.247  0.1910 -0.5515 -0.1818
  130MOL   C10341641   1.149   2.443   5.268  0.1174 -0.4187  0.0195
  130MOL   C10441642   1.267   2.224   5.226 -0.6482  0.1808 -0.6122
  130MOL   C10541643   1.382   2.146   5.204 -0.1076 -0.4489 -0.6565
  130MOL   H10641644   1.650   2.077   5.104 -0.4996  1.0192 -0.9109
  130MOL   H10741645   1.727   2.172   5.222 -0.2114  0.9934 -1.9733
  130MOL   H10841646   1.609   2.389   5.223  0.5932 -0.8034 -0.3529
  130MOL   H10941647   1.402   2.529   5.247  1.9383 -0.6463  1.5774
  130MOL   H11041648   1.117   2.411   5.367 -1.5486 -1.7907 -0.9242
  130MOL   H11141649   1.169   2.547   5.292 -0.2654  0.2168 -2.3349
  130MOL   H11241650   1.171   2.173   5.220  0.1769 -1.6194  0.8640
  130MOL   H11341651   1.363   2.040   5.200  2.2096 -0.9663  1.0374
  130MOL   C11441652   1.034   2.437   5.165 -0.4940 -0.1755 -0.1352
  130MOL   C11541653   0.901   2.473   5.223 -0.2431 -0.4167  0.1042
  130MOL   C11641654   0.860   2.605   5.207 -0.0381 -0.9641 -0.2513
  130MOL   C11741655   0.743   2.654   5.272  0.0209 -0.0441  0.9232
  130MOL   C11841656   0.676   2.565   5.365 -0.1816 -0.3140  0.0790
  130MOL   C11941657   0.561   2.620   5.450  1.2059 -0.0577  0.0811
  130MOL   C12041658   0.718   2.431   5.374 -0.1318  0.9132 -0.3722
  130MOL   C12141659   0.832   2.385   5.307  1.1979  0.2033  0.1899
  130MOL   H12241660   1.028   2.334   5.130  0.7642 -0.2473 -0.1671
  130MOL   H12341661   1.058   2.512   5.091 -2.4977  1.8637  1.2062
  130MOL   H12441662   0.921   2.682   5.162 -1.6097  0.9129  0.7873
  130MOL   H12541663   0.718   2.759   5.262 -1.2608 -0.5327 -1.1983
  130MOL   H12641664   0.568   2.581   5.551 -0.6523 -1.2476 -0.2161
  130MOL   H12741665   0.562   2.729   5.448 -2.3719  0.0364 -1.2734
  130MOL   H12841666   0.667   2.362   5.439  0.0575  2.1095  1.1043
  130MOL   H12941667   0.873   2.288   5.331  1.8070  0.3242 -0.3460
  130MOL   C13041668   0.420   2.575   5.398  0.7982  0.2583 -0.2956
  130MOL   C13141669   0.301   2.663   5.436  0.4259  0.2732  0.9906
  130MOL   C13241670   0.298   2.805   5.405  0.3962  0.1019  0.0340
  130MOL   C13341671   0.187   2.883   5.441  0.0972  0.5136  0.7843
  130MOL   C13441672   0.078   2.820   5.503  0.5658  0.4443  0.2407
  130MOL   C13541673  -0.041   2.894   5.556 -0.8139  0.0347  0.1790
  130MOL   C13641674   0.080   2.682   5.525 -0.7136 -1.3851 -0.2913
  130MOL   C13741675   0.192   2.605   5.495  0.1923 -0.8990 -0.0347
  130MOL   H13841676   0.402   2.469   5.411 -2.9549  1.2267  3.3795
  130MOL   H13941677   0.430   2.592   5.290  0.4085 -0.1719 -0.3982
  130MOL   H14041678   0.382   2.859   5.365  0.6067  0.7825  1.3733
  130MOL   H14141679   0.197   2.988   5.416  1.1303  0.4723  0.9942
  130MOL   H14241680  -0.074   2.865   5.656 -1.0111  1.8266  0.6461
  130MOL   H14341681  -0.022   3.001   5.564 -3.0254  0.3911  1.1553
  130MOL   H14441682  -0.007   2.633   5.566 -3.2107 -0.0483 -3.6614
  130MOL   H14541683   0.205   2.505   5.535  0.2542 -0.5682  0.7696
  130MOL   C14641684  -0.161   2.881   5.457  0.7402  0.1736  0.3771
  130MOL   C14741685  -0.286   2.909   5.541  0.7145 -0.0914 -0.4484
  130MOL   C14841686  -0.333   3.044   5.545 -0.6149 -0.0340 -0.2737
  130MOL   C14941687  -0.449   3.070   5.625 -0.6823  0.1801 -0.3751
  130MOL   C15041688  -0.524   2.964   5.683  0.7666  0.0939  0.0142
  130MOL   C15141689  -0.658   3.004   5.743 -0.1402  0.6242 -0.5913
  130MOL   C15241690  -0.479   2.832   5.667 -0.8237  0.3987 -0.5557
  130MOL   C15341691  -0.353   2.805   5.609 -0.3484 -0.4220  0.2039
  130MOL   H15441692  -0.173   2.774   5.444 -2.1677  0.3530  1.2649
  130MOL   H15541693  -0.153   2.934   5.362 -3.0794 -1.3470 -0.8800
  130MOL   H15641694  -0.279   3.124   5.497 -2.6937  0.9108 -1.1026
  130MOL   H15741695  -0.488   3.170   5.636 -0.2551  0.2106  0.9621
  130MOL   H15841696  -0.683   2.962   5.840  0.8268  1.3136 -0.0321
  130MOL   H15941697  -0.664   3.110   5.768 -1.5824  0.6675 -1.0826
  130MOL   H16041698  -0.530   2.752   5.719  0.2743 -1.0537 -1.6732
  130MOL   H16141699  -0.319   2.702   5.601 -1.1035 -0.5307 -1.7102
  130MOL   C16241700  -0.776   2.977   5.646  0.4517 -0.9958  0.4296
  130MOL   C16341701  -0.910   3.033   5.700 -0.2992 -0.5690  0.0018
  130MOL   C16441702  -0.943   3.163   5.665 -0.1965 -0.2733 -1.0726
  130MOL   C16541703  -1.066   3.216   5.704  0.3623 -0.4601  0.0758
  130MOL   C16641704  -1.162   3.131   5.779 -0.5254  0.9218  0.3192
  130MOL   C16741705  -1.288   3.181   5.832  0.5420 -0.1798  0.4446
  130MOL   C16841706  -1.125   3.001   5.812  0.1198 -0.3461 -0.7212
  130MOL   C16941707  -0.999   2.947   5.764 -0.3789 -0.6420 -0.4412
  130MOL   H17041708  -0.786   2.871   5.626  0.5935 -0.8126 -0.6569
  130MOL   H17141709  -0.767   3.005   5.541 -2.8730 -2.8835 -0.4347
  130MOL   H17241710  -0.876   3.217   5.599 -0.6646  1.3437 -0.2574
  130MOL   H17341711  -1.097   3.314   5.671 -3.0295 -1.5939 -0.2635
  130MOL   H17441712  -1.310   3.140   5.930 -1.9413  1.3583  0.5751
  130MOL   H17541713  -1.276   3.288   5.852 -0.2216  0.2169 -1.0926
  130MOL   H17641714  -1.202   2.942   5.861 -0.5497  0.7535 -0.4411
  130MOL   H17741715  -0.967   2.845   5.770 -1.3381 -0.9787 -0.8703
  130MOL   C17841716  -1.398   3.163   5.733  0.0365 -0.4369  0.4704
  130MOL   C17941717  -1.530   3.220   5.782 -0.8437  0.1169 -0.5365
  130MOL   C18041718  -1.638   3.131   5.819  0.0377 -0.9442  0.3777
  130MOL   C18141719  -1.754   3.192   5.855  0.6802  0.1680  0.0515
  130MOL   C18241720  -1.772   3.332   5.860  1.0451 -0.0422  0.5625
  130MOL   C18341721  -1.905   3.394   5.921  0.3613  0.3562  0.2095
  130MOL   C18441722  -1.668   3.416   5.821 -0.1062 -0.0783  0.3357
  130MOL   C18541723  -1.544   3.362   5.782  0.4639  0.0519 -0.0639
  130MOL   H18641724  -1.406   3.057   5.708 -1.0133 -0.5890  1.3832
  130MOL   H18741725  -1.371   3.213   5.640  1.5102 -0.4642  0.8716
  130MOL   H18841726  -1.627   3.024   5.828 -1.8356 -1.1128  0.9681
  130MOL   H18941727  -1.831   3.120   5.879  0.2452  0.1255 -1.4130
  130MOL   H19041728  -1.874   3.460   6.003 -2.1070  0.2920  1.2403
  130MOL   H19141729  -1.935   3.466   5.845 -0.7079 -0.0556  0.2458
  130MOL   H19241730  -1.676   3.523   5.836  1.7594  0.2948 -1.1359
  130MOL   H19341731  -1.468   3.434   5.758  1.3813 -1.0882 -0.6413
  130MOL   C19441732  -2.024   3.305   5.962  0.0886  0.5778  0.3670
  130MOL   C19541733  -2.147   3.387   6.008  0.7619  0.1960 -0.1027
  130MOL   C19641734  -2.154   3.433   6.146  0.7162  0.2003  0.0361
  130MOL   C19741735  -2.261   3.520   6.180 -0.2360 -0.2248  0.4598
  130MOL   C19841736  -2.360   3.555   6.089  0.3657 -0.5509 -0.2485
  130MOL   C19941737  -2.471   3.650   6.136 -0.0083 -0.8528 -0.1704
  130MOL   C20041738  -2.364   3.499   5.962  0.0739  0.4497  0.7178
  130MOL   C20141739  -2.256   3.418   5.917 -0.3021  0.8160  0.1489
  130MOL   H20241740  -1.992   3.238   6.042  1.5091 -1.0761 -1.5371
  130MOL   H20341741  -2.070   3.254   5.878  1.0173  0.4043 -0.0384
  130MOL   H20441742  -2.070   3.400   6.205 -0.3593  1.5351  2.3837
  130MOL   H20541743  -2.266   3.562   6.279  2.0872  0.3977  0.3596
  130MOL   H20641744  -2.435   3.742   6.183  0.1790 -0.6268 -0.7461
  130MOL   H20741745  -2.532   3.665   6.047 -2.4915 -3.0084  1.0983
  130MOL   H20841746  -2.445   3.528   5.897 -0.4695 -2.0707  0.1941
  130MOL   H20941747  -2.253   3.388   5.814 -0.2330  1.0035  0.0962
  130MOL   C21041748  -2.571   3.573   6.225  0.2961  0.2905  0.4317
  130MOL   C21141749  -2.685   3.657   6.276 -0.5694 -0.6780  0.3087
  130MOL   C21241750  -2.740   3.766   6.202 -0.0640 -0.1610  0.4628
  130MOL   C21341751  -2.850   3.843   6.250  0.2648  0.3070  0.0490
  130MOL   C21441752  -2.915   3.804   6.368 -0.6949  0.6377 -0.8096
  130MOL   C21541753  -3.035   3.883   6.415  0.2868 -0.2707  0.0823
  130MOL   C21641754  -2.865   3.694   6.447  0.1109 -0.3501  0.5816
  130MOL   C21741755  -2.750   3.625   6.399  0.3894 -0.0366 -0.6801
  130MOL   H21841756  -2.526   3.541   6.320 -1.4938 -0.3992  1.0650
  130MOL   H21941757  -2.608   3.483   6.177  0.7455  1.4395 -2.1221
  130MOL   H22041758  -2.693   3.795   6.109 -2.8538 -1.5073 -1.4195
  130MOL   H22141759  -2.878   3.924   6.184 -0.2109 -1.0514 -1.4399
  130MOL   H22241760  -3.005   3.917   6.514 -0.7301  0.9873 -0.0278
  130MOL   H22341761  -3.044   3.980   6.366 -2.1070 -2.1472 -3.4043
  130MOL   H22441762  -2.925   3.676   6.535 -1.5561 -0.3160 -0.5104
  130MOL   H22541763  -2.714   3.546   6.464  2.5209 -0.4815 -2.3503
  130MOL   C22641764  -3.172   3.792   6.426 -0.1827  0.5752  0.5297
  130MOL   C22741765  -3.287   3.867   6.490  0.5084 -0.8797 -0.4894
  130MOL   C22841766  -3.350   3.966   6.413  0.4021  0.1542  0.5350
  130MOL   C22941767  -3.465   4.028   6.464  0.1231  0.1056  0.6635
  130MOL   C23041768  -3.511   3.995   6.593  0.0879  0.2040  1.1816
  130MOL   C23141769  -3.627   4.071   6.658  0.1267  0.3028 -0.0596
  130MOL   C23241770  -3.446   3.892   6.666 -0.3853  0.0494 -0.0324
  130MOL   C23341771  -3.332   3.828   6.616 -0.3457  0.2455  0.5388
  130MOL   H23441772  -3.166   3.695   6.475 -0.8606 -0.3776 -1.2304
  130MOL   H23541773  -3.197   3.772   6.322 -0.1590  0.0447  0.6287
  130MOL   H23641774  -3.311   3.997   6.317  1.4026  4.5913  2.2530
  130MOL   H23741775  -3.510   4.108   6.408 -0.0356  0.9034  1.9032
  130MOL   H23841776  -3.703   4.090   6.582 -1.7186 -1.0288  1.3918
  130MOL   H23941777  -3.670   4.004   6.732 -1.9641  1.8719  0.2045
  130MOL   H24041778  -3.480   3.869   6.766  0.0929  1.0091  0.3561
  130MOL   H24141779  -3.282   3.758   6.682 -2.1567 -1.9010 -0.3348
  130MOL   C24241780  -3.576   4.206   6.708 -0.2335 -0.4710  0.4397
  130MOL   C24341781  -3.682   4.300   6.773  0.0641 -0.0508 -0.3952
  130MOL   C24441782  -3.756   4.393   6.696  0.8288 -0.5644  0.4286
  130MOL   C24541783  -3.865   4.462   6.744  0.5976 -0.0469 -1.3047
  130MOL   C24641784  -3.910   4.438   6.876 -0.3891 -0.0556 -0.6753
  130MOL   C24741785  -4.042   4.494   6.930 -0.8229 -0.0032  0.4807
  130MOL   C24841786  -3.831   4.362   6.964  0.6758 -0.4912 -0.5253
  130MOL   C24941787  -3.717   4.292   6.912 -0.4115  0.7341  0.1534
  130MOL   H25041788  -3.496   4.189   6.780  0.7469  0.4321 -0.4115
  130MOL   H25141789  -3.518   4.255   6.630  0.3040 -1.2105  0.3716
  130MOL   H25241790  -3.734   4.402   6.591  2.1426  2.5107  0.8992
  130MOL   H25341791  -3.919   4.533   6.683  1.1406  1.2119 -0.3521
  130MOL   H25441792  -4.114   4.512   6.850 -2.6407 -0.1033  2.0484
  130MOL   H25541793  -4.087   4.418   6.994  0.9187 -0.8063  0.7525
  130MOL   H25641794  -3.851   4.347   7.070 -1.4122  0.4888 -0.7508
  130MOL   H25741795  -3.649   4.236   6.975 -0.0618  1.0586  0.0638
  130MOL   C25841796  -4.028   4.622   7.018  0.1240  0.4059  0.4637
  130MOL   C25941797  -4.168   4.676   7.064  0.2301  0.7546  0.1388
  130MOL   C26041798  -4.239   4.768   6.988 -0.8360  0.6749  0.1819
  130MOL   C26141799  -4.362   4.824   7.033  0.4825 -0.0984  0.1310
  130MOL   C26241800  -4.428   4.763   7.141 -0.2003  0.3472  1.0347
  130MOL   C26341801  -4.575   4.804   7.185  0.2112 -0.0144  0.7095
  130MOL   C26441802  -4.358   4.665   7.218 -0.1273 -0.0674  0.0813
  130MOL   C26541803  -4.226   4.631   7.185  0.1104 -0.6777 -0.2453
  130MOL   H26641804  -3.971   4.696   6.961  0.6731  0.4776  1.0988
  130MOL   H26741805  -3.956   4.608   7.098  2.8486  1.5116 -1.6984
  130MOL   H26841806  -4.197   4.818   6.902 -1.3434  1.3234  0.3048
  130MOL   H26941807  -4.418   4.904   6.987  0.4284  0.2495  0.7980
  130MOL   H27041808  -4.643   4.802   7.100 -1.5694 -2.7886  2.1006
  130MOL   H27141809  -4.614   4.730   7.255 -1.2927  1.8281  1.8549
  130MOL   H27241810  -4.405   4.618   7.304  1.4328  1.6002  1.8969
  130MOL   H27341811  -4.182   4.547   7.237  1.9319 -0.1458 -0.9083
  130MOL   C27441812  -4.591   4.937   7.260 -0.3989 -0.1366 -0.2060
  130MOL   C27541813  -4.727   4.970   7.305 -0.1527 -0.3628  0.4384
  130MOL   C27641814  -4.786   4.909   7.412 -0.1363  0.0092  0.2647
  130MOL   C27741815  -4.920   4.932   7.451  0.4281 -0.2944 -0.3039
  130MOL   C27841816  -5.002   5.026   7.378 -0.1596 -0.6507 -0.1066
  130MOL   C27941817  -5.143   5.047   7.418  0.2102 -0.0114 -0.4078
  130MOL   C28041818  -4.935   5.091   7.275 -0.4848  0.1849 -0.0184
  130MOL   C28141819  -4.802   5.063   7.237 -0.3013  0.0056 -0.1471
  130MOL   H28241820  -4.521   4.950   7.343 -0.2847 -2.8723  0.1639
  130MOL   H28341821  -4.558   5.013   7.190 -2.1450 -0.4083 -1.3615
  130MOL   H28441822  -4.723   4.844   7.472  0.3150  0.0195 -0.1938
  130MOL   H28541823  -4.960   4.871   7.531 -0.6138 -0.2266 -0.7669
  130MOL   H28641824  -5.188   5.116   7.347  0.3897 -1.3505 -1.8462
  130MOL   H28741825  -5.194   4.951   7.423  0.3485 -0.2577 -2.8299
  130MOL   H28841826  -4.991   5.171   7.227 -0.8423  0.2779  0.5409
  130MOL   H28941827  -4.757   5.110   7.151  0.4119  2.9157  1.7538
  130MOL   C29041828  -5.161   5.085   7.567 -0.7022 -0.7526  0.7000
  130MOL   C29141829  -5.304   5.139   7.579  0.6267  0.4609 -0.7587
  130MOL   C29241830  -5.345   5.253   7.520  1.1261 -0.3110  0.2702
  130MOL   C29341831  -5.476   5.296   7.513 -0.3881 -0.2459  0.2391
  130MOL   C29441832  -5.570   5.215   7.577  0.1025 -0.5826 -0.7847
  130MOL   C29541833  -5.713   5.257   7.579  0.0399  0.6619  0.0212
  130MOL   C29641834  -5.531   5.099   7.645  0.2959  0.1052 -0.6660
  130MOL   C29741835  -5.398   5.055   7.642  0.2199 -0.3696 -0.2429
  130MOL   H29841836  -5.081   5.152   7.600  0.8134 -1.8537 -0.6507
  130MOL   H29941837  -5.147   4.998   7.632  3.5267  0.2734  1.3410
  130MOL   H30041838  -5.271   5.301   7.458  0.2937 -0.4937 -0.8688
  130MOL   H30141839  -5.495   5.380   7.448  1.2747 -2.3700 -3.1647
  130MOL   H30241840  -5.736   5.323   7.495 -0.3525 -1.3812 -1.5328
  130MOL   H30341841  -5.787   5.179   7.560 -1.4722  1.7395  1.3674
  130MOL   H30441842  -5.597   5.035   7.701 -1.0709  2.0336 -0.0279
  130MOL   H30541843  -5.372   4.962   7.690  2.1220  0.9323  1.3434
  130MOL   C30641844  -5.751   5.319   7.711  0.0251  0.0495 -0.0591
  130MOL   C30741845  -5.892   5.363   7.717 -0.4497 -0.3162  0.4490
  130MOL   C30841846  -5.974   5.301   7.808  0.3496 -0.0805 -0.4752
  130MOL   C30941847  -6.110   5.348   7.820 -0.4621  0.2090 -0.5514
  130MOL   C31041848  -6.155   5.456   7.751 -0.1838 -0.5522  0.8108
  130MOL   C31141849  -6.303   5.488   7.755  0.3920 -0.1013  0.7088
  130MOL   C31241850  -6.065   5.521   7.665 -0.4838 -0.2701  0.8930
  130MOL   C31341851  -5.935   5.469   7.644  0.3834 -0.4054  0.2935
  130MOL   H31441852  -5.682   5.402   7.726 -1.1710  1.1798 -0.7475
  130MOL   H31541853  -5.735   5.244   7.788 -0.0085  0.7579  0.6465
  130MOL   H31641854  -5.943   5.215   7.867 -0.7707  0.4498  0.9118
  130MOL   H31741855  -6.178   5.293   7.884  1.5773 -1.6256  0.1110
  130MOL   H31841856  -6.338   5.541   7.844 -0.5590  0.5101 -0.0157
  130MOL   H31941857  -6.330   5.563   7.681  0.9985  1.1199  1.7038
  130MOL   H32041858  -6.105   5.610   7.619  1.0485  0.3546  0.7118
  130MOL   H32141859  -5.862   5.531   7.594 -0.5929  1.7012  1.3968
  130MOL   H32241860  -6.355   5.393   7.745  2.3091 -0.9642 -1.6369
  131MOL     C141861   6.480   5.837   4.698 -0.9681  0.2419  0.4261
  131MOL     C241862   6.330   5.834   4.698  0.4592  0.1384  0.5192
  131MOL     C341863   6.253   5.935   4.639 -0.3386  0.4143  0.2095
  131MOL     C441864   6.111   5.927   4.651 -0.0611 -0.1860  0.1961
  131MOL     C541865   6.044   5.834   4.737 -0.5168 -0.6172 -0.4706
  131MOL     C641866   5.893   5.845   4.765 -0.9939  0.1333  0.0935
  131MOL     C741867   6.122   5.733   4.793 -0.2365  0.3521 -0.1656
  131MOL     C841868   6.263   5.733   4.770  0.4653  0.2944 -0.9334
  131MOL     H941869   6.536   5.850   4.790 -1.4437  0.7702  0.6436
  131MOL    H1041870   6.520   5.750   4.645  1.2574  0.8272  1.1221
  131MOL    H1141871   6.284   6.026   4.590 -0.5238  1.2762  1.6638
  131MOL    H1241872   6.066   6.008   4.596 -1.2509  0.0473  1.4901
  131MOL    H1341873   5.846   5.937   4.729  1.5980  0.3336 -3.0478
  131MOL    H1441874   5.846   5.763   4.709  0.4263 -2.1832  2.2148
  131MOL    H1541875   6.081   5.655   4.855  0.4683  0.5317  0.5452
  131MOL    H1641876   6.318   5.655   4.821  0.1540  1.4473  1.2205
  131MOL    H1741877   6.509   5.924   4.640  3.1433 -0.6094  1.0714
  131MOL    C1841878   5.863   5.830   4.912  0.1612  0.2565  0.4901
  131MOL    C1941879   5.724   5.868   4.936 -0.2465  0.1385  0.6918
  131MOL    C2041880   5.626   5.768   4.946  1.2961  0.7103 -0.6275
  131MOL    C2141881   5.493   5.802   4.980 -0.1518 -0.1879  0.5277
  131MOL    C2241882   5.458   5.935   5.007  0.4816 -0.0376  0.4632
  131MOL    C2341883   5.311   5.969   5.045 -0.1426 -0.1321  0.5159
  131MOL    C2441884   5.562   6.030   5.015 -0.0896  0.4651  0.2110
  131MOL    C2541885   5.693   5.997   4.972 -0.6525 -0.4617 -0.0680
  131MOL    H2641886   5.888   5.731   4.948  0.9002  0.3225  0.1519
  131MOL    H2741887   5.925   5.904   4.963 -0.1514  0.1255  1.0656
  131MOL    H2841888   5.643   5.664   4.926 -0.3786  0.4372 -0.6664
  131MOL    H2941889   5.421   5.721   4.984  0.0979 -0.3733  1.5232
  131MOL    H3041890   5.286   5.928   5.143 -1.8332 -0.8780 -0.2050
  131MOL    H3141891   5.244   5.911   4.981 -0.3330 -2.3142  2.6274
  131MOL    H3241892   5.540   6.134   5.032 -0.7161  0.2117  0.9675
  131MOL    H3341893   5.773   6.070   4.974 -1.9752  1.0397 -0.4847
  131MOL    C3441894   5.270   6.122   5.043 -0.0972 -0.1311 -0.1189
  131MOL    C3541895   5.135   6.138   5.102 -0.2981 -0.8342 -0.0546
  131MOL    C3641896   5.022   6.173   5.023 -0.2123 -0.3382 -0.4061
  131MOL    C3741897   4.889   6.189   5.075 -0.7304 -0.2426  0.2882
  131MOL    C3841898   4.870   6.166   5.217  0.4287 -0.1268 -0.1648
  131MOL    C3941899   4.736   6.202   5.282  0.1852 -0.0661  0.6095
  131MOL    C4041900   4.987   6.140   5.296  0.6700 -0.0140 -0.0712
  131MOL    C4141901   5.114   6.115   5.242 -0.4246 -0.0183  0.7519
  131MOL    H4241902   5.274   6.146   4.936  3.1980 -0.5455 -0.1426
  131MOL    H4341903   5.347   6.178   5.095 -0.2215 -1.2777  1.3192
  131MOL    H4441904   5.045   6.191   4.919 -0.2449  1.8694 -0.0576
  131MOL    H4541905   4.815   6.205   4.998  0.6855 -1.4697 -1.3832
  131MOL    H4641906   4.674   6.113   5.269 -0.0430 -0.1220  1.9787
  131MOL    H4741907   4.740   6.229   5.387  0.2896  1.2880  0.2605
  131MOL    H4841908   4.967   6.143   5.402 -0.5247  0.2533 -0.3083
  131MOL    H4941909   5.199   6.091   5.305  0.7272 -1.2780 -1.2165
  131MOL    C5041910   4.659   6.323   5.222  0.1292  0.4617 -0.6669
  131MOL    C5141911   4.519   6.343   5.276  0.4196  0.0502  0.6946
  131MOL    C5241912   4.408   6.331   5.195  0.4383  0.3833  0.7957
  131MOL    C5341913   4.278   6.363   5.242  0.3981 -0.4781  0.2080
  131MOL    C5441914   4.262   6.401   5.374  0.5386  0.1045 -0.1579
  131MOL    C5541915   4.125   6.451   5.425  0.4703  0.0765 -0.8527
  131MOL    C5641916   4.377   6.417   5.459  0.6486 -0.0258 -0.1078
  131MOL    C5741917   4.503   6.379   5.411 -0.7717  0.5696 -0.0767
  131MOL    H5841918   4.657   6.295   5.116  2.1958  1.5381 -1.0194
  131MOL    H5941919   4.705   6.422   5.228  0.1209  0.4354 -0.1633
  131MOL    H6041920   4.410   6.294   5.094  2.5413  0.8569  0.6503
  131MOL    H6141921   4.184   6.351   5.188  0.4434  0.8407 -0.1822
  131MOL    H6241922   4.046   6.375   5.415 -0.2193  0.8682 -1.5167
  131MOL    H6341923   4.125   6.473   5.532 -1.3143 -0.4506 -0.7198
  131MOL    H6441924   4.386   6.444   5.563 -0.1665 -2.0718  0.5244
  131MOL    H6541925   4.591   6.385   5.474 -0.3627 -0.1696 -0.5683
  131MOL    C6641926   4.074   6.573   5.353  0.8259 -0.2999 -0.2033
  131MOL    C6741927   3.933   6.624   5.394  0.0807 -0.1245  0.6467
  131MOL    C6841928   3.828   6.602   5.306  0.3314 -0.4769 -0.9540
  131MOL    C6941929   3.696   6.645   5.339 -0.0519 -0.3531 -0.2407
  131MOL    C7041930   3.676   6.706   5.462 -0.7908 -0.4047  0.3040
  131MOL    C7141931   3.533   6.759   5.493 -0.2798 -0.3193 -0.1453
  131MOL    C7241932   3.782   6.724   5.555 -0.6744 -0.0866 -0.0438
  131MOL    C7341933   3.912   6.684   5.518  0.0303 -0.8656  1.6308
  131MOL    H7441934   4.079   6.558   5.245 -1.0421  1.5513 -0.5782
  131MOL    H7541935   4.134   6.657   5.389  0.4560  0.3833 -1.1461
  131MOL    H7641936   3.839   6.566   5.205 -0.4693  0.1055 -1.2603
  131MOL    H7741937   3.622   6.642   5.260  0.7800  3.0698 -1.2606
  131MOL    H7841938   3.465   6.721   5.416  1.9606 -0.1459 -2.2613
  131MOL    H7941939   3.536   6.865   5.468  1.0492 -0.7859 -2.0608
  131MOL    H8041940   3.756   6.778   5.645  0.1566  0.0631  0.1037
  131MOL    H8141941   3.995   6.699   5.586  0.8166  1.5270  0.1792
  131MOL    C8241942   3.484   6.723   5.631 -0.0199  0.5643 -0.0185
  131MOL    C8341943   3.344   6.776   5.657  0.2004 -0.7632  0.3650
  131MOL    C8441944   3.316   6.911   5.665  0.8332  0.7895 -0.6044
  131MOL    C8541945   3.190   6.958   5.695  0.5040 -0.3552 -0.0943
  131MOL    C8641946   3.086   6.866   5.724 -0.4796  1.2106  0.1357
  131MOL    C8741947   2.944   6.918   5.756 -0.0372 -0.5415  0.6441
  131MOL    C8841948   3.115   6.730   5.733  0.9598  0.3204 -0.4368
  131MOL    C8941949   3.245   6.687   5.703 -0.3141 -0.4684 -0.1615
  131MOL    H9041950   3.553   6.755   5.709 -0.5536 -1.9920  1.5645
  131MOL    H9141951   3.477   6.615   5.641  0.4292  0.3883 -1.4327
  131MOL    H9241952   3.390   6.984   5.638  0.0823  2.1929  1.0150
  131MOL    H9341953   3.174   7.062   5.719  3.0338  0.1558 -0.4830
  131MOL    H9441954   2.957   6.985   5.841 -1.4640 -1.1311  1.3462
  131MOL    H9541955   2.878   6.838   5.791 -0.4641 -0.5399 -0.1486
  131MOL    H9641956   3.034   6.662   5.755  0.7087  0.7950  0.0974
  131MOL    H9741957   3.280   6.585   5.712 -0.0632 -0.5750 -2.1334
  131MOL    C9841958   2.883   7.007   5.653  1.0303  0.3947  0.6577
  131MOL    C9941959   2.758   7.083   5.695 -0.4303 -0.1199  0.0094
  131MOL   C10041960   2.759   7.222   5.722  0.6299 -0.5248 -0.4551
  131MOL   C10141961   2.650   7.287   5.781 -0.1300  0.5332  0.5127
  131MOL   C10241962   2.525   7.225   5.791  0.1020 -1.0011 -0.3770
  131MOL   C10341963   2.402   7.292   5.854  0.0321 -0.3147  0.4329
  131MOL   C10441964   2.516   7.090   5.753 -0.5442 -0.3324  0.3410
  131MOL   C10541965   2.632   7.025   5.707 -0.4050 -0.6442 -0.4047
  131MOL   H10641966   2.850   6.935   5.577  0.3578  0.7410  0.6202
  131MOL   H10741967   2.951   7.075   5.602  1.5537 -1.4099 -1.1712
  131MOL   H10841968   2.856   7.271   5.719 -0.6825  2.1114 -1.6635
  131MOL   H10941969   2.663   7.384   5.828 -1.0975  0.7186  0.3985
  131MOL   H11041970   2.330   7.212   5.867  1.0818 -1.4426 -0.6012
  131MOL   H11141971   2.441   7.323   5.952  1.0981  2.3403 -0.7663
  131MOL   H11241972   2.427   7.031   5.770  2.1382 -5.8080 -3.3247
  131MOL   H11341973   2.616   6.920   5.687 -1.6321 -0.6297  0.4372
  131MOL   C11441974   2.349   7.427   5.787  0.1856  0.0012  0.1520
  131MOL   C11541975   2.237   7.483   5.869  0.0191  0.0961  0.0872
  131MOL   C11641976   2.149   7.408   5.950 -0.4026  0.5003  0.8222
  131MOL   C11741977   2.048   7.469   6.028  0.1168  0.0119 -0.1639
  131MOL   C11841978   2.028   7.607   6.017  0.2870 -0.3567 -0.0292
  131MOL   C11941979   1.923   7.661   6.105 -0.3551  0.0264 -0.2719
  131MOL   C12041980   2.102   7.687   5.932 -0.2006  0.1903 -0.5159
  131MOL   C12141981   2.204   7.623   5.856 -0.7917  0.0187  0.3617
  131MOL   H12241982   2.317   7.405   5.685  0.2782  1.7053 -0.2576
  131MOL   H12341983   2.431   7.498   5.774  1.3585 -1.3561 -0.0153
  131MOL   H12441984   2.156   7.300   5.949  0.4671  0.5428 -1.6136
  131MOL   H12541985   1.978   7.408   6.083  1.0967 -1.1672 -0.2077
  131MOL   H12641986   1.903   7.607   6.198 -1.0490 -2.8144 -2.0446
  131MOL   H12741987   1.958   7.760   6.136  0.1190 -0.0210 -0.6656
  131MOL   H12841988   2.073   7.788   5.907 -1.7513 -0.6192 -2.0869
  131MOL   H12941989   2.265   7.688   5.794  0.4914 -0.6761  0.8739
  131MOL   C13041990   1.801   7.690   6.023  0.0855 -0.8706  0.1558
  131MOL   C13141991   1.686   7.767   6.082  0.1804  0.5623 -0.2938
  131MOL   C13241992   1.601   7.696   6.167  0.1251 -0.2870  0.1146
  131MOL   C13341993   1.473   7.750   6.197  0.2273  0.5914  0.8254
  131MOL   C13441994   1.446   7.887   6.168  0.1464 -0.1103  0.3851
  131MOL   C13541995   1.316   7.945   6.227  0.3404 -0.7033  0.7842
  131MOL   C13641996   1.540   7.958   6.094  0.5782 -0.5217 -0.1078
  131MOL   C13741997   1.662   7.903   6.051  0.8934 -0.2588  0.1204
  131MOL   H13841998   1.765   7.590   5.995  2.6826 -1.3680 -1.5658
  131MOL   H13941999   1.820   7.729   5.924 -3.2621 -2.1224 -1.0695
  131MOL   H14042000   1.617   7.590   6.182 -1.9568 -0.4857  1.0958
  131MOL   H14142001   1.412   7.680   6.251  1.5316 -0.6318  0.7521
  131MOL   H14242002   1.273   7.885   6.307 -2.1554 -2.7601 -1.9582
  131MOL   H14342003   1.318   8.049   6.261 -0.9709 -0.9240  1.5693
  131MOL   H14442004   1.518   8.055   6.051  0.1933 -1.3616 -1.8581
  131MOL   H14542005   1.731   7.963   5.993 -0.4762 -0.0369 -1.3138
  131MOL   C14642006   1.203   7.924   6.120 -0.1067 -0.4018  0.0418
  131MOL   C14742007   1.069   7.950   6.184  0.1216  0.2247  0.2741
  131MOL   C14842008   1.013   8.077   6.153  1.1081 -0.0462 -0.1286
  131MOL   C14942009   0.883   8.110   6.197 -0.5345 -0.0390 -0.1853
  131MOL   C15042010   0.815   8.020   6.282  0.3734 -1.0599  0.2839
  131MOL   C15142011   0.687   8.050   6.340  0.3387  0.0482  0.3673
  131MOL   C15242012   0.867   7.893   6.305  0.2456 -0.4876  0.5176
  131MOL   C15342013   0.997   7.858   6.262  0.0463 -0.5238 -0.4660
  131MOL   H15442014   1.214   7.826   6.072 -0.8355 -1.5176  2.0544
  131MOL   H15542015   1.215   7.979   6.027  1.4326 -0.6415  0.0853
  131MOL   H15642016   1.071   8.144   6.091  0.2790  1.0157  0.2319
  131MOL   H15742017   0.833   8.202   6.169  0.4784  0.9337  1.1147
  131MOL   H15842018   0.670   7.992   6.430  4.3061  0.1117  1.2438
  131MOL   H15942019   0.680   8.154   6.372 -0.2822  1.3173 -3.5896
  131MOL   H16042020   0.822   7.823   6.374  1.5375 -1.7182  0.1447
  131MOL   H16142021   1.038   7.759   6.278 -0.8726 -0.7693  0.3885
  131MOL   C16242022   0.574   8.053   6.242 -0.8566  0.6200 -0.0879
  131MOL   C16342023   0.445   8.122   6.303 -0.4627  0.3830 -0.1659
  131MOL   C16442024   0.444   8.260   6.322  0.1069 -0.0419 -0.2697
  131MOL   C16542025   0.324   8.318   6.372  0.1075 -0.1518  0.1439
  131MOL   C16642026   0.212   8.238   6.415  0.3546  0.1253  0.3893
  131MOL   C16742027   0.084   8.296   6.460  0.1429 -0.3565 -0.1878
  131MOL   C16842028   0.220   8.100   6.399 -0.0830  0.4633 -0.0075
  131MOL   C16942029   0.331   8.042   6.340 -0.0907 -0.5948 -0.7717
  131MOL   H17042030   0.554   7.950   6.211 -2.9405  0.5446  1.4189
  131MOL   H17142031   0.598   8.118   6.158  0.9354 -0.5933 -0.5468
  131MOL   H17242032   0.522   8.325   6.285 -1.6522  2.4507  0.1982
  131MOL   H17342033   0.327   8.426   6.373  0.7680 -0.1346 -1.3302
  131MOL   H17442034   0.044   8.238   6.544  0.0984 -0.8734 -0.5654
  131MOL   H17542035   0.104   8.393   6.507 -1.1634 -1.0710  1.9509
  131MOL   H17642036   0.144   8.031   6.432  0.6214  0.8227  2.4236
  131MOL   H17742037   0.330   7.934   6.338  3.0835 -0.6766 -0.8374
  131MOL   C17842038  -0.026   8.298   6.359 -0.1766 -0.1189  0.3807
  131MOL   C17942039  -0.151   8.357   6.428 -0.2756  0.8699  0.5420
  131MOL   C18042040  -0.151   8.498   6.439  0.0439 -0.4892 -0.3773
  131MOL   C18142041  -0.266   8.555   6.500 -0.1188  0.0777 -0.4223
  131MOL   C18242042  -0.371   8.476   6.540 -0.3338 -0.3098  0.6374
  131MOL   C18342043  -0.502   8.530   6.597  0.6442  0.4256 -0.5233
  131MOL   C18442044  -0.364   8.336   6.526 -0.1477  0.2036 -0.2063
  131MOL   C18542045  -0.256   8.272   6.463  0.3353  0.2562 -0.4851
  131MOL   H18642046  -0.050   8.198   6.323 -1.1163 -0.4335  1.8453
  131MOL   H18742047  -0.001   8.363   6.275 -0.3308 -1.3810 -0.6486
  131MOL   H18842048  -0.070   8.566   6.415  0.7312 -1.0860  0.2120
  131MOL   H18942049  -0.280   8.662   6.500 -0.5753  0.0177 -0.8389
  131MOL   H19042050  -0.538   8.461   6.672 -0.1844  2.0991  0.6551
  131MOL   H19142051  -0.472   8.620   6.651 -1.6102 -0.3072  2.0534
  131MOL   H19242052  -0.451   8.274   6.543  0.2234 -0.2301  0.0871
  131MOL   H19342053  -0.254   8.165   6.448 -1.5768 -0.0943  1.3927
  131MOL   C19442054  -0.607   8.545   6.487 -0.4613 -0.1402 -0.7110
  131MOL   C19542055  -0.737   8.602   6.526  0.0081 -0.0300  0.5824
  131MOL   C19642056  -0.737   8.713   6.612  0.2540 -0.7032 -0.1886
  131MOL   C19742057  -0.855   8.760   6.662  0.0980  1.3603  0.2663
  131MOL   C19842058  -0.979   8.712   6.603 -0.3991 -0.5833 -0.3081
  131MOL   C19942059  -1.109   8.771   6.637  0.5208  0.4476  0.0154
  131MOL   C20042060  -0.984   8.603   6.518  0.2482  0.0782  0.0515
  131MOL   C20142061  -0.861   8.550   6.479  0.3669  0.5634 -0.4189
  131MOL   H20242062  -0.614   8.442   6.454  1.1012 -0.7664  0.8818
  131MOL   H20342063  -0.561   8.601   6.405  0.7721  0.8534  0.6293
  131MOL   H20442064  -0.647   8.765   6.639 -0.8031  0.7261  0.6674
  131MOL   H20542065  -0.860   8.839   6.735  0.4290  3.3667 -1.8421
  131MOL   H20642066  -1.089   8.874   6.663  0.4708  0.1252  1.3473
  131MOL   H20742067  -1.168   8.771   6.545 -1.4263 -0.5401  1.2285
  131MOL   H20842068  -1.068   8.571   6.459 -0.2405  1.4549 -0.0268
  131MOL   H20942069  -0.850   8.471   6.407  0.5325 -1.4051  1.7008
  131MOL   C21042070  -1.171   8.694   6.751  0.2925  0.7219 -0.5477
  131MOL   C21142071  -1.306   8.751   6.779  0.1348  0.7038  0.6940
  131MOL   C21242072  -1.415   8.730   6.691 -0.3171 -0.0109 -0.3881
  131MOL   C21342073  -1.530   8.809   6.698 -0.1777  0.6906 -0.2308
  131MOL   C21442074  -1.549   8.900   6.804 -0.8201  0.3861 -0.1328
  131MOL   C21542075  -1.682   8.971   6.821  0.3809 -0.4864  0.6560
  131MOL   C21642076  -1.441   8.916   6.901 -0.1051 -1.5514 -1.0143
  131MOL   C21742077  -1.315   8.848   6.881 -0.1089 -0.6710 -0.1297
  131MOL   H21842078  -1.104   8.695   6.837 -0.4348 -0.6898  0.0443
  131MOL   H21942079  -1.179   8.591   6.717  2.7357  0.3781 -0.1788
  131MOL   H22042080  -1.401   8.659   6.610  0.4859 -1.8274  1.3015
  131MOL   H22142081  -1.598   8.799   6.614 -0.9981  1.1518  0.3688
  131MOL   H22242082  -1.704   9.019   6.726  0.4433  0.1740  0.9692
  131MOL   H22342083  -1.771   8.910   6.831 -0.4202  0.4787 -0.4950
  131MOL   H22442084  -1.455   8.977   6.988  0.5262  0.2746 -2.1703
  131MOL   H22542085  -1.227   8.875   6.936 -0.2255  0.3224 -0.4112
  131MOL   C22642086  -1.703   9.068   6.938 -0.3109 -0.7688  0.8618
  131MOL   C22742087  -1.837   9.154   6.925  0.0328 -0.4010 -0.3932
  131MOL   C22842088  -1.828   9.293   6.962  0.2339 -0.3088  0.1047
  131MOL   C22942089  -1.953   9.368   6.961 -0.9910  0.0498  0.3727
  131MOL   C23042090  -2.077   9.307   6.930  0.1331  0.2108  0.1465
  131MOL   C23142091  -2.205   9.388   6.942 -0.6025  0.0562  0.2681
  131MOL   C23242092  -2.079   9.174   6.885 -0.4122 -0.8282 -0.2239
  131MOL   C23342093  -1.959   9.099   6.882 -0.3548  0.8232 -0.1164
  131MOL   H23442094  -1.629   9.148   6.930 -1.2726  0.3728  2.8160
  131MOL   H23542095  -1.699   9.014   7.032 -2.9390 -1.5075  0.6058
  131MOL   H23642096  -1.736   9.345   6.987 -0.2317  0.4232  0.3179
  131MOL   H23742097  -1.960   9.470   6.995 -0.1862  0.3806 -0.4413
  131MOL   H23842098  -2.191   9.495   6.929 -1.3887 -0.0600 -1.6888
  131MOL   H23942099  -2.276   9.357   6.865 -0.9030  0.1850  0.4887
  131MOL   H24042100  -2.178   9.139   6.858 -0.0362 -2.6186  0.6327
  131MOL   H24142101  -1.959   8.998   6.842  1.4483  1.0649 -0.7543
  131MOL   C24242102  -2.265   9.368   7.076  0.1567 -0.4320 -0.2135
  131MOL   C24342103  -2.401   9.433   7.083  0.4242  0.4363 -0.6113
  131MOL   C24442104  -2.508   9.358   7.029 -0.3601 -0.2197  0.0889
  131MOL   C24542105  -2.643   9.407   7.041 -0.4516  0.4962  0.7966
  131MOL   C24642106  -2.667   9.534   7.095  0.0297 -0.2739 -0.1658
  131MOL   C24742107  -2.817   9.586   7.100 -0.1515 -0.2142  0.5987
  131MOL   C24842108  -2.561   9.604   7.159 -0.5341 -0.5632  0.0719
  131MOL   C24942109  -2.433   9.549   7.159 -0.1965  0.4676 -0.1419
  131MOL   H25042110  -2.255   9.266   7.113  2.5026  0.3588  1.4548
  131MOL   H25142111  -2.212   9.435   7.144 -3.7293  1.9650  0.5933
  131MOL   H25242112  -2.493   9.270   6.967 -0.0161  0.9326 -1.5067
  131MOL   H25342113  -2.721   9.348   6.995 -0.4836  0.5287  0.8094
  131MOL   H25442114  -2.809   9.691   7.071 -1.4638  0.3301  2.1501
  131MOL   H25542115  -2.882   9.523   7.039  0.4312  0.3066 -0.5833
  131MOL   H25642116  -2.590   9.693   7.214  0.3849 -0.1076 -0.1582
  131MOL   H25742117  -2.361   9.609   7.213  1.6170 -1.8836  0.1329
  131MOL   C25842118  -2.869   9.607   7.249  0.0656 -0.6943  0.0840
  131MOL   C25942119  -3.016   9.659   7.252 -0.4060  0.0842  0.3592
  131MOL   C26042120  -3.125   9.573   7.231 -0.1412 -0.9915  0.1050
  131MOL   C26142121  -3.254   9.624   7.251  0.0338 -1.1718 -0.1942
  131MOL   C26242122  -3.279   9.754   7.289  0.1807  0.2287  0.5018
  131MOL   C26342123  -3.423   9.799   7.317  0.3168  0.6452 -0.2210
  131MOL   C26442124  -3.167   9.837   7.311  0.4865 -0.2070 -0.4941
  131MOL   C26542125  -3.038   9.795   7.288  0.7061 -0.2318 -0.8236
  131MOL   H26642126  -2.814   9.687   7.299  3.2142 -0.9474 -2.7404
  131MOL   H26742127  -2.853   9.525   7.318  0.3552  0.8910  1.9646
  131MOL   H26842128  -3.109   9.474   7.190  0.4973 -0.5424 -0.7689
  131MOL   H26942129  -3.340   9.564   7.223 -0.5634  0.0683 -1.0797
  131MOL   H27042130  -3.435   9.904   7.290  1.7016  0.8123 -0.2141
  131MOL   H27142131  -3.492   9.745   7.252 -1.2046  1.5266  0.6190
  131MOL   H27242132  -3.177   9.934   7.357 -1.2259 -1.3624  1.6217
  131MOL   H27342133  -2.955   9.856   7.320 -0.1620 -0.1418  1.3343
  131MOL   C27442134  -3.458   9.783   7.467  0.4535  0.1371 -1.0387
  131MOL   C27542135  -3.590   9.849   7.497 -0.2298 -0.3752 -1.2984
  131MOL   C27642136  -3.605   9.963   7.582  0.4162  0.2865 -0.2485
  131MOL   C27742137  -3.730  10.022   7.612 -0.1219  0.1389 -0.6300
  131MOL   C27842138  -3.846   9.971   7.546 -0.1663  0.7911  0.4645
  131MOL   C27942139  -3.981  10.018   7.594 -0.0126 -0.6501 -0.0247
  131MOL   C28042140  -3.834   9.860   7.459 -0.8415  0.1298  1.0142
  131MOL   C28142141  -3.711   9.798   7.441  0.0577  0.5949 -0.2018
  131MOL   H28242142  -3.466   9.677   7.487  0.0212  0.1071 -1.3596
  131MOL   H28342143  -3.392   9.821   7.545 -0.1112  0.1099 -0.5460
  131MOL   H28442144  -3.525   9.998   7.645  0.3520 -0.0088  0.0006
  131MOL   H28542145  -3.736  10.109   7.676 -1.0996 -1.1827  1.1213
  131MOL   H28642146  -4.054   9.941   7.568  0.0166 -0.5179 -0.4958
  131MOL   H28742147  -3.983  10.033   7.702  1.3824 -0.4180 -0.0163
  131MOL   H28842148  -3.919   9.817   7.409 -0.1663 -0.4169  0.3200
  131MOL   H28942149  -3.697   9.718   7.370  0.2042 -0.2780  0.8028
  131MOL   C29042150  -4.006  10.171   7.561  0.4944 -0.1230 -0.1191
  131MOL   C29142151  -4.147  10.222   7.585  0.6213  0.0816  0.2395
  131MOL   C29242152  -4.261  10.159   7.541 -0.7625  0.6945 -0.2276
  131MOL   C29342153  -4.386  10.197   7.578 -0.3865  0.4887  0.4555
  131MOL   C29442154  -4.405  10.321   7.649 -0.1803  0.4278  0.4579
  131MOL   C29542155  -4.547  10.376   7.680 -0.0298  0.1192  0.6159
  131MOL   C29642156  -4.294  10.396   7.688  0.6161 -0.3878  0.1416
  131MOL   C29742157  -4.167  10.346   7.652  0.0109  0.6555  0.1711
  131MOL   H29842158  -3.997  10.183   7.453  1.5206 -0.8954 -0.1297
  131MOL   H29942159  -3.932  10.240   7.601  0.8991 -0.5871 -0.0609
  131MOL   H30042160  -4.262  10.063   7.491 -3.4487  1.1511 -1.1282
  131MOL   H30142161  -4.470  10.137   7.548  1.5932 -2.4120  0.5596
  131MOL   H30242162  -4.606  10.289   7.709 -1.7745  0.2508 -2.3105
  131MOL   H30342163  -4.556  10.453   7.757  0.2688  1.2396 -0.4578
  131MOL   H30442164  -4.298  10.490   7.741  3.0201 -1.0345  1.5575
  131MOL   H30542165  -4.080  10.408   7.670  0.1343  0.4570  0.2540
  131MOL   C30642166  -4.615  10.426   7.551  0.2446  0.4153 -0.0288
  131MOL   C30742167  -4.751  10.488   7.569  0.1677 -0.6825 -0.4571
  131MOL   C30842168  -4.773  10.595   7.665  0.0482 -0.1493  0.4040
  131MOL   C30942169  -4.901  10.647   7.685 -0.3128 -0.4104 -0.1466
  131MOL   C31042170  -5.006  10.604   7.604  0.8275  0.2567  0.3301
  131MOL   C31142171  -5.146  10.649   7.630  0.3512  0.6386  0.0950
  131MOL   C31242172  -4.979  10.511   7.496 -0.3576  0.5798 -0.2154
  131MOL   C31342173  -4.855  10.452   7.478 -0.2120  0.0533 -0.4727
  131MOL   H31442174  -4.615  10.340   7.483 -1.6673  0.2583  0.1497
  131MOL   H31542175  -4.564  10.506   7.498  0.6786 -0.2375 -0.6040
  131MOL   H31642176  -4.685  10.618   7.723 -0.9077  1.0432  1.4189
  131MOL   H31742177  -4.922  10.724   7.758 -0.9902  0.4694 -1.2443
  131MOL   H31842178  -5.165  10.747   7.674  0.6180  1.2795 -1.1887
  131MOL   H31942179  -5.198  10.642   7.535 -0.8494 -0.4294  0.8061
  131MOL   H32042180  -5.054  10.478   7.426  0.7928 -0.3544 -1.0196
  131MOL   H32142181  -4.835  10.381   7.400 -0.7286 -1.7539  0.9986
  131MOL   H32242182  -5.197  10.575   7.692 -0.9399  2.1976  0.9274
  132MOL     C142183   5.233   3.032   0.848 -0.0410 -0.6015 -0.7880
  132MOL     C242184   5.383   3.006   0.845  0.9778 -0.3166 -0.3742
  132MOL     C342185   5.443   2.923   0.942 -0.0264 -0.2059  0.2798
  132MOL     C442186   5.583   2.899   0.943  0.4740 -0.0294 -0.0448
  132MOL     C542187   5.662   2.958   0.846  0.2995 -0.3263  0.4299
  132MOL     C642188   5.810   2.923   0.841  0.9487  0.0198 -0.5375
  132MOL     C742189   5.601   3.038   0.744 -0.5283  0.1710 -0.8156
  132MOL     C842190   5.464   3.055   0.747 -0.1653 -0.6280 -0.0205
  132MOL     H942191   5.193   3.030   0.747 -0.9610 -0.8160 -0.4258
  132MOL    H1042192   5.177   2.958   0.906  2.0871 -0.5654  1.4224
  132MOL    H1142193   5.376   2.873   1.010 -0.3376 -1.4028 -0.8875
  132MOL    H1242194   5.619   2.837   1.023  0.1683  0.1331  0.2185
  132MOL    H1342195   5.864   3.011   0.805 -0.1083  1.9297  2.3289
  132MOL    H1442196   5.844   2.896   0.941 -0.6448  2.0135  0.5869
  132MOL    H1542197   5.674   3.081   0.677 -0.7878  1.7245 -0.1181
  132MOL    H1642198   5.424   3.122   0.673 -1.4961 -0.3128  0.9601
  132MOL    H1742199   5.220   3.130   0.895  1.4495 -1.0019  0.5096
  132MOL    C1842200   5.846   2.808   0.742  0.8608  0.2209  0.2977
  132MOL    C1942201   5.991   2.773   0.732  0.2278  0.3092  0.0855
  132MOL    C2042202   6.058   2.694   0.825 -0.3232  0.0162 -0.3809
  132MOL    C2142203   6.196   2.673   0.812 -0.3268 -0.5517  0.1598
  132MOL    C2242204   6.271   2.735   0.715  0.2038  0.4720 -0.4289
  132MOL    C2342205   6.419   2.709   0.713 -0.5114 -0.5710  0.2431
  132MOL    C2442206   6.205   2.816   0.619 -0.1451  0.7240  0.0307
  132MOL    C2542207   6.064   2.827   0.630  0.4306  0.1907  0.2597
  132MOL    H2642208   5.780   2.724   0.767 -0.7370  1.1103 -0.8617
  132MOL    H2742209   5.811   2.847   0.647 -1.5384 -0.8169  0.7240
  132MOL    H2842210   5.999   2.645   0.901 -3.9343  1.8920 -1.8531
  132MOL    H2942211   6.247   2.617   0.890  1.0467 -0.6774 -0.8196
  132MOL    H3042212   6.454   2.682   0.813  0.3171 -0.0834  0.0858
  132MOL    H3142213   6.460   2.803   0.676 -3.0490  1.2403  1.8600
  132MOL    H3242214   6.270   2.870   0.552  2.1722 -1.8852  0.1171
  132MOL    H3342215   6.024   2.899   0.561  0.5009 -0.5698 -0.5855
  132MOL    C3442216   6.450   2.597   0.620 -0.1035 -0.4199  0.5951
  132MOL    C3542217   6.599   2.562   0.612 -0.6175 -0.7471  0.0672
  132MOL    C3642218   6.684   2.636   0.532 -0.3590  0.4686 -0.4250
  132MOL    C3742219   6.824   2.605   0.523  0.2237  0.7229 -0.3073
  132MOL    C3842220   6.873   2.500   0.604  0.5040 -0.6989  0.2125
  132MOL    C3942221   7.019   2.465   0.603 -0.1007  0.3615 -0.0735
  132MOL    C4042222   6.788   2.424   0.686 -0.4963 -0.2795 -0.0652
  132MOL    C4142223   6.648   2.452   0.682 -0.1495 -0.5837  0.3650
  132MOL    H4242224   6.419   2.599   0.516  1.1491 -0.5684  0.2098
  132MOL    H4342225   6.395   2.509   0.654 -0.0703 -0.6663  0.0107
  132MOL    H4442226   6.645   2.726   0.487  0.5212  0.2463 -1.6707
  132MOL    H4542227   6.882   2.668   0.458 -1.9658  0.0224 -3.0119
  132MOL    H4642228   7.085   2.552   0.611  3.4439 -2.3248  1.3872
  132MOL    H4742229   7.045   2.401   0.686  1.7940 -2.1122 -2.4835
  132MOL    H4842230   6.838   2.347   0.744  2.0576  0.9503 -0.5644
  132MOL    H4942231   6.573   2.396   0.735  1.2541 -1.0431  1.9219
  132MOL    C5042232   7.057   2.395   0.471  0.1907  0.1942  0.1971
  132MOL    C5142233   7.209   2.378   0.464 -0.3455 -0.7905 -0.1523
  132MOL    C5242234   7.256   2.248   0.493  0.3517 -0.0034  0.5344
  132MOL    C5342235   7.395   2.224   0.478  0.0850 -0.6692  0.0493
  132MOL    C5442236   7.481   2.328   0.435 -0.2286 -0.0391 -0.1821
  132MOL    C5542237   7.629   2.303   0.410 -0.4456  1.1274 -0.1613
  132MOL    C5642238   7.429   2.459   0.414 -0.0260  0.4678 -0.2259
  132MOL    C5742239   7.292   2.483   0.433 -0.0666 -0.7623 -0.5172
  132MOL    H5842240   7.023   2.454   0.386  1.4871 -1.3228 -1.4190
  132MOL    H5942241   7.004   2.300   0.468 -0.6226  0.6806 -1.2049
  132MOL    H6042242   7.181   2.175   0.518 -1.3893  2.2424  2.1360
  132MOL    H6142243   7.429   2.122   0.488  0.7049 -0.1116  4.4052
  132MOL    H6242244   7.679   2.392   0.373  0.6007 -0.0451 -1.6375
  132MOL    H6342245   7.662   2.265   0.507 -1.5761  2.9973  0.9807
  132MOL    H6442246   7.489   2.543   0.381  1.3235 -0.2135  0.4258
  132MOL    H6542247   7.257   2.582   0.411 -0.2198 -1.1530 -2.0797
  132MOL    C6642248   7.651   2.184   0.309 -0.2883  0.0176  0.5623
  132MOL    C6742249   7.800   2.179   0.289  0.0185  0.6026 -0.0173
  132MOL    C6842250   7.857   2.062   0.343 -0.4878 -0.0431 -0.5260
  132MOL    C6942251   7.996   2.045   0.344 -0.7905  0.0021  0.2829
  132MOL    C7042252   8.078   2.135   0.278 -0.0700  0.3219 -1.0629
  132MOL    C7142253   8.229   2.105   0.273 -0.2168  0.1951  0.4816
  132MOL    C7242254   8.017   2.253   0.215 -0.1958  0.0710  0.5495
  132MOL    C7342255   7.880   2.279   0.228 -0.0225  0.0629 -0.4749
  132MOL    H7442256   7.596   2.211   0.219  1.8845  0.0556 -0.7776
  132MOL    H7542257   7.611   2.088   0.341  2.7987 -1.6402 -0.3633
  132MOL    H7642258   7.785   1.998   0.390  0.0580 -0.4114 -0.1901
  132MOL    H7742259   8.036   1.956   0.391  0.6619 -1.3695 -3.4082
  132MOL    H7842260   8.254   2.075   0.375 -1.7243  0.6531  1.0057
  132MOL    H7942261   8.280   2.202   0.266  0.5926 -0.1986  0.9077
  132MOL    H8042262   8.090   2.326   0.180 -2.6373  2.5254  0.3999
  132MOL    H8142263   7.846   2.379   0.207  1.1391  0.0545 -2.4565
  132MOL    C8242264   8.274   2.009   0.160 -0.1957 -0.0837 -0.0350
  132MOL    C8342265   8.425   1.984   0.163  0.0207  0.5458 -0.0718
  132MOL    C8442266   8.473   1.875   0.240  0.1143  0.2794  0.4196
  132MOL    C8542267   8.610   1.848   0.240  0.1893  0.0277  0.1832
  132MOL    C8642268   8.704   1.930   0.164 -0.2630 -0.0840 -0.3822
  132MOL    C8742269   8.853   1.885   0.162 -0.5775 -0.5382  0.2345
  132MOL    C8842270   8.655   2.035   0.090  0.0759  0.4673 -0.4252
  132MOL    C8942271   8.522   2.068   0.101  0.0762  0.2759 -0.5270
  132MOL    H9042272   8.248   2.050   0.063 -0.0950 -1.7029 -0.7678
  132MOL    H9142273   8.215   1.919   0.175 -0.2732  0.0948  0.7661
  132MOL    H9242274   8.419   1.804   0.301 -0.9604  0.3986 -0.4006
  132MOL    H9342275   8.648   1.760   0.289 -4.0610 -1.9839  0.0970
  132MOL    H9442276   8.881   1.831   0.252  0.8480  0.1968  0.2424
  132MOL    H9542277   8.925   1.967   0.163 -1.1276 -0.0671  1.4517
  132MOL    H9642278   8.723   2.095   0.031  1.4666  0.3338  1.0052
  132MOL    H9742279   8.488   2.156   0.047  1.1584  1.4581  0.7143
  132MOL    C9842280   8.873   1.787   0.046  0.2262  0.0523  0.0468
  132MOL    C9942281   9.022   1.752   0.030  0.1192  0.2320  0.3493
  132MOL   C10042282   9.066   1.629   0.088 -0.2236 -0.3495  0.1003
  132MOL   C10142283   9.198   1.598   0.092  0.8016 -0.2692  0.7065
  132MOL   C10242284   9.290   1.686   0.028 -0.3411  0.4873 -0.2775
  132MOL   C10342285   9.439   1.644   0.041  0.1978  0.4484 -0.4404
  132MOL   C10442286   9.244   1.801  -0.033 -0.3752 -0.1339 -0.6144
  132MOL   C10542287   9.107   1.838  -0.033 -0.4133  0.2939  0.0845
  132MOL   H10642288   8.849   1.832  -0.051  2.2859 -0.1507 -0.5923
  132MOL   H10742289   8.816   1.694   0.057  1.6480 -0.6406  1.6690
  132MOL   H10842290   8.995   1.562   0.136  0.4190 -0.4093  0.9691
  132MOL   H10942291   9.239   1.510   0.139  1.4634  0.4531  1.4997
  132MOL   H11042292   9.498   1.726   0.081  0.1128  0.7312 -0.8957
  132MOL   H11142293   9.454   1.572   0.122  1.8391  0.6061 -0.5838
  132MOL   H11242294   9.326   1.856  -0.077 -1.8814  1.9405 -0.9216
  132MOL   H11342295   9.085   1.930  -0.085 -0.0408  1.4725  1.9879
  132MOL   C11442296   9.492   1.584  -0.087  0.1571 -0.2682 -0.0061
  132MOL   C11542297   9.633   1.544  -0.069 -0.0494 -0.0057  0.1599
  132MOL   C11642298   9.734   1.632  -0.119 -0.3746  0.2145 -0.6633
  132MOL   C11742299   9.869   1.592  -0.111  0.0136  0.7859  0.1705
  132MOL   C11842300   9.902   1.468  -0.057  0.0384 -0.0900  0.9128
  132MOL   C11942301  10.043   1.415  -0.066  0.3871  0.5422 -0.1303
  132MOL   C12042302   9.802   1.382  -0.006  0.1381  0.2894 -0.2499
  132MOL   C12142303   9.666   1.421  -0.006  0.0766 -0.0616 -0.2578
  132MOL   H12242304   9.482   1.664  -0.160 -0.2972  0.4348  0.8164
  132MOL   H12342305   9.429   1.498  -0.109 -0.5215  0.3153 -0.3520
  132MOL   H12442306   9.714   1.725  -0.170  1.7558  1.5332  0.8340
  132MOL   H12542307   9.948   1.656  -0.150 -0.0179  0.2325 -0.8231
  132MOL   H12642308  10.117   1.494  -0.082 -0.1309  1.2315  0.8977
  132MOL   H12742309  10.070   1.373   0.031  1.4087 -0.6180 -0.9022
  132MOL   H12842310   9.823   1.285   0.038 -0.1763 -0.0485 -0.8415
  132MOL   H12942311   9.590   1.349   0.020 -1.9129  1.6808 -1.1086
  132MOL   C13042312  10.061   1.319  -0.182 -0.3436  0.1619  0.1698
  132MOL   C13142313  10.210   1.285  -0.185  0.5155  0.3157  0.1851
  132MOL   C13242314  10.255   1.186  -0.101  0.1841 -0.6645 -0.4089
  132MOL   C13342315  10.390   1.158  -0.088 -0.9814  0.0709 -0.1307
  132MOL   C13442316  10.484   1.229  -0.168 -0.0569 -0.6485  0.3152
  132MOL   C13542317  10.634   1.201  -0.158  0.7709 -0.4098  0.1949
  132MOL   C13642318  10.440   1.328  -0.259 -0.8816 -0.7801  0.3126
  132MOL   C13742319  10.301   1.353  -0.266  0.4449  0.0450  1.4374
  132MOL   H13842320  10.035   1.366  -0.276  1.6111 -0.1995 -0.5687
  132MOL   H13942321   9.999   1.230  -0.166  0.8102 -0.6723  0.0279
  132MOL   H14042322  10.178   1.131  -0.050  1.0539 -1.8215 -0.3186
  132MOL   H14142323  10.423   1.080  -0.020  1.5234  0.1812 -1.1603
  132MOL   H14242324  10.680   1.294  -0.193  0.1613  0.9407  2.8058
  132MOL   H14342325  10.657   1.170  -0.056 -3.6025 -1.2274  1.0523
  132MOL   H14442326  10.515   1.373  -0.322  1.2407  0.0758  3.3167
  132MOL   H14542327  10.267   1.434  -0.329  1.1875 -0.8440 -0.1438
  132MOL   C14642328  10.674   1.083  -0.247 -0.7660 -0.0788 -0.7527
  132MOL   C14742329  10.823   1.063  -0.237 -0.3966 -0.1256  0.5091
  132MOL   C14842330  10.866   0.979  -0.141  0.6709 -0.1257  0.2982
  132MOL   C14942331  11.004   0.948  -0.133  0.2671 -0.3129  0.1641
  132MOL   C15042332  11.092   1.002  -0.224 -0.4117 -0.0351 -0.3903
  132MOL   C15142333  11.239   0.955  -0.222 -0.0961 -0.5105  0.3818
  132MOL   C15242334  11.047   1.093  -0.318 -0.1569 -0.5845  0.8564
  132MOL   C15342335  10.908   1.126  -0.323 -0.3067  0.5291  0.0320
  132MOL   H15442336  10.635   1.119  -0.342  0.1187  1.0138 -0.7145
  132MOL   H15542337  10.625   0.988  -0.229  3.3291 -2.0528  0.7952
  132MOL   H15642338  10.798   0.924  -0.077 -0.6849 -0.1703 -1.1399
  132MOL   H15742339  11.032   0.870  -0.063 -0.8196 -0.7894  0.0784
  132MOL   H15842340  11.306   1.040  -0.232  2.0631 -2.2210 -0.2736
  132MOL   H15942341  11.261   0.909  -0.125  0.3775  0.4201  0.7279
  132MOL   H16042342  11.113   1.124  -0.398  0.1251 -0.4223  1.1514
  132MOL   H16142343  10.875   1.195  -0.399 -1.0518  0.2360  0.0897
  132MOL   C16242344  11.259   0.865  -0.337 -0.0405  0.4386  0.5321
  132MOL   C16342345  11.412   0.832  -0.367 -0.0083  0.3853 -0.4183
  132MOL   C16442346  11.453   0.816  -0.499 -0.0172 -0.1619 -0.5445
  132MOL   C16542347  11.580   0.773  -0.533  0.0232 -0.2108 -0.9625
  132MOL   C16642348  11.674   0.762  -0.427  0.2315  0.0241 -0.2675
  132MOL   C16742349  11.816   0.722  -0.458 -0.8032  0.3873 -0.2070
  132MOL   C16842350  11.638   0.784  -0.291  0.1677  0.0373 -0.4857
  132MOL   C16942351  11.504   0.816  -0.263 -0.0694  0.0168  0.1643
  132MOL   H17042352  11.223   0.897  -0.434  0.9219  0.9576  0.3416
  132MOL   H17142353  11.197   0.777  -0.317 -1.7972  0.9958 -2.1784
  132MOL   H17242354  11.381   0.821  -0.580  0.1212 -0.4836 -0.6876
  132MOL   H17342355  11.608   0.743  -0.633  2.4536  0.8399 -0.6241
  132MOL   H17442356  11.839   0.775  -0.550 -1.2178  3.0613  1.2055
  132MOL   H17542357  11.885   0.771  -0.390  1.1275 -0.8793 -1.1952
  132MOL   H17642358  11.714   0.762  -0.217 -0.4292 -1.5684 -0.3352
  132MOL   H17742359  11.469   0.810  -0.161  0.7412 -0.1630  0.4309
  132MOL   C17842360  11.829   0.574  -0.477 -0.1974 -0.3908  0.0249
  132MOL   C17942361  11.963   0.531  -0.530 -0.0204  0.1565  0.3702
  132MOL   C18042362  12.076   0.538  -0.454 -0.2839  0.2903 -0.6065
  132MOL   C18142363  12.197   0.500  -0.510  0.0609  0.5088 -0.0334
  132MOL   C18242364  12.217   0.465  -0.644  0.3374 -0.2060  0.5596
  132MOL   C18342365  12.347   0.430  -0.698  0.4567  0.2866 -0.3434
  132MOL   C18442366  12.102   0.463  -0.719 -0.1969 -0.4268 -0.6577
  132MOL   C18542367  11.974   0.493  -0.667 -0.0470 -0.0596 -1.1264
  132MOL   H18642368  11.758   0.538  -0.552 -0.2726 -0.3749  0.0878
  132MOL   H18742369  11.798   0.532  -0.381 -0.4055  1.5776  0.8340
  132MOL   H18842370  12.079   0.560  -0.349 -0.7654 -0.7694 -0.3766
  132MOL   H18942371  12.287   0.507  -0.451  0.5765 -1.6098 -0.5392
  132MOL   H19042372  12.369   0.510  -0.770 -0.2138  1.8534  1.1602
  132MOL   H19142373  12.415   0.424  -0.613 -0.4254 -3.0423  0.1820
  132MOL   H19242374  12.111   0.430  -0.822  0.1979  1.4568 -1.2441
  132MOL   H19342375  11.887   0.495  -0.731 -2.3175 -0.0132  1.8798
  132MOL   C19442376  12.357   0.293  -0.761 -0.1250 -0.7939 -0.3438
  132MOL   C19542377  12.504   0.245  -0.789  0.4645 -0.6412 -0.6635
  132MOL   C19642378  12.526   0.110  -0.836  0.5892 -0.3536 -0.3255
  132MOL   C19742379  12.651   0.057  -0.847  0.4928  0.0621  0.4477
  132MOL   C19842380  12.761   0.148  -0.841  0.5169  0.6044 -0.2373
  132MOL   C19942381  12.892   0.087  -0.875  0.1195  0.0167  0.2129
  132MOL   C20042382  12.744   0.282  -0.810  0.2728  0.0614  0.8296
  132MOL   C20142383  12.614   0.328  -0.781  0.0618  0.4023 -0.2689
  132MOL   H20242384  12.293   0.292  -0.849 -2.5042  3.3082  1.1959
  132MOL   H20342385  12.312   0.217  -0.696  0.1945 -0.5961  0.1140
  132MOL   H20442386  12.439   0.048  -0.851  0.6742 -0.6152  0.2720
  132MOL   H20542387  12.655  -0.045  -0.882 -2.4880  0.0287  0.0728
  132MOL   H20642388  12.961   0.111  -0.794  1.5652  2.1280 -1.5665
  132MOL   H20742389  12.878  -0.019  -0.892  0.3640  0.4258 -2.9684
  132MOL   H20842390  12.830   0.347  -0.816  1.9469 -2.2177 -1.0018
  132MOL   H20942391  12.611   0.431  -0.749 -1.2170  0.3519 -0.2136
  132MOL   C21042392  12.952   0.153  -0.997 -0.8264  0.1491  0.3304
  132MOL   C21142393  13.088   0.078  -1.029 -0.1154 -0.1242 -0.3542
  132MOL   C21242394  13.089  -0.050  -1.085  0.4554  0.3133  0.3861
  132MOL   C21342395  13.209  -0.124  -1.097 -0.3493 -0.6908  0.0792
  132MOL   C21442396  13.323  -0.058  -1.054 -0.9692  0.1049 -0.3282
  132MOL   C21542397  13.455  -0.137  -1.079 -0.6324  0.3670  0.1404
  132MOL   C21642398  13.323   0.074  -1.008  0.2266 -0.5305 -0.2921
  132MOL   C21742399  13.206   0.145  -1.007 -0.8300 -0.1426 -0.7328
  132MOL   H21842400  12.965   0.258  -0.968  0.4800 -0.4892  2.1826
  132MOL   H21942401  12.884   0.148  -1.082 -0.6136  2.2934 -0.0015
  132MOL   H22042402  12.994  -0.093  -1.115 -0.0131  1.0864  0.7459
  132MOL   H22142403  13.208  -0.223  -1.140 -1.9110 -1.0005  0.7986
  132MOL   H22242404  13.529  -0.106  -1.006 -0.0994  1.1494 -0.7136
  132MOL   H22342405  13.447  -0.240  -1.044  1.0538 -0.6326 -2.2855
  132MOL   H22442406  13.411   0.118  -0.964  0.8487 -1.4406 -0.6105
  132MOL   H22542407  13.204   0.247  -0.969 -1.7770  0.0321 -1.2458
  132MOL   C22642408  13.509  -0.112  -1.212 -0.3354  0.4677  0.6745
  132MOL   C22742409  13.643  -0.177  -1.240 -0.3523  0.4678  0.4731
  132MOL   C22842410  13.762  -0.145  -1.171  0.3640 -0.1631  0.0300
  132MOL   C22942411  13.886  -0.194  -1.201  0.6062 -0.9388  0.6037
  132MOL   C23042412  13.889  -0.303  -1.292 -0.2685 -0.1829 -0.2134
  132MOL   C23142413  14.026  -0.366  -1.335  0.8224 -0.2724 -0.7584
  132MOL   C23242414  13.772  -0.350  -1.352  0.7036 -0.2526  0.1021
  132MOL   C23342415  13.650  -0.274  -1.338 -0.9302  0.1934  0.5960
  132MOL   H23442416  13.526  -0.005  -1.222  0.6258  0.3004  0.4265
  132MOL   H23542417  13.432  -0.144  -1.283  1.7982 -2.8118 -0.2814
  132MOL   H23642418  13.760  -0.068  -1.095  2.1178  1.7144 -1.7812
  132MOL   H23742419  13.975  -0.158  -1.152  1.5585 -2.3296 -0.0465
  132MOL   H23842420  14.101  -0.336  -1.262  1.4094 -4.0251  0.2591
  132MOL   H23942421  14.014  -0.473  -1.317  0.8531 -0.1158  0.1769
  132MOL   H24042422  13.770  -0.421  -1.434  1.2655  1.7110 -1.6584
  132MOL   H24142423  13.562  -0.308  -1.390 -0.2149 -0.1255 -0.4032
  132MOL   C24242424  14.083  -0.326  -1.467 -0.5767 -0.3328 -0.2947
  132MOL   C24342425  14.220  -0.393  -1.492  0.5411  0.4020  0.2328
  132MOL   C24442426  14.250  -0.480  -1.599  1.0191  0.5252 -0.8266
  132MOL   C24542427  14.376  -0.540  -1.616 -0.0540 -0.1943 -0.0009
  132MOL   C24642428  14.476  -0.509  -1.523  0.0525  0.0704  0.7119
  132MOL   C24742429  14.615  -0.576  -1.535 -0.3886  0.1344  0.2783
  132MOL   C24842430  14.450  -0.424  -1.415 -0.4899 -0.1274 -0.7326
  132MOL   C24942431  14.325  -0.370  -1.401 -0.0896 -0.3128  0.2652
  132MOL   H25042432  14.017  -0.362  -1.546 -2.1851 -0.8967  1.2725
  132MOL   H25142433  14.098  -0.218  -1.471  3.3466 -0.6405  2.6950
  132MOL   H25242434  14.178  -0.506  -1.675  1.2675 -1.2981 -0.4578
  132MOL   H25342435  14.396  -0.607  -1.699 -1.6721 -1.1544  0.3572
  132MOL   H25442436  14.687  -0.540  -1.462  1.9396 -3.2256 -0.2538
  132MOL   H25542437  14.609  -0.685  -1.525 -2.1275  0.0512 -1.2946
  132MOL   H25642438  14.520  -0.398  -1.337 -1.0419 -0.9258  0.0391
  132MOL   H25742439  14.304  -0.310  -1.313  0.7825 -0.4835  0.5931
  132MOL   C25842440  14.681  -0.550  -1.669  0.1241 -0.6711  0.7919
  132MOL   C25942441  14.818  -0.623  -1.675  0.5990 -0.0642  0.3390
  132MOL   C26042442  14.846  -0.730  -1.763  0.1924 -0.0027 -0.1478
  132MOL   C26142443  14.972  -0.783  -1.779  0.2737  0.1685  0.3277
  132MOL   C26242444  15.076  -0.730  -1.699 -0.2015 -0.1971 -0.3498
  132MOL   C26342445  15.221  -0.791  -1.699  0.2560  0.1204  0.3787
  132MOL   C26442446  15.054  -0.632  -1.608  0.4555 -0.5334 -0.2508
  132MOL   C26542447  14.921  -0.581  -1.592 -0.1339  0.3451 -0.3035
  132MOL   H26642448  14.708  -0.445  -1.683 -1.3802 -0.5113 -0.9326
  132MOL   H26742449  14.623  -0.588  -1.752 -1.6361 -0.2827  1.8199
  132MOL   H26842450  14.761  -0.761  -1.821  0.0808 -1.2641  0.6548
  132MOL   H26942451  14.981  -0.873  -1.837 -1.4291 -1.2635  2.1711
  132MOL   H27042452  15.281  -0.741  -1.622  2.3625 -0.3233 -0.9264
  132MOL   H27142453  15.209  -0.896  -1.671  1.7651 -0.2970 -0.5012
  132MOL   H27242454  15.133  -0.600  -1.541  0.1283 -0.9046  0.3181
  132MOL   H27342455  14.912  -0.508  -1.514 -0.1920  0.7678 -0.7065
  132MOL   C27442456  15.297  -0.777  -1.827  0.5740  0.1522 -0.3611
  132MOL   C27542457  15.441  -0.839  -1.834 -0.3945 -0.7668  0.0314
  132MOL   C27642458  15.540  -0.818  -1.733  0.2993 -0.3321  0.3175
  132MOL   C27742459  15.668  -0.864  -1.752  0.0446 -0.3520 -0.3292
  132MOL   C27842460  15.699  -0.945  -1.866 -0.0219 -0.1958 -0.2923
  132MOL   C27942461  15.845  -0.988  -1.895 -0.1701 -0.1252  0.2086
  132MOL   C28042462  15.597  -0.980  -1.955 -0.0980 -0.1264  0.1778
  132MOL   C28142463  15.468  -0.923  -1.944  0.9373  0.7795  0.2439
  132MOL   H28242464  15.240  -0.839  -1.895 -0.0688  1.4818 -1.0610
  132MOL   H28342465  15.283  -0.678  -1.871 -0.4335 -0.8200 -2.2965
  132MOL   H28442466  15.511  -0.765  -1.643 -0.8910 -0.9029  0.2796
  132MOL   H28542467  15.741  -0.823  -1.684  1.0336  1.2348 -2.3006
  132MOL   H28642468  15.840  -1.022  -1.999  1.0037  1.7977 -0.5153
  132MOL   H28742469  15.918  -0.907  -1.889 -0.7395  0.2199  2.9271
  132MOL   H28842470  15.609  -1.038  -2.045 -0.2916 -1.3526  0.9407
  132MOL   H28942471  15.389  -0.953  -2.011 -1.4648  2.7632  2.1019
  132MOL   C29042472  15.880  -1.103  -1.800 -0.0347  0.1636  0.4343
  132MOL   C29142473  16.009  -1.163  -1.840 -0.2348  0.9041  0.3261
  132MOL   C29242474  16.128  -1.089  -1.826  0.7865  0.0658 -0.5799
  132MOL   C29342475  16.252  -1.152  -1.834 -0.0848 -0.1637 -0.0702
  132MOL   C29442476  16.259  -1.283  -1.877  0.2576  0.3923 -0.0320
  132MOL   C29542477  16.394  -1.351  -1.865  0.0244 -0.4646 -0.5076
  132MOL   C29642478  16.138  -1.357  -1.909 -0.0815 -0.0452  0.2395
  132MOL   C29742479  16.014  -1.295  -1.884 -0.1595 -0.5470 -0.2779
  132MOL   H29842480  15.805  -1.182  -1.799  1.0178 -0.8698 -0.8545
  132MOL   H29942481  15.886  -1.073  -1.696  0.1068 -0.0810  0.4955
  132MOL   H30042482  16.122  -0.988  -1.787 -1.2670 -0.4493  0.5121
  132MOL   H30142483  16.332  -1.092  -1.793 -1.2923 -0.2287  2.4188
  132MOL   H30242484  16.423  -1.355  -1.760  2.0573  2.7096 -0.8796
  132MOL   H30342485  16.392  -1.457  -1.888  1.9163 -0.9846  1.5401
  132MOL   H30442486  16.147  -1.461  -1.935 -2.5475  0.3046 -2.2757
  132MOL   H30542487  15.927  -1.358  -1.895  0.1342 -1.0152  0.0307
  132MOL   C30642488  16.505  -1.286  -1.955 -0.1206 -0.9122  0.0167
  132MOL   C30742489  16.637  -1.365  -1.959 -0.7742 -0.8131  0.3286
  132MOL   C30842490  16.627  -1.502  -2.005 -0.2219  0.0831 -0.0362
  132MOL   C30942491  16.740  -1.580  -1.993  0.5091 -0.7076 -0.5589
  132MOL   C31042492  16.856  -1.534  -1.935  0.0677  0.0075  0.4866
  132MOL   C31142493  16.970  -1.624  -1.922 -0.6734 -0.0245 -0.4150
  132MOL   C31242494  16.868  -1.401  -1.887  0.3877 -0.0493  0.1683
  132MOL   C31342495  16.762  -1.308  -1.911  0.3409 -0.3719 -0.1685
  132MOL   H31442496  16.531  -1.182  -1.936 -1.4103 -0.2793 -1.4948
  132MOL   H31542497  16.476  -1.289  -2.060 -2.3880 -0.9227  0.6228
  132MOL   H31642498  16.534  -1.548  -2.032  0.5694 -1.9136  0.5572
  132MOL   H31742499  16.743  -1.682  -2.028  0.5991 -1.1208  0.6350
  132MOL   H31842500  17.064  -1.579  -1.892 -1.2520  0.4222  0.7433
  132MOL   H31942501  16.940  -1.704  -1.854 -2.7331 -1.0563 -2.4391
  132MOL   H32042502  16.961  -1.366  -1.845  0.4203  1.1549 -0.8950
  132MOL   H32142503  16.766  -1.203  -1.890  1.3608 -0.1663 -1.2839
  132MOL   H32242504  16.983  -1.674  -2.018  2.8703  0.2473 -0.1416
  133MOL     C142505   7.401   4.767   3.699  0.2246 -0.4635  0.0572
  133MOL     C242506   7.263   4.830   3.661 -0.2007 -0.5443 -0.2483
  133MOL     C342507   7.182   4.915   3.747  0.4305 -0.7806 -0.3598
  133MOL     C442508   7.051   4.948   3.710 -0.2401 -0.0945 -0.2963
  133MOL     C542509   6.994   4.908   3.589  0.1537 -0.6178 -0.5828
  133MOL     C642510   6.850   4.950   3.556  0.2168  0.4514 -0.3461
  133MOL     C742511   7.069   4.828   3.502  0.7132 -0.6696  0.2562
  133MOL     C842512   7.199   4.785   3.538  0.2741 -0.0085 -0.4143
  133MOL     H942513   7.481   4.803   3.635 -0.6724  1.7764  0.1625
  133MOL    H1042514   7.434   4.798   3.798  0.2702  3.0733 -0.9958
  133MOL    H1142515   7.216   4.940   3.846  1.9584  2.2743 -1.5828
  133MOL    H1242516   6.995   5.011   3.778 -0.3694  0.4123 -0.8687
  133MOL    H1342517   6.809   4.895   3.471 -0.0245  1.7968 -1.1150
  133MOL    H1442518   6.782   4.905   3.629  0.9015 -0.6385 -0.3723
  133MOL    H1542519   7.037   4.811   3.401  1.0335  2.1052 -0.3572
  133MOL    H1642520   7.255   4.731   3.462  0.3659  1.5954 -1.5315
  133MOL    H1742521   7.394   4.659   3.688 -1.2262 -0.3599 -0.1995
  133MOL    C1842522   6.826   5.099   3.539 -0.0817  0.1348 -0.1443
  133MOL    C1942523   6.676   5.128   3.516 -0.1602 -0.0729 -0.0727
  133MOL    C2042524   6.586   5.117   3.624  1.1786 -0.0608 -0.5386
  133MOL    C2142525   6.444   5.146   3.599 -0.3246 -0.8275 -0.1105
  133MOL    C2242526   6.403   5.201   3.475  0.5974  0.2942 -0.4836
  133MOL    C2342527   6.255   5.246   3.470  0.3093  0.7344  0.3325
  133MOL    C2442528   6.500   5.221   3.374 -0.4910 -0.1299  0.6379
  133MOL    C2542529   6.636   5.185   3.394 -0.0684 -0.3247 -0.3083
  133MOL    H2642530   6.863   5.155   3.624  0.0224  1.7752 -1.2562
  133MOL    H2742531   6.888   5.141   3.460 -1.1652  1.0257 -0.5301
  133MOL    H2842532   6.607   5.079   3.723 -1.1524  0.3177  0.1505
  133MOL    H2942533   6.384   5.115   3.683  1.4372 -0.8054  1.1944
  133MOL    H3042534   6.241   5.350   3.438 -1.5504  0.4787  0.3099
  133MOL    H3142535   6.196   5.254   3.561 -2.3343 -2.0486 -1.0741
  133MOL    H3242536   6.476   5.264   3.278  3.7432 -0.2012 -0.5511
  133MOL    H3342537   6.711   5.197   3.317  0.7969 -1.6467  0.2891
  133MOL    C3442538   6.169   5.155   3.383  0.7016 -0.3631  0.3113
  133MOL    C3542539   6.023   5.200   3.374 -0.0148 -0.4300 -0.3720
  133MOL    C3642540   5.931   5.127   3.447  0.1074  0.1824  0.3096
  133MOL    C3742541   5.797   5.166   3.436  0.3752 -0.6283 -0.2728
  133MOL    C3842542   5.758   5.270   3.345 -0.0971 -0.0465 -0.2720
  133MOL    C3942543   5.611   5.316   3.335 -0.2232 -0.0161  1.0284
  133MOL    C4042544   5.853   5.337   3.268  1.0300 -0.2154  0.8668
  133MOL    C4142545   5.986   5.306   3.285  0.0379 -0.0330  0.1206
  133MOL    H4242546   6.157   5.052   3.417  0.4295  0.2607  2.1887
  133MOL    H4342547   6.203   5.145   3.280  0.5419 -1.3375  0.3442
  133MOL    H4442548   5.945   5.049   3.520 -2.7132 -1.2663 -0.6118
  133MOL    H4542549   5.719   5.130   3.501  1.1015 -1.2868  0.2494
  133MOL    H4642550   5.570   5.297   3.434 -0.1948 -0.1911  1.0077
  133MOL    H4742551   5.601   5.423   3.320 -2.2507 -0.1146  1.5237
  133MOL    H4842552   5.828   5.423   3.208  0.2608 -1.2534 -0.3163
  133MOL    H4942553   6.060   5.368   3.237  1.2426 -1.2443  0.3649
  133MOL    C5042554   5.535   5.260   3.208  0.3348  0.1667 -0.1788
  133MOL    C5142555   5.393   5.326   3.210  0.2031  0.0104 -0.2525
  133MOL    C5242556   5.361   5.424   3.111  0.3261  0.2642 -0.3310
  133MOL    C5342557   5.234   5.479   3.113 -0.3164 -0.5403 -0.4950
  133MOL    C5442558   5.130   5.437   3.199 -0.4053 -0.4233 -0.1295
  133MOL    C5542559   4.992   5.494   3.191 -0.6248  0.1194 -0.3304
  133MOL    C5642560   5.163   5.340   3.296  0.0748 -0.4245  0.0730
  133MOL    C5742561   5.295   5.285   3.305  0.3222  0.1863 -0.6579
  133MOL    H5842562   5.545   5.152   3.213  2.2619  0.3667  1.1625
  133MOL    H5942563   5.592   5.288   3.119 -1.6113  1.9971 -0.8937
  133MOL    H6042564   5.430   5.471   3.042 -0.6853  1.1795 -0.7396
  133MOL    H6142565   5.219   5.553   3.036 -1.1610 -0.6815 -0.4758
  133MOL    H6242566   4.920   5.440   3.251  1.0485 -1.1699  0.5710
  133MOL    H6342567   4.988   5.597   3.228 -0.7973 -0.3152  0.8807
  133MOL    H6442568   5.093   5.312   3.374  1.6607 -1.8864  1.0022
  133MOL    H6542569   5.316   5.212   3.382  3.0408  0.2166 -1.3010
  133MOL    C6642570   4.937   5.519   3.045  1.3605 -0.3053 -0.2862
  133MOL    C6742571   4.794   5.567   3.060 -0.8291 -0.2214  0.1295
  133MOL    C6842572   4.763   5.706   3.065 -0.1243  0.2033  0.8105
  133MOL    C6942573   4.634   5.751   3.065 -0.4647 -0.8184 -0.1547
  133MOL    C7042574   4.532   5.660   3.084  0.6808  0.4130  0.3082
  133MOL    C7142575   4.384   5.699   3.103 -0.4879  0.2109  0.2144
  133MOL    C7242576   4.562   5.521   3.081  0.8903  0.0327  0.5019
  133MOL    C7342577   4.692   5.475   3.054  0.2251 -0.4496 -0.5715
  133MOL    H7442578   4.950   5.425   2.991 -4.0070 -0.7374 -1.1013
  133MOL    H7542579   4.997   5.596   2.997  4.0374 -1.6279  0.8247
  133MOL    H7642580   4.839   5.780   3.047 -1.0778  0.9261 -0.2958
  133MOL    H7742581   4.622   5.858   3.072  1.9474 -0.4018 -1.6207
  133MOL    H7842582   4.397   5.796   3.150  2.1753 -1.1381  2.4254
  133MOL    H7942583   4.328   5.635   3.171  0.2532  0.3779  0.9915
  133MOL    H8042584   4.486   5.445   3.081  0.3234  0.5882 -0.1576
  133MOL    H8142585   4.706   5.369   3.041  0.6961 -0.3101 -1.2553
  133MOL    C8242586   4.307   5.729   2.977  0.0979  0.0920  0.0402
  133MOL    C8342587   4.163   5.783   2.989 -1.2855 -0.3286  0.9333
  133MOL    C8442588   4.145   5.913   3.041 -0.1315  0.9111  0.1159
  133MOL    C8542589   4.018   5.969   3.021  0.0803  0.5079 -0.2163
  133MOL    C8642590   3.909   5.887   2.986 -0.0258 -0.8308  0.3312
  133MOL    C8742591   3.773   5.954   2.973 -0.0085 -0.0049  0.3839
  133MOL    C8842592   3.929   5.753   2.951 -0.0371  0.0957  0.6927
  133MOL    C8942593   4.065   5.706   2.936  0.3550  0.1126  0.1267
  133MOL    H9042594   4.312   5.647   2.906  0.4070  0.2550 -0.1286
  133MOL    H9142595   4.357   5.813   2.928 -0.8503 -0.4523 -1.9053
  133MOL    H9242596   4.227   5.970   3.080  1.6088 -1.6088  0.2418
  133MOL    H9342597   4.004   6.074   3.041  0.2622  0.4099  0.4265
  133MOL    H9442598   3.717   5.914   2.888 -0.5651  0.5236  0.5039
  133MOL    H9542599   3.791   6.052   2.929 -0.9195  0.3253  0.7528
  133MOL    H9642600   3.837   5.700   2.931 -0.6568  1.1537  0.6906
  133MOL    H9742601   4.087   5.609   2.895 -0.6602  0.2336 -0.7057
  133MOL    C9842602   3.694   5.964   3.095 -0.1627 -0.2375 -0.1016
  133MOL    C9942603   3.546   5.994   3.073 -0.2774 -0.1592 -0.0625
  133MOL   C10042604   3.506   6.094   2.983 -0.1688  0.3862  0.2394
  133MOL   C10142605   3.367   6.131   2.987 -0.5836  0.6892  0.4012
  133MOL   C10242606   3.271   6.062   3.065  0.1114 -0.3232  0.5248
  133MOL   C10342607   3.126   6.116   3.063 -0.6638  0.4450  0.0681
  133MOL   C10442608   3.314   5.952   3.142  0.2670  0.0530  0.2160
  133MOL   C10542609   3.455   5.920   3.144  0.2338 -0.7310  0.2063
  133MOL   H10642610   3.735   6.046   3.154  1.0847 -0.5720 -0.4700
  133MOL   H10742611   3.705   5.876   3.159  0.5841 -1.0272 -1.3091
  133MOL   H10842612   3.572   6.150   2.918 -0.8975  0.2363 -0.6353
  133MOL   H10942613   3.342   6.213   2.922  2.4138  0.7503 -0.7736
  133MOL   H11042614   3.069   6.061   3.138 -1.8371  2.2261  0.5251
  133MOL   H11142615   3.147   6.217   3.099  2.8066 -0.3027  0.2809
  133MOL   H11242616   3.248   5.908   3.215 -1.4697  0.3884 -1.1263
  133MOL   H11342617   3.492   5.842   3.209  2.0852  1.0387  1.3420
  133MOL   C11442618   3.050   6.107   2.932  0.3053 -0.0534  0.0207
  133MOL   C11542619   2.906   6.152   2.938  0.4051  0.3309  0.6336
  133MOL   C11642620   2.805   6.076   2.997  0.0844  0.1575 -0.5714
  133MOL   C11742621   2.677   6.129   3.003 -0.9217  0.2491 -1.2530
  133MOL   C11842622   2.646   6.253   2.940 -0.4060 -0.2244 -0.0869
  133MOL   C11942623   2.510   6.312   2.948 -0.7586 -0.2491 -0.5051
  133MOL   C12042624   2.748   6.315   2.875  0.1347  0.1253  0.7797
  133MOL   C12142625   2.883   6.274   2.875  0.6231  0.1221  0.0866
  133MOL   H12242626   3.054   6.008   2.888  0.1664  0.5800 -1.4666
  133MOL   H12342627   3.099   6.162   2.852  1.5468 -0.8486  0.2316
  133MOL   H12442628   2.829   5.995   3.064 -0.7372 -0.2640 -0.7855
  133MOL   H12542629   2.602   6.083   3.065  0.5773  2.0655  2.0618
  133MOL   H12642630   2.481   6.325   3.053  0.7731  1.1338 -0.2085
  133MOL   H12742631   2.514   6.415   2.912 -1.4829  0.7642  2.1436
  133MOL   H12842632   2.730   6.415   2.838 -2.1518 -0.5634 -0.0204
  133MOL   H12942633   2.966   6.326   2.830 -0.3903  1.1630 -0.5924
  133MOL   C13042634   2.403   6.236   2.867  0.6398  0.7007 -0.2238
  133MOL   C13142635   2.268   6.296   2.882  0.6894 -0.3254  0.8338
  133MOL   C13242636   2.165   6.223   2.945 -0.5310 -0.0676  0.2661
  133MOL   C13342637   2.039   6.285   2.964  0.3809  0.5853  0.1685
  133MOL   C13442638   2.007   6.418   2.929 -0.5477  0.6529 -0.0134
  133MOL   C13542639   1.873   6.473   2.972 -0.1315  0.1032  0.0171
  133MOL   C13642640   2.117   6.495   2.873  0.1335  0.0322  0.1029
  133MOL   C13742641   2.241   6.437   2.850  0.1343  0.3831 -0.0665
  133MOL   H13842642   2.409   6.143   2.924 -0.8765  0.8759  0.2445
  133MOL   H13942643   2.415   6.228   2.759 -0.9492 -0.4619 -0.3367
  133MOL   H14042644   2.180   6.124   2.986  0.3357 -0.1730 -0.2953
  133MOL   H14142645   1.961   6.227   3.010  0.0960  0.8100 -0.0363
  133MOL   H14242646   1.877   6.459   3.080  0.7542 -1.2590 -0.1861
  133MOL   H14342647   1.870   6.578   2.944  1.5852  0.5261  1.3560
  133MOL   H14442648   2.091   6.598   2.853  0.6344  0.1948  0.2941
  133MOL   H14542649   2.325   6.491   2.808  1.5509 -2.3961 -0.9206
  133MOL   C14642650   1.757   6.398   2.908  0.2956 -0.9709 -0.3068
  133MOL   C14742651   1.618   6.450   2.950 -0.0248  0.2650 -0.7217
  133MOL   C14842652   1.533   6.381   3.039 -0.0144  0.0445 -0.8964
  133MOL   C14942653   1.411   6.438   3.086  0.1075 -0.4025  0.1390
  133MOL   C15042654   1.367   6.559   3.029 -0.1927  0.1290 -0.3134
  133MOL   C15142655   1.234   6.620   3.069 -0.0079 -0.3368  0.4825
  133MOL   C15242656   1.450   6.626   2.938  0.1477  0.1182 -0.3100
  133MOL   C15342657   1.578   6.575   2.902  0.2656  0.5270 -0.2712
  133MOL   H15442658   1.764   6.298   2.951 -0.4398 -0.3348  1.3541
  133MOL   H15542659   1.768   6.405   2.800 -1.0846  2.8490 -0.2734
  133MOL   H15642660   1.567   6.284   3.070 -1.6879 -0.8961 -1.9111
  133MOL   H15742661   1.356   6.382   3.160  1.3236 -3.0684 -0.9013
  133MOL   H15842662   1.232   6.631   3.177 -2.7540 -2.9309  0.7719
  133MOL   H15942663   1.239   6.725   3.040 -1.3507 -0.1334  0.9824
  133MOL   H16042664   1.417   6.721   2.899  1.2509  0.6908  0.1250
  133MOL   H16142665   1.650   6.638   2.853  0.2955  2.1623  1.7972
  133MOL   C16242666   1.111   6.550   3.005 -0.3880  0.7982 -0.6241
  133MOL   C16342667   0.975   6.618   3.037  0.1114  0.1083  1.0587
  133MOL   C16442668   0.958   6.757   3.013  0.0103  0.0468  0.0098
  133MOL   C16542669   0.835   6.814   3.047 -0.1067  0.2765  0.2016
  133MOL   C16642670   0.726   6.736   3.094  0.3996 -0.3008 -0.0031
  133MOL   C16742671   0.588   6.797   3.118 -0.0483 -0.1024  0.1659
  133MOL   C16842672   0.741   6.598   3.116 -0.1253  0.3853 -0.4794
  133MOL   C16942673   0.864   6.536   3.095 -0.2362  0.2795  0.2179
  133MOL   H17042674   1.106   6.456   3.059 -0.4773  1.6480  0.9035
  133MOL   H17142675   1.119   6.531   2.898  1.7246 -0.8778 -0.1888
  133MOL   H17242676   1.024   6.820   2.955 -1.5969  0.1142 -1.8055
  133MOL   H17342677   0.819   6.915   3.012  2.3916 -0.0181 -1.9339
  133MOL   H17442678   0.532   6.739   3.191  2.1875  0.5214  2.4545
  133MOL   H17542679   0.592   6.893   3.170 -0.3504  0.4393 -0.8026
  133MOL   H17642680   0.655   6.546   3.155 -0.0037 -0.2794 -1.1021
  133MOL   H17742681   0.882   6.434   3.124 -1.1158 -0.4574 -1.6944
  133MOL   C17842682   0.519   6.822   2.980  0.2790  0.3351 -0.1259
  133MOL   C17942683   0.383   6.899   2.990  0.1965  0.8829  0.6365
  133MOL   C18042684   0.271   6.820   3.016  0.6908  0.0709 -0.0360
  133MOL   C18142685   0.140   6.874   3.004  0.1811  0.3239  0.3125
  133MOL   C18242686   0.127   7.012   2.983  0.1719 -0.0020  0.3955
  133MOL   C18342687  -0.004   7.084   2.965  0.7421  0.7145 -0.0610
  133MOL   C18442688   0.243   7.092   2.965 -0.2912 -0.0246 -0.3220
  133MOL   C18542689   0.370   7.033   2.961  0.3630 -0.6516 -0.1769
  133MOL   H18642690   0.510   6.732   2.919 -2.2870 -0.4008  1.2677
  133MOL   H18742691   0.588   6.893   2.936  0.7002 -0.4710 -0.7709
  133MOL   H18842692   0.286   6.714   3.034  1.4518  0.0456 -0.8085
  133MOL   H18942693   0.055   6.808   3.006  0.9259 -0.8083 -3.0311
  133MOL   H19042694  -0.046   7.084   3.066  1.0347  1.4980  0.0685
  133MOL   H19142695   0.013   7.187   2.933 -0.5800  1.0276  0.2088
  133MOL   H19242696   0.238   7.196   2.936 -2.9411  1.2853  4.2980
  133MOL   H19342697   0.455   7.096   2.941  0.4786  0.2827  3.0027
  133MOL   C19442698  -0.106   7.016   2.871 -0.4738  0.0969  0.1934
  133MOL   C19542699  -0.242   7.076   2.887 -0.2827 -0.3035  0.0559
  133MOL   C19642700  -0.287   7.176   2.803 -0.5978 -0.3097 -0.5534
  133MOL   C19742701  -0.415   7.223   2.817 -0.0959 -0.5107 -0.4404
  133MOL   C19842702  -0.495   7.193   2.929 -0.3126  0.5913  0.7255
  133MOL   C19942703  -0.627   7.251   2.940 -1.3054 -0.5349 -0.3677
  133MOL   C20042704  -0.451   7.088   3.017  0.7271 -0.0516  0.0785
  133MOL   C20142705  -0.325   7.036   3.003  0.1824  0.1185  0.4193
  133MOL   H20242706  -0.123   6.909   2.886 -0.0377 -0.0697 -0.4692
  133MOL   H20342707  -0.079   7.025   2.766 -1.1793  0.1506  0.0125
  133MOL   H20442708  -0.231   7.205   2.716  0.0763  2.7742  0.8696
  133MOL   H20542709  -0.454   7.299   2.751  0.4750 -0.7096 -1.0156
  133MOL   H20642710  -0.622   7.327   3.018 -1.7740 -1.6534  0.7860
  133MOL   H20742711  -0.650   7.297   2.845  1.5218 -1.1308 -1.3951
  133MOL   H20842712  -0.514   7.039   3.090  0.0483  1.9231  0.8769
  133MOL   H20942713  -0.282   6.970   3.078 -0.0622 -0.6120 -0.0760
  133MOL   C21042714  -0.737   7.149   2.967 -0.1654 -0.7767  0.5966
  133MOL   C21142715  -0.873   7.212   2.979 -0.4650  0.3985  0.2111
  133MOL   C21242716  -0.918   7.304   2.881 -0.2725  0.6626  0.3536
  133MOL   C21342717  -1.051   7.360   2.890  0.0747  0.7508  0.0260
  133MOL   C21442718  -1.139   7.322   2.999  0.6961  0.5076  0.4985
  133MOL   C21542719  -1.275   7.391   3.022  0.1851  0.0067 -0.3010
  133MOL   C21642720  -1.086   7.236   3.094  0.2809 -1.0433 -0.1488
  133MOL   C21742721  -0.964   7.173   3.076 -0.1875  0.6355 -0.6159
  133MOL   H21842722  -0.726   7.095   3.061  0.3672 -0.7084  0.5718
  133MOL   H21942723  -0.735   7.075   2.887 -0.6245 -0.4516  0.2811
  133MOL   H22042724  -0.862   7.347   2.799  2.2241  0.5904  1.9858
  133MOL   H22142725  -1.089   7.426   2.814 -1.3331  0.0702  0.1072
  133MOL   H22242726  -1.317   7.342   3.110  0.4940 -0.2920 -0.3167
  133MOL   H22342727  -1.265   7.497   3.045 -0.2448 -0.0472  0.1430
  133MOL   H22442728  -1.136   7.206   3.185  0.4336  0.5491  0.4730
  133MOL   H22542729  -0.944   7.086   3.137 -1.0487  0.3124 -0.7786
  133MOL   C22642730  -1.373   7.379   2.906  0.1903  0.0019  0.0724
  133MOL   C22742731  -1.506   7.444   2.937 -0.3929  0.3071 -0.0651
  133MOL   C22842732  -1.522   7.580   2.907  0.2007 -0.5184 -0.0554
  133MOL   C22942733  -1.635   7.652   2.942 -0.1505  0.4368  0.7845
  133MOL   C23042734  -1.738   7.588   3.008 -0.1296  0.0284 -0.1056
  133MOL   C23142735  -1.865   7.667   3.031 -0.3775  0.4334 -0.5078
  133MOL   C23242736  -1.727   7.449   3.041 -0.1274  1.0009 -0.5272
  133MOL   C23342737  -1.609   7.377   3.009 -0.2710 -0.6243  0.3325
  133MOL   H23442738  -1.384   7.279   2.864 -0.1128  0.6608 -1.4588
  133MOL   H23542739  -1.333   7.427   2.816 -0.1727 -3.1493 -1.8385
  133MOL   H23642740  -1.442   7.625   2.850 -1.6820  0.9640 -1.5784
  133MOL   H23742741  -1.645   7.756   2.915  0.9193  0.6667  1.2410
  133MOL   H23842742  -1.883   7.645   3.137 -0.6546 -0.5814 -0.7635
  133MOL   H23942743  -1.848   7.775   3.036 -0.7916  0.5313 -1.1943
  133MOL   H24042744  -1.811   7.399   3.087  1.2879 -0.5419  0.4038
  133MOL   H24142745  -1.597   7.278   3.051 -1.5261 -1.2386 -0.7521
  133MOL   C24242746  -1.973   7.622   2.931 -0.7381  0.0869 -0.9571
  133MOL   C24342747  -2.099   7.704   2.971 -0.0924  0.2189  0.2321
  133MOL   C24442748  -2.127   7.835   2.924  0.0394 -0.6930  0.6611
  133MOL   C24542749  -2.244   7.906   2.966 -0.7872  0.8670  0.1304
  133MOL   C24642750  -2.333   7.846   3.050  0.0026  0.0079  0.0561
  133MOL   C24742751  -2.458   7.923   3.078  0.2319 -0.5442 -0.4832
  133MOL   C24842752  -2.311   7.712   3.097  0.0430 -0.1187  0.1647
  133MOL   C24942753  -2.195   7.647   3.056  0.5371  0.0218  0.3122
  133MOL   H25042754  -1.942   7.635   2.827  0.6657 -1.9615 -0.8245
  133MOL   H25142755  -2.012   7.521   2.941 -2.1179  0.3986 -3.0682
  133MOL   H25242756  -2.049   7.882   2.867 -0.2313 -1.0314 -0.0022
  133MOL   H25342757  -2.252   8.005   2.923  2.6218  0.4995 -1.5102
  133MOL   H25442758  -2.480   7.927   3.185 -0.5251 -1.3813 -0.6084
  133MOL   H25542759  -2.448   8.028   3.050  1.3618 -1.6260 -4.3970
  133MOL   H25642760  -2.382   7.673   3.169 -0.6936  1.6388  0.4290
  133MOL   H25742761  -2.175   7.554   3.108 -0.2151 -1.0521 -1.2586
  133MOL   C25842762  -2.575   7.872   3.000  0.2416 -0.0093  1.0534
  133MOL   C25942763  -2.699   7.947   3.042 -0.2079  0.8192  0.0297
  133MOL   C26042764  -2.793   7.877   3.111  0.7639 -0.6642  0.2070
  133MOL   C26142765  -2.911   7.946   3.158  0.1613  0.1049  0.0411
  133MOL   C26242766  -2.935   8.080   3.119 -0.2408 -0.4429  1.1311
  133MOL   C26342767  -3.074   8.143   3.144  0.7631 -0.4575 -0.1742
  133MOL   C26442768  -2.845   8.142   3.030 -0.2647  0.5144  0.2428
  133MOL   C26542769  -2.723   8.077   2.992 -0.0969 -0.4369 -0.3792
  133MOL   H26642770  -2.573   7.763   3.005  0.6937 -0.1098 -0.8007
  133MOL   H26742771  -2.546   7.900   2.899 -0.7255  0.8283  1.0024
  133MOL   H26842772  -2.777   7.772   3.134 -0.9236 -1.6413 -2.8957
  133MOL   H26942773  -2.973   7.883   3.220  0.3304 -0.1114 -0.0077
  133MOL   H27042774  -3.107   8.113   3.243  1.8154 -0.2922  0.2375
  133MOL   H27142775  -3.059   8.251   3.137  2.7097 -0.8208 -2.4101
  133MOL   H27242776  -2.859   8.241   2.990  2.1543  1.1137  0.7930
  133MOL   H27342777  -2.637   8.134   2.961 -0.1278 -0.6714 -0.8932
  133MOL   C27442778  -3.161   8.117   3.023 -0.4288 -0.8484 -0.2620
  133MOL   C27542779  -3.306   8.152   3.044 -0.1017 -0.2383 -0.6634
  133MOL   C27642780  -3.392   8.063   3.114 -0.1870  0.0352 -0.2111
  133MOL   C27742781  -3.529   8.088   3.137  0.1895  0.6768  0.3179
  133MOL   C27842782  -3.582   8.199   3.068 -0.5535  0.6291 -0.1073
  133MOL   C27942783  -3.737   8.221   3.067  0.1469  0.1315  0.2777
  133MOL   C28042784  -3.505   8.284   2.992  0.0906 -0.2487 -0.0038
  133MOL   C28142785  -3.364   8.266   2.986  0.3400  0.2610  0.7261
  133MOL   H28242786  -3.125   8.167   2.933  2.3995 -0.7717  0.8667
  133MOL   H28342787  -3.154   8.011   3.001  1.2620 -0.9114  0.4852
  133MOL   H28442788  -3.342   7.982   3.165  1.1322  1.6163  1.0837
  133MOL   H28542789  -3.583   8.018   3.200  0.5738 -0.9867 -1.1570
  133MOL   H28642790  -3.757   8.220   2.959  1.2408 -1.5100  0.0779
  133MOL   H28742791  -3.787   8.143   3.124 -0.7997 -0.3123 -1.1346
  133MOL   H28842792  -3.559   8.358   2.934  0.1969 -0.0119  0.1967
  133MOL   H28942793  -3.314   8.339   2.925 -0.0521  1.6223  2.0007
  133MOL   C29042794  -3.784   8.355   3.116 -0.2172 -0.4561  0.5268
  133MOL   C29142795  -3.933   8.383   3.086  0.3212  0.3224 -0.1689
  133MOL   C29242796  -4.035   8.284   3.116  0.2175 -0.1557  0.7218
  133MOL   C29342797  -4.168   8.307   3.095  0.1815  0.0494  0.3916
  133MOL   C29442798  -4.205   8.437   3.050  0.0184 -0.3400  0.0085
  133MOL   C29542799  -4.355   8.461   3.031 -0.1774 -0.7263 -0.1241
  133MOL   C29642800  -4.112   8.532   3.009  0.5102 -0.3915  0.7583
  133MOL   C29742801  -3.973   8.507   3.027  0.1811 -0.8267  0.2650
  133MOL   H29842802  -3.721   8.432   3.073  0.0642 -0.1602  1.4544
  133MOL   H29942803  -3.766   8.346   3.223 -0.0632 -0.1563  0.5263
  133MOL   H30042804  -4.011   8.183   3.144  0.3567  0.2566  2.1376
  133MOL   H30142805  -4.251   8.243   3.121  0.5835 -0.4923  0.3487
  133MOL   H30242806  -4.380   8.505   2.934 -0.9745  0.7467  0.7383
  133MOL   H30342807  -4.401   8.362   3.028  0.5836 -1.0732 -0.7086
  133MOL   H30442808  -4.128   8.628   2.961 -0.5814 -0.3510  1.1653
  133MOL   H30542809  -3.908   8.588   2.999 -1.1935  0.7933  1.6187
  133MOL   C30642810  -4.417   8.557   3.141  0.5016  0.2371  0.9783
  133MOL   C30742811  -4.567   8.569   3.133  0.2576 -0.4018 -0.4037
  133MOL   C30842812  -4.616   8.693   3.094 -0.2910 -0.0803  0.0684
  133MOL   C30942813  -4.756   8.714   3.083 -0.5243 -0.7351 -0.4017
  133MOL   C31042814  -4.852   8.609   3.086 -0.6611 -0.3896  0.1876
  133MOL   C31142815  -4.995   8.625   3.043 -0.5671 -0.0962  0.8642
  133MOL   C31242816  -4.798   8.479   3.117 -0.2535 -0.1494  0.3044
  133MOL   C31342817  -4.660   8.457   3.142 -0.4589 -0.2879 -0.1004
  133MOL   H31442818  -4.369   8.654   3.129  2.2958 -0.6872  0.5104
  133MOL   H31542819  -4.380   8.535   3.241  1.9991 -0.7495  0.2291
  133MOL   H31642820  -4.553   8.780   3.079 -1.3553  0.7630  0.4525
  133MOL   H31742821  -4.799   8.810   3.059 -1.8500 -1.6334 -1.7808
  133MOL   H31842822  -4.981   8.651   2.938  0.6310 -2.1549  0.4887
  133MOL   H31942823  -5.055   8.534   3.045  1.8426 -1.7254  0.4887
  133MOL   H32042824  -4.863   8.392   3.122 -1.9938  1.0556 -0.7229
  133MOL   H32142825  -4.619   8.357   3.151 -1.8633 -0.8460  0.2946
  133MOL   H32242826  -5.041   8.713   3.089 -3.6876 -1.2191 -0.0228
  134MOL     C142827   3.281   1.537   7.507  0.3695  0.1230 -0.2605
  134MOL     C242828   3.391   1.440   7.462  0.4857  0.7123  0.0518
  134MOL     C342829   3.423   1.328   7.545 -0.0531  0.1897  0.3420
  134MOL     C442830   3.524   1.239   7.501  0.3492  0.3033  0.2108
  134MOL     C542831   3.601   1.260   7.384 -0.5162 -0.2795  0.1325
  134MOL     C642832   3.710   1.164   7.351  0.3210 -0.4718 -0.6874
  134MOL     C742833   3.565   1.372   7.298  0.1624  0.1588  0.5980
  134MOL     C842834   3.455   1.459   7.335 -0.3752 -0.1032 -0.2039
  134MOL     H942835   3.217   1.476   7.571  0.3529  0.2497 -0.1559
  134MOL    H1042836   3.339   1.604   7.570  0.1943  0.1539 -0.1321
  134MOL    H1142837   3.370   1.307   7.637 -0.5315  0.5990  0.1623
  134MOL    H1242838   3.543   1.155   7.566  1.6277  0.4443  0.0348
  134MOL    H1342839   3.708   1.083   7.424  0.1547 -1.4677 -1.7795
  134MOL    H1442840   3.691   1.128   7.250 -0.9594 -0.2350 -0.5342
  134MOL    H1542841   3.612   1.394   7.203 -2.0431  0.1006 -0.5260
  134MOL    H1642842   3.439   1.546   7.273 -2.4147 -0.3740 -0.0732
  134MOL    H1742843   3.232   1.590   7.425 -0.7975 -1.6276 -0.7197
  134MOL    C1842844   3.849   1.232   7.362 -0.2942  0.3421  0.4946
  134MOL    C1942845   3.965   1.132   7.343 -0.6897 -0.6088  0.3333
  134MOL    C2042846   3.991   1.049   7.443 -0.2062 -0.4895  0.1011
  134MOL    C2142847   4.097   0.959   7.429  0.1179 -0.2765 -0.0631
  134MOL    C2242848   4.182   0.949   7.316  0.8104 -0.6759 -0.7502
  134MOL    C2342849   4.296   0.855   7.305 -0.3096  0.0826  0.3002
  134MOL    C2442850   4.156   1.045   7.217  0.1239  0.3958  0.0936
  134MOL    C2542851   4.048   1.130   7.228 -0.0071 -0.8790 -0.2117
  134MOL    H2642852   3.847   1.307   7.284  0.5637  0.2278  0.3591
  134MOL    H2742853   3.848   1.283   7.458  1.9571 -0.4503  0.9792
  134MOL    H2842854   3.936   1.050   7.535 -0.1418  0.2982  0.1331
  134MOL    H2942855   4.113   0.889   7.510  1.5242  0.5840  0.4195
  134MOL    H3042856   4.282   0.813   7.205  1.6067 -0.8843  0.4043
  134MOL    H3142857   4.274   0.779   7.380  0.3062  0.0354  0.4368
  134MOL    H3242858   4.219   1.053   7.129  0.4777 -3.7982 -0.1319
  134MOL    H3342859   4.039   1.190   7.139 -1.0123 -0.3394  0.2430
  134MOL    C3442860   4.434   0.916   7.339 -0.2531 -0.1546  0.9604
  134MOL    C3542861   4.548   0.807   7.338 -0.5036  0.0525 -0.0192
  134MOL    C3642862   4.650   0.813   7.241 -0.3529  0.2548  0.2147
  134MOL    C3742863   4.758   0.727   7.246 -0.0605 -0.2650  0.5685
  134MOL    C3842864   4.773   0.639   7.354 -0.6019  0.4712  0.9871
  134MOL    C3942865   4.895   0.546   7.368  0.6194  0.3726 -0.2487
  134MOL    C4042866   4.670   0.632   7.444  0.4323  0.0876 -0.5725
  134MOL    C4142867   4.555   0.710   7.435  0.5239  0.0369  0.0423
  134MOL    H4242868   4.431   0.961   7.438 -0.5905  2.5286 -0.2139
  134MOL    H4342869   4.465   0.994   7.270  0.0513  0.1514  1.4427
  134MOL    H4442870   4.646   0.878   7.154  2.2130 -0.1216 -0.2304
  134MOL    H4542871   4.841   0.738   7.177  0.3924 -0.5351  1.0710
  134MOL    H4642872   4.865   0.458   7.424  2.4689 -0.9769 -1.3168
  134MOL    H4742873   4.939   0.514   7.274 -1.0240 -0.9151 -0.6045
  134MOL    H4842874   4.681   0.567   7.530 -0.1859  0.6277 -0.0828
  134MOL    H4942875   4.478   0.693   7.508  0.2040 -0.0084 -0.3054
  134MOL    C5042876   5.012   0.624   7.437 -0.7676  0.9449  0.4580
  134MOL    C5142877   5.142   0.555   7.410 -0.1057  0.5442  0.2320
  134MOL    C5242878   5.244   0.611   7.341  0.1249 -0.5641 -0.2542
  134MOL    C5342879   5.365   0.550   7.319 -0.0672 -0.5026 -0.8109
  134MOL    C5442880   5.372   0.411   7.348  0.0096 -0.3351  0.7273
  134MOL    C5542881   5.476   0.322   7.278  0.1894 -0.0144 -0.4987
  134MOL    C5642882   5.274   0.350   7.425 -0.2505 -0.3816  0.6155
  134MOL    C5742883   5.162   0.420   7.456 -0.6081 -0.5098 -0.5074
  134MOL    H5842884   4.998   0.645   7.543 -0.0644  1.2435  0.4897
  134MOL    H5942885   5.020   0.729   7.408  0.9493  0.8261  0.4554
  134MOL    H6042886   5.238   0.706   7.291  0.1957  0.2158  1.1704
  134MOL    H6142887   5.437   0.602   7.257  1.3559 -0.8898  0.4906
  134MOL    H6242888   5.423   0.243   7.224 -0.2546 -0.3722  0.4400
  134MOL    H6342889   5.531   0.376   7.201  0.9972 -0.0210  0.0682
  134MOL    H6442890   5.272   0.244   7.448 -1.8244 -0.6045 -0.4960
  134MOL    H6542891   5.086   0.373   7.517 -0.3747  0.9590  0.9334
  134MOL    C6642892   5.582   0.264   7.368  0.5079 -0.3673  0.3234
  134MOL    C6742893   5.701   0.203   7.299  0.6389 -0.2607 -1.0533
  134MOL    C6842894   5.676   0.083   7.226  0.1099  0.4452 -0.2510
  134MOL    C6942895   5.783   0.010   7.166 -0.5229 -0.3717 -0.9310
  134MOL    C7042896   5.910   0.056   7.189 -0.5071  0.0018 -0.1275
  134MOL    C7142897   6.036  -0.012   7.131  0.4079  0.4655  0.1348
  134MOL    C7242898   5.935   0.174   7.263 -0.1521  0.4496  0.2225
  134MOL    C7342899   5.830   0.252   7.316  0.0568  0.9470  0.1006
  134MOL    H7442900   5.532   0.195   7.436 -0.3251 -0.2984 -0.2080
  134MOL    H7542901   5.636   0.340   7.424 -1.1969  0.8278  0.4105
  134MOL    H7642902   5.573   0.048   7.230  0.7023 -1.2126  1.2624
  134MOL    H7742903   5.768  -0.079   7.106 -1.7280  0.2802 -1.6221
  134MOL    H7842904   6.114   0.062   7.112  1.1410 -0.5980 -1.1119
  134MOL    H7942905   6.015  -0.033   7.026  0.1917  0.6500  0.1406
  134MOL    H8042906   6.034   0.189   7.303 -0.5835 -0.8167  1.8031
  134MOL    H8142907   5.861   0.335   7.377  2.6524 -0.6365  0.9616
  134MOL    C8242908   6.093  -0.141   7.203 -0.3892 -0.3417  0.9768
  134MOL    C8342909   6.210  -0.193   7.117 -0.0138  0.1965 -0.0080
  134MOL    C8442910   6.197  -0.295   7.023  1.0051 -0.2846  0.5466
  134MOL    C8542911   6.304  -0.339   6.946  0.4088  0.2468 -0.2121
  134MOL    C8642912   6.435  -0.281   6.972 -0.5506  0.1086  0.0783
  134MOL    C8742913   6.549  -0.340   6.894 -0.4099 -0.8322  0.1997
  134MOL    C8842914   6.449  -0.176   7.071  0.3657  0.0819 -0.0842
  134MOL    C8942915   6.333  -0.138   7.145  0.1050  0.3321 -0.3221
  134MOL    H9042916   6.003  -0.202   7.206 -0.8301  0.2378 -0.1936
  134MOL    H9142917   6.114  -0.104   7.303 -0.4000  0.5037  0.6716
  134MOL    H9242918   6.103  -0.337   6.991  0.7056  0.2540  0.7192
  134MOL    H9342919   6.293  -0.418   6.873  1.9660 -1.3234  1.1979
  134MOL    H9442920   6.616  -0.255   6.877 -1.5593 -0.2561 -1.5010
  134MOL    H9542921   6.524  -0.374   6.794  0.6065 -0.8615 -0.0534
  134MOL    H9642922   6.542  -0.130   7.101 -0.8094  0.1097  3.6898
  134MOL    H9742923   6.336  -0.059   7.219  0.4064  0.6893 -0.7132
  134MOL    C9842924   6.623  -0.449   6.972 -0.5009 -0.0360 -1.0547
  134MOL    C9942925   6.742  -0.489   6.895  0.4105  0.6640  0.6616
  134MOL   C10042926   6.870  -0.444   6.925  0.1025 -0.0879  0.3667
  134MOL   C10142927   6.978  -0.485   6.855 -0.2105 -0.0446 -0.2775
  134MOL   C10242928   6.964  -0.580   6.757 -0.1598  0.7234  0.3316
  134MOL   C10342929   7.085  -0.626   6.685  0.1133  0.0024  1.3632
  134MOL   C10442930   6.838  -0.626   6.722  0.5170  0.2115 -0.3950
  134MOL   C10542931   6.726  -0.579   6.792 -0.3052 -0.1142 -0.8022
  134MOL   H10642932   6.559  -0.533   6.998  0.4865 -0.7557 -0.8898
  134MOL   H10742933   6.656  -0.407   7.068 -2.5175  0.6088 -0.6143
  134MOL   H10842934   6.900  -0.365   6.992 -1.8948 -0.6428  1.9488
  134MOL   H10942935   7.075  -0.447   6.881  0.1019 -2.0727  1.6681
  134MOL   H11042936   7.053  -0.690   6.603  2.8122  1.1268 -0.6428
  134MOL   H11142937   7.141  -0.544   6.640 -0.2037 -1.0762 -1.1125
  134MOL   H11242938   6.818  -0.689   6.636 -1.4014  0.3486 -0.0783
  134MOL   H11342939   6.626  -0.611   6.768 -0.3534 -0.4397 -0.1719
  134MOL   C11442940   7.174  -0.703   6.779 -0.0241 -0.0802 -0.3208
  134MOL   C11542941   7.304  -0.753   6.717 -0.4388 -0.7810  0.0554
  134MOL   C11642942   7.305  -0.819   6.590 -0.0570  0.6699 -0.2592
  134MOL   C11742943   7.424  -0.875   6.543  0.1507 -0.2289  0.0231
  134MOL   C11842944   7.547  -0.851   6.609 -0.0329 -1.1009  0.4941
  134MOL   C11942945   7.674  -0.913   6.557 -0.7329  0.4976 -0.9098
  134MOL   C12042946   7.549  -0.777   6.728 -0.6102 -0.7821  0.3700
  134MOL   C12142947   7.425  -0.738   6.785 -0.4440 -0.1688  0.3534
  134MOL   H12242948   7.120  -0.782   6.830 -1.3155  0.0912 -1.3789
  134MOL   H12342949   7.214  -0.631   6.850 -0.2085 -0.2276 -0.0703
  134MOL   H12442950   7.214  -0.825   6.532  0.4688  1.4401 -1.1971
  134MOL   H12542951   7.422  -0.942   6.458  0.2202  1.5658 -1.4243
  134MOL   H12642952   7.648  -0.990   6.484 -0.0860 -1.6541  1.0524
  134MOL   H12742953   7.730  -0.835   6.506  0.4008  0.2501 -0.0880
  134MOL   H12842954   7.642  -0.753   6.777 -1.0616  0.3310  0.7015
  134MOL   H12942955   7.427  -0.686   6.880  2.4185  1.1674 -0.3767
  134MOL   C13042956   7.764  -0.993   6.658  0.1917  0.0404  0.0027
  134MOL   C13142957   7.876  -1.067   6.597  0.4928  0.3051 -0.4024
  134MOL   C13242958   7.847  -1.186   6.523 -0.0306  0.1120 -0.0917
  134MOL   C13342959   7.953  -1.250   6.457 -0.1413 -0.1723 -0.7025
  134MOL   C13442960   8.087  -1.206   6.475 -0.9297  0.0588  0.7582
  134MOL   C13542961   8.197  -1.290   6.411  0.0442  0.0411 -0.4841
  134MOL   C13642962   8.116  -1.096   6.550  0.5389 -0.4237  0.5770
  134MOL   C13742963   8.008  -1.019   6.607 -0.1628 -0.2401  0.5978
  134MOL   H13842964   7.703  -1.058   6.720 -0.6430  1.7549  1.0390
  134MOL   H13942965   7.804  -0.934   6.741  3.3390 -0.4403 -1.1228
  134MOL   H14042966   7.750  -1.232   6.512  0.6610 -1.2999 -0.4377
  134MOL   H14142967   7.938  -1.337   6.394 -3.5285 -1.3100  1.5438
  134MOL   H14242968   8.166  -1.357   6.331 -0.1832 -0.2225 -0.1768
  134MOL   H14342969   8.276  -1.225   6.374  1.4026 -0.7274  0.9839
  134MOL   H14442970   8.219  -1.068   6.569  0.3948  0.4684  0.0353
  134MOL   H14542971   8.032  -0.928   6.660 -0.4005  0.4722 -0.4798
  134MOL   C14642972   8.263  -1.387   6.505  0.0084 -0.3066 -0.0194
  134MOL   C14742973   8.384  -1.461   6.443  0.3963  0.5196 -0.2618
  134MOL   C14842974   8.512  -1.407   6.459  0.8854 -0.5980  0.2367
  134MOL   C14942975   8.622  -1.472   6.416  0.0512 -0.4968  0.2491
  134MOL   C15042976   8.608  -1.593   6.352  0.4110 -0.1322  0.4779
  134MOL   C15142977   8.737  -1.667   6.313 -0.5736  0.0507 -0.4478
  134MOL   C15242978   8.482  -1.649   6.332  0.2795  0.2786  0.8480
  134MOL   C15342979   8.366  -1.581   6.373  0.4667  0.8405  0.0981
  134MOL   H15442980   8.198  -1.471   6.534 -0.6652 -0.1819 -1.1427
  134MOL   H15542981   8.287  -1.336   6.598  0.2452 -1.1078  0.3606
  134MOL   H15642982   8.509  -1.306   6.497 -0.5427  0.7818 -3.3180
  134MOL   H15742983   8.721  -1.428   6.427 -1.3173  2.6004  0.6634
  134MOL   H15842984   8.706  -1.753   6.253  1.4168 -0.0344 -1.4093
  134MOL   H15942985   8.783  -1.590   6.252 -3.8556  1.9106 -0.6650
  134MOL   H16042986   8.454  -1.740   6.280  0.5456 -0.2211  1.5619
  134MOL   H16142987   8.269  -1.624   6.351  0.2187  0.4985  1.7924
  134MOL   C16242988   8.833  -1.715   6.424 -0.4779  0.1092 -0.1717
  134MOL   C16342989   8.965  -1.766   6.371  0.0042 -0.2641 -0.0153
  134MOL   C16442990   8.982  -1.899   6.329 -0.4179  0.7832 -0.3876
  134MOL   C16542991   9.104  -1.945   6.286 -0.4195 -0.2946 -0.3369
  134MOL   C16642992   9.214  -1.864   6.269  0.2575 -0.3888 -0.6852
  134MOL   C16742993   9.347  -1.914   6.207  0.8310  0.5678  0.0537
  134MOL   C16842994   9.200  -1.727   6.306  0.9076 -0.8874 -0.0230
  134MOL   C16942995   9.076  -1.680   6.355 -0.8118  0.2201  0.5750
  134MOL   H17042996   8.787  -1.801   6.473  1.0944 -1.0056 -0.6090
  134MOL   H17142997   8.846  -1.636   6.498 -0.6991 -0.0218  0.0074
  134MOL   H17242998   8.910  -1.980   6.333  0.7045 -0.1434  1.7728
  134MOL   H17342999   9.135  -2.048   6.277  1.2096  0.1791 -0.2913
  134MOL   H17443000   9.328  -1.961   6.111 -1.5497  0.5961  0.4827
  134MOL   H17543001   9.415  -1.833   6.182  0.8753  0.2145 -0.9827
  134MOL   H17643002   9.279  -1.656   6.284  1.6288 -0.9686  2.2065
  134MOL   H17743003   9.077  -1.574   6.374  0.8201  0.1175  1.1985
  134MOL   C17843004   9.418  -2.014   6.295 -0.0309  0.1212 -0.3323
  134MOL   C17943005   9.563  -2.042   6.256  0.3442 -0.0890  0.2471
  134MOL   C18043006   9.660  -1.960   6.310 -0.2215 -0.4635 -0.0511
  134MOL   C18143007   9.792  -1.988   6.285  0.2885  0.5060  0.6871
  134MOL   C18243008   9.831  -2.094   6.200  0.0209 -0.0433 -0.3993
  134MOL   C18343009   9.978  -2.124   6.170 -0.0718 -0.2732  1.2508
  134MOL   C18443010   9.732  -2.177   6.144 -1.1060 -0.8973 -0.1902
  134MOL   C18543011   9.595  -2.148   6.168 -0.3831  0.8484 -0.3340
  134MOL   H18643012   9.367  -2.110   6.305 -0.7021  0.3245 -1.7822
  134MOL   H18743013   9.415  -1.980   6.399  2.0100 -1.1531  0.1870
  134MOL   H18843014   9.644  -1.880   6.380  0.3188  1.1747 -1.7560
  134MOL   H18943015   9.877  -1.949   6.338  0.8337  1.0797 -0.5853
  134MOL   H19043016   9.986  -2.130   6.062 -0.0500 -3.4243  1.3886
  134MOL   H19143017  10.039  -2.036   6.190  1.8826 -0.6996 -2.5660
  134MOL   H19243018   9.763  -2.249   6.070 -1.2208 -0.6534 -0.4791
  134MOL   H19343019   9.510  -2.203   6.130 -0.8433  0.8957  0.6205
  134MOL   C19443020  10.037  -2.245   6.247  0.1254  0.0836  0.1124
  134MOL   C19543021  10.167  -2.301   6.190  0.0251 -0.3041 -0.1666
  134MOL   C19643022  10.292  -2.241   6.221 -0.3556 -0.4751  0.2261
  134MOL   C19743023  10.411  -2.289   6.169 -0.8208 -0.1950 -0.4428
  134MOL   C19843024  10.412  -2.402   6.091  0.6024 -0.8666  0.1858
  134MOL   C19943025  10.546  -2.457   6.043  0.9123 -0.4962 -0.2021
  134MOL   C20043026  10.288  -2.471   6.064  0.5126  0.9249  0.3708
  134MOL   C20143027  10.168  -2.417   6.113  0.2479 -0.4204 -1.0135
  134MOL   H20243028   9.968  -2.330   6.251  0.6287 -0.3801 -0.8468
  134MOL   H20343029  10.060  -2.220   6.350 -0.7467 -1.0158  0.5933
  134MOL   H20443030  10.288  -2.156   6.288 -1.8579 -0.6207  0.3410
  134MOL   H20543031  10.507  -2.246   6.190 -0.7734 -0.8640  0.7875
  134MOL   H20643032  10.594  -2.503   6.129  3.3951 -0.0701 -1.3128
  134MOL   H20743033  10.546  -2.538   5.969  3.2315  1.0051 -1.9082
  134MOL   H20843034  10.290  -2.569   6.019 -1.4573  1.4394 -0.8782
  134MOL   H20943035  10.077  -2.472   6.093 -1.0501  1.8697 -1.6365
  134MOL   C21043036  10.643  -2.351   5.991  0.2050 -0.0661 -0.3152
  134MOL   C21143037  10.764  -2.405   5.921  0.1713 -0.5104 -0.0525
  134MOL   C21243038  10.763  -2.394   5.779 -0.0272 -0.1903  0.6991
  134MOL   C21343039  10.884  -2.428   5.718 -0.2067  0.0428  0.5132
  134MOL   C21443040  10.998  -2.479   5.783  0.7986 -0.2708  0.1474
  134MOL   C21543041  11.126  -2.518   5.708  0.0156 -0.0070  0.2554
  134MOL   C21643042  10.992  -2.494   5.925 -0.1972  0.0692 -0.3138
  134MOL   C21743043  10.872  -2.458   5.992  0.1656 -0.0324  0.1466
  134MOL   H21843044  10.681  -2.290   6.074 -0.1236 -0.8171  0.3951
  134MOL   H21943045  10.592  -2.288   5.918 -0.0897  0.6808  0.5292
  134MOL   H22043046  10.677  -2.366   5.720  1.0791 -0.2617 -1.0073
  134MOL   H22143047  10.897  -2.422   5.611  5.8571 -0.6791  1.0116
  134MOL   H22243048  11.157  -2.612   5.753  1.8742  0.4298 -0.0805
  134MOL   H22343049  11.098  -2.542   5.605 -2.1915 -0.2041  0.8648
  134MOL   H22443050  11.090  -2.515   5.967  0.9228  1.3177 -2.2228
  134MOL   H22543051  10.866  -2.458   6.100 -1.4844  1.7189  0.0942
  134MOL   C22643052  11.237  -2.420   5.726  0.2331  0.5100 -0.2055
  134MOL   C22743053  11.370  -2.459   5.650  0.1792 -0.0341 -0.1509
  134MOL   C22843054  11.360  -2.462   5.509 -0.0255  0.8346  0.3882
  134MOL   C22943055  11.472  -2.512   5.436 -0.1629  0.3053 -0.6791
  134MOL   C23043056  11.579  -2.568   5.505  0.7039  0.4754 -0.3263
  134MOL   C23143057  11.701  -2.604   5.425  0.9471  0.2358 -0.2521
  134MOL   C23243058  11.581  -2.567   5.645  1.0204  0.3008  0.1829
  134MOL   C23343059  11.481  -2.509   5.720 -0.0054  0.5268 -0.2794
  134MOL   H23443060  11.253  -2.403   5.832  0.3294  0.7975 -0.2645
  134MOL   H23543061  11.202  -2.326   5.683 -0.8647 -0.1291 -0.7363
  134MOL   H23643062  11.268  -2.431   5.462  1.3995  1.9898 -1.7157
  134MOL   H23743063  11.478  -2.491   5.330  0.1765 -0.1776 -0.7551
  134MOL   H23843064  11.771  -2.673   5.471 -1.1437 -0.8897  1.3472
  134MOL   H23943065  11.682  -2.669   5.339 -1.5370 -1.8611  1.7534
  134MOL   H24043066  11.663  -2.607   5.701  2.0862  2.2808  0.0620
  134MOL   H24143067  11.491  -2.502   5.828 -0.7883  1.2025 -0.2376
  134MOL   C24243068  11.776  -2.477   5.388  0.7963 -0.1375 -0.4103
  134MOL   C24343069  11.918  -2.494   5.341 -0.4217  0.1160 -0.1091
  134MOL   C24443070  11.947  -2.488   5.206 -0.9312  0.2985  0.7531
  134MOL   C24543071  12.075  -2.523   5.159 -0.4813 -0.0252  0.3059
  134MOL   C24643072  12.180  -2.537   5.252 -0.2115  0.3930  0.0266
  134MOL   C24743073  12.321  -2.553   5.204 -0.1513 -0.8815 -0.0132
  134MOL   C24843074  12.149  -2.527   5.393 -0.0740 -0.1349 -0.1441
  134MOL   C24943075  12.016  -2.516   5.441 -0.8843  0.5828 -0.2760
  134MOL   H25043076  11.727  -2.420   5.309  1.5728  1.1089 -0.0139
  134MOL   H25143077  11.775  -2.411   5.474  1.6916 -2.4816  1.4321
  134MOL   H25243078  11.863  -2.473   5.140 -0.3355  0.1472 -0.0546
  134MOL   H25343079  12.108  -2.533   5.057 -1.2168 -3.2584  0.3303
  134MOL   H25443080  12.330  -2.650   5.155 -1.2345 -0.3935 -1.2234
  134MOL   H25543081  12.332  -2.474   5.129  0.5518  0.4692  1.4691
  134MOL   H25643082  12.232  -2.542   5.462 -0.6954  2.5342  1.2578
  134MOL   H25743083  11.987  -2.533   5.544 -0.6013  0.4999 -0.2105
  134MOL   C25843084  12.438  -2.540   5.313 -0.5183  0.1616  0.3897
  134MOL   C25943085  12.576  -2.544   5.254 -0.0879  0.0449 -0.8185
  134MOL   C26043086  12.646  -2.417   5.249 -0.4565  0.9777  0.5701
  134MOL   C26143087  12.782  -2.418   5.196  0.2324  0.8275 -0.1923
  134MOL   C26243088  12.843  -2.543   5.163  0.3267 -0.1364  0.5174
  134MOL   C26343089  12.991  -2.550   5.117  0.5621  0.3309 -0.4154
  134MOL   C26443090  12.765  -2.665   5.152  0.5882 -0.4882 -0.1015
  134MOL   C26543091  12.632  -2.661   5.198  0.1139  0.0172  0.7752
  134MOL   H26643092  12.430  -2.607   5.398 -0.0426 -2.0213 -1.2307
  134MOL   H26743093  12.434  -2.443   5.361  0.1976  1.8562 -2.8178
  134MOL   H26843094  12.601  -2.320   5.264  1.7481  2.2091 -0.6334
  134MOL   H26943095  12.835  -2.324   5.187  2.5277 -0.4330 -0.3086
  134MOL   H27043096  12.986  -2.626   5.039 -1.7652  1.6342 -1.6274
  134MOL   H27143097  13.015  -2.450   5.080 -2.1078  0.9732 -0.5680
  134MOL   H27243098  12.807  -2.755   5.112  0.1273 -1.1205  0.8214
  134MOL   H27343099  12.570  -2.749   5.192  1.3216 -0.6503 -4.1477
  134MOL   C27443100  13.091  -2.580   5.229 -0.0930 -0.1642 -0.0878
  134MOL   C27543101  13.236  -2.573   5.165  0.2721 -0.4557 -0.0466
  134MOL   C27643102  13.311  -2.691   5.136 -0.1481 -0.1063  0.0190
  134MOL   C27743103  13.443  -2.690   5.092 -0.0647 -0.3948 -0.1340
  134MOL   C27843104  13.512  -2.563   5.103  0.5048 -0.4148  0.1688
  134MOL   C27943105  13.655  -2.568   5.058  0.4336 -0.5449 -0.1275
  134MOL   C28043106  13.442  -2.443   5.135 -0.2849 -0.1621 -0.1457
  134MOL   C28143107  13.302  -2.447   5.159  0.5228  0.2143 -0.2044
  134MOL   H28243108  13.077  -2.511   5.312  0.6230  0.5667 -0.5627
  134MOL   H28343109  13.072  -2.673   5.281 -1.6145 -0.3779 -0.9994
  134MOL   H28443110  13.255  -2.783   5.134 -0.8400  0.2657  1.6986
  134MOL   H28543111  13.495  -2.782   5.070  0.2745  0.3343 -2.5567
  134MOL   H28643112  13.701  -2.469   5.063 -0.7012 -0.1067  2.3396
  134MOL   H28743113  13.699  -2.628   5.138  0.7436  0.3210  0.3619
  134MOL   H28843114  13.501  -2.353   5.138  1.4284 -1.2673 -0.4192
  134MOL   H28943115  13.241  -2.359   5.176  2.3066  1.4304  0.1641
  134MOL   C29043116  13.676  -2.631   4.915  0.2712 -0.4166 -0.5819
  134MOL   C29143117  13.820  -2.641   4.875  0.1045  0.0304 -0.8754
  134MOL   C29243118  13.906  -2.721   4.946  0.2848 -0.8388  0.3713
  134MOL   C29343119  14.044  -2.721   4.921  0.1447  0.2947  0.2533
  134MOL   C29443120  14.097  -2.653   4.815  0.1718 -0.4778  0.3557
  134MOL   C29543121  14.246  -2.658   4.788  0.4674  0.0518  0.1605
  134MOL   C29643122  14.005  -2.591   4.727  0.8349 -0.7087  0.5952
  134MOL   C29743123  13.871  -2.575   4.761 -0.4696  0.0631  0.4449
  134MOL   H29843124  13.635  -2.555   4.848  0.8827  1.7188  1.3731
  134MOL   H29943125  13.629  -2.726   4.891 -1.5850  0.5673 -0.9351
  134MOL   H30043126  13.862  -2.773   5.030 -0.2784  0.8673  1.1434
  134MOL   H30143127  14.113  -2.785   4.973  0.7425 -0.5646 -1.5358
  134MOL   H30243128  14.300  -2.577   4.837 -1.0307  0.3941  1.2573
  134MOL   H30343129  14.264  -2.760   4.820 -2.8842 -1.7652 -3.3186
  134MOL   H30443130  14.036  -2.532   4.642 -1.3191  0.1820  0.3929
  134MOL   H30543131  13.808  -2.506   4.706 -0.5849 -0.7602 -0.4727
  134MOL   C30643132  14.283  -2.653   4.636  0.0988  0.3393  0.0518
  134MOL   C30743133  14.426  -2.677   4.627 -0.0940  0.3682  0.4045
  134MOL   C30843134  14.480  -2.804   4.608  0.9295 -0.1778 -0.3436
  134MOL   C30943135  14.620  -2.821   4.609 -0.5639 -0.7600 -0.1523
  134MOL   C31043136  14.700  -2.705   4.621 -0.1020  0.1265 -0.1071
  134MOL   C31143137  14.846  -2.723   4.623 -0.5678  0.0627  0.6434
  134MOL   C31243138  14.641  -2.576   4.616 -0.3283  0.0411  1.1732
  134MOL   C31343139  14.505  -2.562   4.629  0.2795 -0.2690  0.6070
  134MOL   H31443140  14.263  -2.557   4.588 -1.5363 -0.4662 -0.9277
  134MOL   H31543141  14.227  -2.735   4.591 -2.0312  1.5037  0.5256
  134MOL   H31643142  14.416  -2.891   4.617  0.6186  0.1969  1.2846
  134MOL   H31743143  14.652  -2.925   4.611 -0.7250 -0.7955  0.8017
  134MOL   H31843144  14.868  -2.804   4.693 -0.9423 -1.2425 -0.7243
  134MOL   H31943145  14.890  -2.747   4.527 -0.8174 -0.4178  0.6458
  134MOL   H32043146  14.704  -2.490   4.599 -0.8879  0.0855 -0.8335
  134MOL   H32143147  14.457  -2.465   4.637  0.6721 -0.0832  0.7595
  134MOL   H32243148  14.894  -2.631   4.655 -0.4092  0.1252  0.2310
  135MOL     C143149   0.771   0.121   0.620  0.3184  0.0544  0.9822
  135MOL     C243150   0.913   0.109   0.584 -0.1552 -0.1189 -0.4614
  135MOL     C343151   0.972   0.201   0.497 -0.7612  0.2477 -0.0518
  135MOL     C443152   1.110   0.186   0.469 -0.3006  0.3526 -0.5517
  135MOL     C543153   1.194   0.090   0.535  0.2145  0.3709  0.3235
  135MOL     C643154   1.346   0.068   0.512 -0.5540 -0.4652  0.4828
  135MOL     C743155   1.121   0.001   0.624 -0.7062 -0.2119 -0.0300
  135MOL     C843156   0.989   0.018   0.653  0.6025 -0.3838 -0.1009
  135MOL     H943157   0.755   0.229   0.627  0.3329 -0.0271  2.5624
  135MOL    H1043158   0.700   0.101   0.541  1.3195 -0.6611  0.2470
  135MOL    H1143159   0.914   0.274   0.442  0.4882  1.2647 -0.0302
  135MOL    H1243160   1.161   0.249   0.397 -1.4640 -0.4673 -2.1386
  135MOL    H1343161   1.387   0.142   0.444  0.6327 -1.5639 -0.0103
  135MOL    H1443162   1.407   0.078   0.602  0.8003  1.8123 -0.6483
  135MOL    H1543163   1.174  -0.085   0.662 -1.7991  0.0113  2.0645
  135MOL    H1643164   0.950  -0.043   0.732 -0.2863  0.2494 -0.0414
  135MOL    H1743165   0.735   0.067   0.708  2.1177 -3.3652 -0.3011
  135MOL    C1843166   1.381  -0.070   0.442  0.5081 -0.3221 -0.4590
  135MOL    C1943167   1.531  -0.084   0.412 -0.0574  0.2729 -1.0147
  135MOL    C2043168   1.597  -0.013   0.311  0.1465  0.1450 -0.4208
  135MOL    C2143169   1.730  -0.037   0.276  1.1042  0.3960  0.0990
  135MOL    C2243170   1.814  -0.128   0.343  0.3838 -0.5744  0.6644
  135MOL    C2343171   1.946  -0.162   0.291  0.7009 -0.2147 -0.2848
  135MOL    C2443172   1.750  -0.202   0.448 -0.6705  0.2176 -0.9548
  135MOL    C2543173   1.613  -0.184   0.483 -0.0149 -0.2770  0.5797
  135MOL    H2643174   1.352  -0.147   0.514 -1.8456  0.5169 -0.4541
  135MOL    H2743175   1.320  -0.084   0.353 -0.3148 -0.0658  0.0552
  135MOL    H2843176   1.525   0.056   0.270 -1.4930 -1.1990  0.1140
  135MOL    H2943177   1.771   0.015   0.190 -0.0802 -0.5738 -1.0790
  135MOL    H3043178   1.944  -0.114   0.193  0.8070  0.7587  0.1790
  135MOL    H3143179   1.945  -0.268   0.269 -0.2811 -0.7865  2.3477
  135MOL    H3243180   1.795  -0.287   0.498 -2.2777 -1.1611 -1.8212
  135MOL    H3343181   1.567  -0.235   0.566  0.6072  0.7844  1.5961
  135MOL    C3443182   2.068  -0.122   0.384  0.1535  0.6106 -0.1202
  135MOL    C3543183   2.192  -0.187   0.336 -0.5723 -0.4544  0.4226
  135MOL    C3643184   2.262  -0.295   0.397 -0.0215  0.9662 -0.0119
  135MOL    C3743185   2.375  -0.349   0.343 -0.0802 -0.3770 -0.0425
  135MOL    C3843186   2.423  -0.311   0.214 -0.1103  0.8474  0.3805
  135MOL    C3943187   2.536  -0.378   0.139  0.4234  0.3749  0.3679
  135MOL    C4043188   2.348  -0.205   0.151  0.4260  0.1646  0.6096
  135MOL    C4143189   2.245  -0.140   0.214 -0.2353 -0.2991 -0.1622
  135MOL    H4243190   2.057  -0.160   0.486 -0.7757 -0.9538 -0.7883
  135MOL    H4343191   2.087  -0.015   0.384 -0.0797  0.6551  0.5765
  135MOL    H4443192   2.233  -0.327   0.496 -1.0136  1.0897 -0.2568
  135MOL    H4543193   2.428  -0.424   0.401 -1.9769 -1.0122  0.9014
  135MOL    H4643194   2.520  -0.485   0.152  1.8956  0.0586 -0.3827
  135MOL    H4743195   2.527  -0.366   0.031  1.1713  0.5337  0.3260
  135MOL    H4843196   2.369  -0.174   0.049  0.2419 -0.0276  0.5114
  135MOL    H4943197   2.194  -0.060   0.163 -2.6943 -0.6078  1.7461
  135MOL    C5043198   2.671  -0.330   0.193 -0.1172  0.6863 -0.7069
  135MOL    C5143199   2.794  -0.399   0.134  0.6175 -0.1151 -1.0000
  135MOL    C5243200   2.848  -0.358   0.013 -0.0218  0.0764  0.3051
  135MOL    C5343201   2.975  -0.414  -0.030 -0.2487 -0.8009  0.0531
  135MOL    C5443202   3.052  -0.505   0.049  0.7852  0.6568  0.0897
  135MOL    C5543203   3.177  -0.578  -0.004 -0.2177 -0.6532  0.2519
  135MOL    C5643204   2.997  -0.546   0.171  0.5351 -0.3832  0.9505
  135MOL    C5743205   2.870  -0.490   0.208 -0.0605  0.2405  0.2076
  135MOL    H5843206   2.678  -0.350   0.300 -0.5932  0.5250 -0.7048
  135MOL    H5943207   2.686  -0.222   0.192 -1.4303  0.9052  1.0263
  135MOL    H6043208   2.782  -0.312  -0.060  0.1897  0.5164  0.3926
  135MOL    H6143209   3.011  -0.378  -0.125  0.6599 -1.5904  0.0762
  135MOL    H6243210   3.159  -0.686  -0.009 -0.9562 -0.5048 -0.3204
  135MOL    H6343211   3.185  -0.560  -0.112 -2.1802  0.6277  0.3072
  135MOL    H6443212   3.045  -0.614   0.240 -0.9205 -1.0382  1.3248
  135MOL    H6543213   2.829  -0.516   0.305 -1.9239  2.0205 -0.0527
  135MOL    C6643214   3.311  -0.547   0.070 -0.1625 -0.1946  0.4461
  135MOL    C6743215   3.435  -0.608   0.010  0.7313 -0.0041 -0.5857
  135MOL    C6843216   3.489  -0.546  -0.105 -0.6665 -0.5799 -0.0934
  135MOL    C6943217   3.605  -0.599  -0.163 -0.1474  0.1208 -0.0333
  135MOL    C7043218   3.664  -0.722  -0.111  0.7317  0.0261 -0.4340
  135MOL    C7143219   3.790  -0.775  -0.174  0.4352  0.4193 -0.5773
  135MOL    C7243220   3.605  -0.788  -0.004  0.6650 -0.4382 -0.1223
  135MOL    C7343221   3.495  -0.729   0.063 -0.1267 -0.1542  0.4959
  135MOL    H7443222   3.314  -0.584   0.172  0.2535  0.3285  0.6204
  135MOL    H7543223   3.329  -0.440   0.079  0.0666 -0.3536  1.9993
  135MOL    H7643224   3.437  -0.462  -0.148 -2.2124  0.0990  3.0020
  135MOL    H7743225   3.657  -0.548  -0.243  0.8910  0.7677  1.0384
  135MOL    H7843226   3.778  -0.746  -0.278 -0.6737  1.5652 -0.1475
  135MOL    H7943227   3.794  -0.883  -0.181  0.4405  0.2403  1.6561
  135MOL    H8043228   3.638  -0.880   0.043 -1.8935 -0.6216  1.3773
  135MOL    H8143229   3.454  -0.772   0.153  0.8214  1.2127  1.6114
  135MOL    C8243230   3.914  -0.707  -0.115 -0.2290  0.1188 -0.0785
  135MOL    C8343231   4.044  -0.756  -0.173  0.7147 -0.4265 -0.1447
  135MOL    C8443232   4.109  -0.872  -0.123  0.0506  0.5079 -0.5071
  135MOL    C8543233   4.216  -0.935  -0.194  0.2977 -0.7763  0.2029
  135MOL    C8643234   4.257  -0.876  -0.316 -1.0202  0.0969 -0.3663
  135MOL    C8743235   4.362  -0.932  -0.403  0.6246  0.5486 -0.2705
  135MOL    C8843236   4.190  -0.762  -0.364  0.2188 -0.0201  0.5601
  135MOL    C8943237   4.085  -0.695  -0.292 -1.0268 -0.2845 -0.3280
  135MOL    H9043238   3.908  -0.731  -0.009 -1.1306  0.0265 -0.1459
  135MOL    H9143239   3.909  -0.600  -0.135  1.7179  0.0749 -0.9776
  135MOL    H9243240   4.069  -0.906  -0.029  1.5989 -1.6567 -0.6009
  135MOL    H9343241   4.266  -1.021  -0.152  1.3649 -1.4888 -2.4477
  135MOL    H9443242   4.333  -0.913  -0.506  1.3526 -0.9099 -0.7612
  135MOL    H9543243   4.362  -1.041  -0.405 -2.4465  0.4257  1.7121
  135MOL    H9643244   4.210  -0.708  -0.455 -2.0145  0.5921  0.3958
  135MOL    H9743245   4.027  -0.612  -0.329 -2.3058 -0.3299  1.5300
  135MOL    C9843246   4.497  -0.872  -0.368 -0.8166  0.1152 -0.2441
  135MOL    C9943247   4.628  -0.918  -0.448  0.6713 -0.2728 -0.2384
  135MOL   C10043248   4.642  -0.855  -0.576  0.5821  0.0808  0.6758
  135MOL   C10143249   4.734  -0.897  -0.670 -0.4015 -0.3404 -0.1845
  135MOL   C10243250   4.819  -1.004  -0.637 -0.0032 -0.1698 -0.6010
  135MOL   C10343251   4.923  -1.054  -0.733  0.0379  0.6527 -0.0607
  135MOL   C10443252   4.805  -1.071  -0.512 -0.3627  0.1410 -0.0163
  135MOL   C10543253   4.716  -1.027  -0.416 -0.2310 -0.3399  0.1922
  135MOL   H10643254   4.529  -0.914  -0.273  1.5436 -4.6336 -2.9081
  135MOL   H10743255   4.496  -0.763  -0.372 -1.7620  0.0918 -0.6345
  135MOL   H10843256   4.562  -0.788  -0.605  1.0940 -0.4800 -2.1085
  135MOL   H10943257   4.734  -0.858  -0.770  1.0769 -0.4296 -0.2344
  135MOL   H11043258   4.938  -1.161  -0.725  1.7544  0.9070  0.3208
  135MOL   H11143259   4.866  -1.040  -0.825 -2.9909  2.8199  2.0658
  135MOL   H11243260   4.859  -1.158  -0.480 -1.2667  0.4748  2.5455
  135MOL   H11343261   4.700  -1.087  -0.327 -1.5515 -1.0893 -0.5418
  135MOL   C11443262   5.058  -0.989  -0.715  0.4655 -0.3426  0.4060
  135MOL   C11543263   5.161  -1.033  -0.825  0.6546 -0.6354  0.2636
  135MOL   C11643264   5.228  -0.937  -0.910 -0.5738  0.1790 -0.2764
  135MOL   C11743265   5.332  -0.981  -0.995 -0.1590 -0.2926 -0.2245
  135MOL   C11843266   5.370  -1.113  -0.992 -0.1331  0.6618  0.0545
  135MOL   C11943267   5.486  -1.152  -1.078 -0.2085 -0.4169 -0.7256
  135MOL   C12043268   5.311  -1.204  -0.904 -0.9881  0.1993 -0.5363
  135MOL   C12143269   5.202  -1.167  -0.823 -0.1755 -0.3922  0.2059
  135MOL   H12243270   5.087  -1.004  -0.611 -0.2583  0.5227  0.7330
  135MOL   H12343271   5.033  -0.883  -0.720 -0.8268 -0.6942 -0.7661
  135MOL   H12443272   5.193  -0.835  -0.920 -0.5462  0.2365  0.2231
  135MOL   H12543273   5.377  -0.909  -1.061  0.7055  0.3552  1.0541
  135MOL   H12643274   5.486  -1.260  -1.094 -1.0469 -0.3737 -1.0594
  135MOL   H12743275   5.457  -1.121  -1.179 -3.1765 -0.0619  0.1852
  135MOL   H12843276   5.346  -1.306  -0.898  1.2588  0.8614 -1.9016
  135MOL   H12943277   5.157  -1.241  -0.758  0.2669  0.2609  1.2669
  135MOL   C13043278   5.617  -1.115  -1.021 -0.3604 -0.4890  0.7402
  135MOL   C13143279   5.733  -1.168  -1.108  0.0720  0.2874  0.1214
  135MOL   C13243280   5.766  -1.309  -1.103  0.4886  0.3290  0.8789
  135MOL   C13343281   5.860  -1.359  -1.199 -0.0555  0.6661  0.0782
  135MOL   C13443282   5.927  -1.268  -1.290  0.8786 -0.0462  0.0797
  135MOL   C13543283   6.030  -1.327  -1.384 -0.0247 -0.2294  0.5014
  135MOL   C13643284   5.888  -1.136  -1.294  0.5471  0.2354 -0.0881
  135MOL   C13743285   5.798  -1.083  -1.198 -0.4604  0.5108  0.4803
  135MOL   H13843286   5.627  -1.165  -0.924 -0.2436  1.9711  2.0370
  135MOL   H13943287   5.620  -1.007  -1.008 -5.0172 -0.0369 -1.0222
  135MOL   H14043288   5.733  -1.372  -1.022  1.3510  0.4945  1.3678
  135MOL   H14143289   5.868  -1.466  -1.195  1.1247  0.8022  2.6584
  135MOL   H14243290   5.991  -1.423  -1.418  1.1120 -0.5584  0.1242
  135MOL   H14343291   6.038  -1.259  -1.470 -0.1929 -0.7107  0.1027
  135MOL   H14443292   5.939  -1.078  -1.370  0.2807 -1.6821 -1.7742
  135MOL   H14543293   5.776  -0.977  -1.203 -3.7794 -0.1773 -1.5210
  135MOL   C14643294   6.161  -1.359  -1.318  0.3362 -0.5506  0.3585
  135MOL   C14743295   6.279  -1.397  -1.405 -0.1483  0.3470 -0.4987
  135MOL   C14843296   6.365  -1.300  -1.465 -0.5998 -0.8426  0.3649
  135MOL   C14943297   6.476  -1.348  -1.533 -0.2779  0.5572  0.2770
  135MOL   C15043298   6.507  -1.482  -1.547  0.0382  0.5958  1.2895
  135MOL   C15143299   6.631  -1.527  -1.636  0.2571  0.4232 -0.4514
  135MOL   C15243300   6.424  -1.577  -1.483  0.3788 -0.2218  0.2980
  135MOL   C15343301   6.308  -1.536  -1.416  0.3341  0.4010 -0.8492
  135MOL   H15443302   6.143  -1.436  -1.243  0.3548 -2.5055 -1.6292
  135MOL   H15543303   6.193  -1.264  -1.274  0.7160 -0.8708  0.7820
  135MOL   H15643304   6.341  -1.194  -1.458 -0.5915 -0.7567 -0.8020
  135MOL   H15743305   6.548  -1.281  -1.579 -1.3300  2.3102  1.1134
  135MOL   H15843306   6.600  -1.622  -1.680 -2.2725  1.2289 -0.4473
  135MOL   H15943307   6.644  -1.449  -1.711 -0.6127  0.9635 -0.0423
  135MOL   H16043308   6.446  -1.680  -1.508  0.7099 -0.6135  2.1277
  135MOL   H16143309   6.237  -1.612  -1.385  3.1942 -2.6372 -1.4784
  135MOL   C16243310   6.746  -1.551  -1.543  0.8233  0.4870 -0.2002
  135MOL   C16343311   6.869  -1.609  -1.609 -0.6572  0.3202 -0.0076
  135MOL   C16443312   6.971  -1.521  -1.651  0.0637  0.2492  0.2010
  135MOL   C16543313   7.083  -1.564  -1.722 -0.2559  0.0267 -0.1161
  135MOL   C16643314   7.098  -1.702  -1.747  0.0513  0.3491 -0.3982
  135MOL   C16743315   7.228  -1.753  -1.803 -0.5015 -0.9132  0.8918
  135MOL   C16843316   6.988  -1.788  -1.711 -0.0349  0.4754 -0.1641
  135MOL   C16943317   6.878  -1.746  -1.635  0.7247 -0.0931 -0.0987
  135MOL   H17043318   6.713  -1.627  -1.472  0.3993 -0.6268 -1.5881
  135MOL   H17143319   6.772  -1.459  -1.491 -1.2151  2.5520 -2.7065
  135MOL   H17243320   6.968  -1.413  -1.645  0.3629  0.2480  0.3938
  135MOL   H17343321   7.157  -1.501  -1.768 -0.6945 -0.3086 -1.3064
  135MOL   H17443322   7.288  -1.662  -1.798 -0.3801 -0.9836  0.7361
  135MOL   H17543323   7.270  -1.822  -1.730  1.4612 -0.5942  0.1252
  135MOL   H17643324   6.997  -1.893  -1.733  2.1287  0.2309  1.6882
  135MOL   H17743325   6.807  -1.819  -1.599  0.9612 -0.9726 -1.4128
  135MOL   C17843326   7.222  -1.823  -1.944  0.1442 -0.1447 -0.0404
  135MOL   C17943327   7.359  -1.866  -1.994 -0.9218 -0.8857 -0.6544
  135MOL   C18043328   7.454  -1.764  -2.000  0.3285 -0.2663 -0.1468
  135MOL   C18143329   7.588  -1.790  -2.036  0.2235 -0.4901  1.1162
  135MOL   C18243330   7.624  -1.923  -2.080  0.5773  0.6671  0.3501
  135MOL   C18343331   7.767  -1.956  -2.132 -0.3270  0.1322  0.1705
  135MOL   C18443332   7.532  -2.027  -2.072  0.1709  0.1073 -0.0320
  135MOL   C18543333   7.403  -2.001  -2.017 -0.4894  0.0346 -0.3259
  135MOL   H18643334   7.181  -1.761  -2.024 -1.1823 -0.6656  0.2247
  135MOL   H18743335   7.147  -1.902  -1.955 -1.9738  1.8970 -0.7099
  135MOL   H18843336   7.421  -1.663  -1.979 -3.5739 -0.9961 -2.3257
  135MOL   H18943337   7.665  -1.714  -2.045 -0.7235  0.2204 -1.1865
  135MOL   H19043338   7.843  -1.929  -2.059 -1.2796  0.2043  1.1530
  135MOL   H19143339   7.787  -2.063  -2.141 -1.2972 -0.1356  1.0874
  135MOL   H19243340   7.553  -2.125  -2.113  2.0398  0.0793  0.9694
  135MOL   H19343341   7.338  -2.083  -1.989 -0.7788  0.8716  1.5481
  135MOL   C19443342   7.795  -1.888  -2.263 -0.1981  0.3348 -0.0391
  135MOL   C19543343   7.943  -1.914  -2.309 -0.2857  0.1302  0.0958
  135MOL   C19643344   8.035  -1.811  -2.301 -0.6548  0.1795  0.1854
  135MOL   C19743345   8.168  -1.816  -2.359 -0.1192 -0.9115 -0.3437
  135MOL   C19843346   8.201  -1.936  -2.428  0.3267  0.2105  0.1947
  135MOL   C19943347   8.328  -1.936  -2.502  0.0095  0.4295 -0.6270
  135MOL   C20043348   8.107  -2.040  -2.439 -0.0930  0.2817 -0.0313
  135MOL   C20143349   7.978  -2.028  -2.387  0.0405  0.4088 -0.5601
  135MOL   H20243350   7.781  -1.780  -2.259 -0.8508  0.2431  0.2893
  135MOL   H20343351   7.734  -1.933  -2.342  0.7129  1.4017 -1.3820
  135MOL   H20443352   8.011  -1.715  -2.258  0.7285 -0.2522  2.0040
  135MOL   H20543353   8.235  -1.731  -2.359 -0.0305 -0.9538 -2.1052
  135MOL   H20643354   8.331  -1.993  -2.595  2.1496  0.8631 -0.8533
  135MOL   H20743355   8.346  -1.837  -2.543  0.1804  0.4746 -0.4421
  135MOL   H20843356   8.126  -2.128  -2.498 -1.4976 -1.7239  2.3905
  135MOL   H20943357   7.893  -2.093  -2.401 -0.2072  0.5526  0.2158
  135MOL   C21043358   8.449  -1.973  -2.424  0.6350  0.4414 -0.0943
  135MOL   C21143359   8.583  -1.953  -2.498  0.0736  0.0953 -0.2764
  135MOL   C21243360   8.688  -1.886  -2.429  0.0486 -0.8431 -0.5055
  135MOL   C21343361   8.807  -1.853  -2.492 -0.2516 -0.1061  0.2412
  135MOL   C21443362   8.834  -1.895  -2.620  0.7899 -0.6750  0.0169
  135MOL   C21543363   8.971  -1.875  -2.681  0.2921  0.4200 -0.2952
  135MOL   C21643364   8.735  -1.965  -2.688  0.3622  0.2292 -0.1881
  135MOL   C21743365   8.608  -1.987  -2.628 -0.3584  0.0310  0.1883
  135MOL   H21843366   8.440  -2.078  -2.397  0.2759 -0.2157 -2.6262
  135MOL   H21943367   8.445  -1.914  -2.333 -1.3322  0.9725 -0.4937
  135MOL   H22043368   8.669  -1.843  -2.332 -1.7264 -3.7820  0.5226
  135MOL   H22143369   8.877  -1.796  -2.434  0.9810 -0.6438 -0.6958
  135MOL   H22243370   8.969  -1.902  -2.787  0.0520 -0.8110  0.0156
  135MOL   H22343371   8.985  -1.767  -2.687 -1.2302  0.8557  3.0611
  135MOL   H22443372   8.763  -2.005  -2.785  1.6248 -1.0427  0.6759
  135MOL   H22543373   8.526  -2.030  -2.683 -0.7951  1.3584 -0.2155
  135MOL   C22643374   9.082  -1.925  -2.585 -0.4838 -0.0005  0.0457
  135MOL   C22743375   9.228  -1.906  -2.635 -0.0038 -0.5365 -0.6593
  135MOL   C22843376   9.256  -1.863  -2.764  0.1058 -0.0913 -0.2087
  135MOL   C22943377   9.388  -1.853  -2.805  0.1347 -0.7631  0.4682
  135MOL   C23043378   9.493  -1.870  -2.716 -1.4288  0.6047 -0.3575
  135MOL   C23143379   9.639  -1.872  -2.768  0.0706  0.2788 -0.0123
  135MOL   C23243380   9.459  -1.916  -2.589  0.3512  0.9276 -0.0535
  135MOL   C23343381   9.330  -1.940  -2.543  0.6077  0.0931  0.1635
  135MOL   H23443382   9.075  -2.032  -2.569  1.1063  0.5297  4.9430
  135MOL   H23543383   9.080  -1.883  -2.484  1.2221 -0.2048  0.1846
  135MOL   H23643384   9.182  -1.856  -2.842 -0.0874 -2.4742 -0.2665
  135MOL   H23743385   9.408  -1.837  -2.910 -0.8107  2.8253  0.7717
  135MOL   H23843386   9.671  -1.975  -2.753  0.7046  0.7381  1.9503
  135MOL   H23943387   9.641  -1.847  -2.874  1.7925  1.7345  0.3301
  135MOL   H24043388   9.538  -1.949  -2.522 -0.4022  0.9296  0.8385
  135MOL   H24143389   9.302  -1.975  -2.445  0.3003 -0.5578 -0.1574
  135MOL   C24243390   9.729  -1.767  -2.696 -0.2298 -0.1958 -0.1784
  135MOL   C24343391   9.874  -1.785  -2.741  0.4732 -0.3305 -0.3882
  135MOL   C24443392   9.926  -1.706  -2.845  0.5141 -0.1370 -0.1375
  135MOL   C24543393  10.064  -1.706  -2.878  1.1670  0.6197 -0.0969
  135MOL   C24643394  10.157  -1.786  -2.803  0.3999 -0.1259 -0.4677
  135MOL   C24743395  10.310  -1.782  -2.836  0.5485  0.5441  0.0782
  135MOL   C24843396  10.101  -1.866  -2.701  0.3097  0.0957 -0.6881
  135MOL   C24943397   9.963  -1.870  -2.674 -0.8692  0.1780  0.0015
  135MOL   H25043398   9.692  -1.665  -2.707  1.2609  0.1081 -2.9016
  135MOL   H25143399   9.735  -1.794  -2.591 -1.2152 -2.2329 -0.6400
  135MOL   H25243400   9.864  -1.640  -2.903  1.4947  0.0797 -0.9479
  135MOL   H25343401  10.108  -1.628  -2.938  0.2460 -0.2746 -2.0234
  135MOL   H25443402  10.317  -1.787  -2.944 -2.0085  2.3336 -0.2304
  135MOL   H25543403  10.351  -1.685  -2.808  1.1325 -0.0365  1.2933
  135MOL   H25643404  10.170  -1.927  -2.644 -0.8598 -0.3083  0.3020
  135MOL   H25743405   9.924  -1.933  -2.596 -1.4291  1.8757  1.1179
  135MOL   C25843406  10.388  -1.903  -2.770  0.7399  0.3909  0.1446
  135MOL   C25943407  10.533  -1.904  -2.824 -0.3868 -0.7423 -0.3738
  135MOL   C26043408  10.621  -1.806  -2.780  0.6748  0.1406 -0.3797
  135MOL   C26143409  10.754  -1.801  -2.829 -0.2882  0.3591  0.2225
  135MOL   C26243410  10.796  -1.902  -2.920  0.2940  0.6679 -0.4291
  135MOL   C26343411  10.940  -1.890  -2.972  0.4213  0.0819 -0.3953
  135MOL   C26443412  10.712  -1.998  -2.969  0.8353  0.2992  0.0564
  135MOL   C26543413  10.578  -2.005  -2.915  0.4054  0.4483 -0.1713
  135MOL   H26643414  10.336  -1.996  -2.794 -0.5665  0.6716  1.8088
  135MOL   H26743415  10.394  -1.883  -2.663  1.7397  1.6833 -0.1386
  135MOL   H26843416  10.606  -1.743  -2.694 -1.1638 -0.4757 -0.2236
  135MOL   H26943417  10.831  -1.736  -2.790 -0.4890 -0.2425  1.6632
  135MOL   H27043418  10.962  -1.950  -3.060  0.6601 -0.3607 -0.0437
  135MOL   H27143419  10.960  -1.791  -3.011  0.4968  0.7868  1.3748
  135MOL   H27243420  10.754  -2.067  -3.041 -1.0773  0.6166 -1.3991
  135MOL   H27343421  10.513  -2.086  -2.943  1.4006 -0.8937  1.3229
  135MOL   C27443422  11.047  -1.915  -2.858 -0.2054  0.1326 -0.3829
  135MOL   C27543423  11.183  -1.884  -2.907 -0.3288  0.0494 -0.4081
  135MOL   C27643424  11.234  -1.755  -2.875 -0.8232  0.6273 -0.3453
  135MOL   C27743425  11.365  -1.721  -2.912 -0.2231 -0.2245 -0.0893
  135MOL   C27843426  11.452  -1.808  -2.980 -0.5411  0.5024  0.0381
  135MOL   C27943427  11.588  -1.757  -3.035 -0.3400 -0.0097 -0.3781
  135MOL   C28043428  11.403  -1.933  -3.017  0.0514 -0.2444 -0.3568
  135MOL   C28143429  11.273  -1.974  -2.971 -0.5191  1.0931  0.0351
  135MOL   H28243430  11.024  -1.865  -2.764 -1.3430  3.5168 -2.3828
  135MOL   H28343431  11.041  -2.022  -2.836  2.4196 -0.1935 -0.9889
  135MOL   H28443432  11.178  -1.687  -2.813  0.3254  0.2032  1.1961
  135MOL   H28543433  11.401  -1.621  -2.893  3.3410 -1.5395  0.3194
  135MOL   H28643434  11.602  -1.773  -3.141 -2.8172 -1.0060 -0.5849
  135MOL   H28743435  11.580  -1.648  -3.039  0.8540  0.1726  1.5508
  135MOL   H28843436  11.459  -1.997  -3.083 -1.3499  1.3691 -3.2331
  135MOL   H28943437  11.238  -2.076  -2.979 -0.4807  0.9224  1.6980
  135MOL   C29043438  11.706  -1.821  -2.958 -0.2806  0.1390  0.0754
  135MOL   C29143439  11.840  -1.767  -3.016  0.0912  0.0672 -0.2026
  135MOL   C29243440  11.917  -1.664  -2.958 -0.4773  0.8136 -0.7092
  135MOL   C29343441  12.045  -1.629  -3.009  0.1598  0.9442 -0.6077
  135MOL   C29443442  12.093  -1.701  -3.118  0.0918  0.7582  0.0331
  135MOL   C29543443  12.229  -1.672  -3.179  0.2181  0.7117  0.0154
  135MOL   C29643444  12.008  -1.790  -3.188  0.0814  0.1866  0.2239
  135MOL   C29743445  11.886  -1.828  -3.132 -0.5081 -0.1603  0.5652
  135MOL   H29843446  11.689  -1.928  -2.966  1.5337 -0.3314  1.9323
  135MOL   H29943447  11.702  -1.805  -2.851  1.7426  2.6524 -0.1503
  135MOL   H30043448  11.880  -1.618  -2.867  1.0242  1.3191 -0.3527
  135MOL   H30143449  12.103  -1.551  -2.963 -0.0939  1.5601 -1.3170
  135MOL   H30243450  12.224  -1.655  -3.286  0.1313 -1.2915 -0.3339
  135MOL   H30343451  12.254  -1.572  -3.146 -0.7002  0.5862  1.1507
  135MOL   H30443452  12.048  -1.833  -3.279  1.7974  1.8330  0.1782
  135MOL   H30543453  11.827  -1.900  -3.186  0.9501 -0.0248 -1.2550
  135MOL   C30643454  12.335  -1.780  -3.147 -0.3399 -0.4563 -0.3727
  135MOL   C30743455  12.478  -1.743  -3.186 -0.1926  0.4420 -0.1213
  135MOL   C30843456  12.546  -1.814  -3.285 -0.5507  0.9355  0.2465
  135MOL   C30943457  12.666  -1.770  -3.333 -0.5055 -0.0198 -0.1661
  135MOL   C31043458  12.732  -1.661  -3.280 -0.0009 -0.4911 -0.3081
  135MOL   C31143459  12.875  -1.621  -3.303  0.6273  0.0741 -0.0747
  135MOL   C31243460  12.668  -1.584  -3.182  0.2179 -0.3825 -0.1225
  135MOL   C31343461  12.545  -1.625  -3.130 -0.2718 -0.5024  0.8402
  135MOL   H31443462  12.313  -1.874  -3.196 -1.2369 -1.5786  2.0930
  135MOL   H31543463  12.336  -1.797  -3.039 -2.2513  0.8622 -0.0997
  135MOL   H31643464  12.500  -1.894  -3.341  0.1486  1.1717 -0.6774
  135MOL   H31743465  12.710  -1.831  -3.411  0.4210  2.0279 -1.2737
  135MOL   H31843466  12.916  -1.656  -3.398 -0.2488 -0.0203 -0.4183
  135MOL   H31943467  12.885  -1.513  -3.305  0.3516  0.1237  1.0619
  135MOL   H32043468  12.722  -1.499  -3.142  1.8144 -0.3441 -2.2388
  135MOL   H32143469  12.493  -1.573  -3.051  1.6138  1.7296  0.6506
  135MOL   H32243470  12.944  -1.663  -3.229  1.9970 -0.6808 -1.7216
  136MOL     C143471   2.626   3.631   4.280 -0.4575 -0.1888  0.7397
  136MOL     C243472   2.760   3.653   4.351  0.1694  0.6653 -0.3474
  136MOL     C343473   2.770   3.597   4.481  0.3920  0.6956  0.1855
  136MOL     C443474   2.897   3.606   4.545 -0.6233 -0.0313  0.5406
  136MOL     C543475   3.011   3.656   4.477  0.8586 -0.3144 -0.1324
  136MOL     C643476   3.148   3.672   4.546 -0.2001  0.3023  0.0330
  136MOL     C743477   2.995   3.704   4.344 -0.7736  0.3341  0.4929
  136MOL     C843478   2.874   3.692   4.280  0.0859  0.4569 -0.2831
  136MOL     H943479   2.605   3.525   4.269 -0.2007  0.0606 -2.4590
  136MOL    H1043480   2.542   3.679   4.330 -0.6161  1.4481 -1.0486
  136MOL    H1143481   2.683   3.550   4.524  0.6505 -0.3201 -0.3943
  136MOL    H1243482   2.918   3.564   4.642  2.1298  0.5085  0.2198
  136MOL    H1343483   3.222   3.720   4.481 -0.4961  0.4139 -0.2270
  136MOL    H1443484   3.136   3.753   4.619  1.3657  0.3513  0.2397
  136MOL    H1543485   3.085   3.736   4.293 -0.8256 -0.9576 -0.4413
  136MOL    H1643486   2.869   3.709   4.173  1.3671  0.0506 -0.4207
  136MOL    H1743487   2.639   3.670   4.179 -0.8591 -1.3557  0.2319
  136MOL    C1843488   3.214   3.552   4.614  0.8736  0.8590  0.2562
  136MOL    C1943489   3.362   3.561   4.621  0.5120 -0.1213  0.2450
  136MOL    C2043490   3.446   3.453   4.584  0.0050 -0.1745 -0.3206
  136MOL    C2143491   3.585   3.455   4.592  0.3521  0.4086  0.4476
  136MOL    C2243492   3.645   3.577   4.623  0.0607  0.6622 -0.0743
  136MOL    C2343493   3.797   3.584   4.608  0.4211  0.2715 -0.3863
  136MOL    C2443494   3.565   3.689   4.668  0.3737  0.1020 -0.0189
  136MOL    C2543495   3.423   3.681   4.666 -0.3922  0.2907 -0.2836
  136MOL    H2643496   3.171   3.551   4.714  0.3936 -0.2193  0.0480
  136MOL    H2743497   3.188   3.460   4.562 -1.5116  1.2726  0.6638
  136MOL    H2843498   3.406   3.361   4.544  1.4211 -0.2832 -1.5098
  136MOL    H2943499   3.651   3.380   4.553  1.9330  1.8681  0.2810
  136MOL    H3043500   3.838   3.676   4.567  0.6575  0.7969  1.0067
  136MOL    H3143501   3.825   3.513   4.530 -0.5766  0.6496 -1.0882
  136MOL    H3243502   3.603   3.787   4.695  0.9129  0.0161 -0.4346
  136MOL    H3343503   3.372   3.764   4.714 -0.5980 -0.0027  0.0145
  136MOL    C3443504   3.873   3.558   4.742  0.4654  0.0866  0.4421
  136MOL    C3543505   3.854   3.676   4.838  0.5795 -0.1559  0.2328
  136MOL    C3643506   3.753   3.662   4.941 -0.3758  0.7628 -0.5519
  136MOL    C3743507   3.725   3.770   5.022  0.4465 -0.4220 -1.0114
  136MOL    C3843508   3.794   3.898   5.008 -0.3487  0.2743 -0.4823
  136MOL    C3943509   3.758   4.017   5.099  0.4332 -0.7208 -0.0019
  136MOL    C4043510   3.888   3.908   4.901 -0.0519 -0.0163  0.6079
  136MOL    C4143511   3.918   3.799   4.818 -0.2227  0.1913 -0.3652
  136MOL    H4243512   3.980   3.547   4.728  0.3267  0.0953 -0.7186
  136MOL    H4343513   3.829   3.463   4.774  1.7435 -0.9195 -0.7464
  136MOL    H4443514   3.714   3.564   4.965 -0.0962  1.4060  2.8223
  136MOL    H4543515   3.646   3.770   5.095  0.4745 -0.7882 -0.9826
  136MOL    H4643516   3.710   3.972   5.185 -1.0573 -1.6225 -1.2653
  136MOL    H4743517   3.841   4.079   5.131 -0.0526  0.0516 -0.2107
  136MOL    H4843518   3.950   3.997   4.896 -1.9125  1.3025  0.2293
  136MOL    H4943519   3.988   3.806   4.736  0.2832  0.6447  0.1023
  136MOL    C5043520   3.674   4.125   5.027 -0.2045  0.0433 -0.1689
  136MOL    C5143521   3.537   4.073   4.978  0.2552  0.0091 -0.1292
  136MOL    C5243522   3.428   4.067   5.069  0.0329 -0.5443  0.5408
  136MOL    C5343523   3.305   4.032   5.023 -0.4265  0.0564 -0.4805
  136MOL    C5443524   3.281   4.010   4.889 -0.3116  0.3882  0.2602
  136MOL    C5543525   3.146   3.980   4.839  0.0305 -0.3617  0.2719
  136MOL    C5643526   3.385   4.012   4.800 -0.1149  0.1548  0.5486
  136MOL    C5743527   3.514   4.048   4.846  0.0343 -0.1405 -0.1474
  136MOL    H5843528   3.730   4.156   4.939 -0.6496 -2.0864 -1.2407
  136MOL    H5943529   3.662   4.218   5.083  1.8688 -0.7116  1.5660
  136MOL    H6043530   3.438   4.097   5.172  2.2953 -1.2822  0.5670
  136MOL    H6143531   3.221   4.017   5.090  0.5236 -1.0191  0.4986
  136MOL    H6243532   3.138   3.944   4.737  1.9112  0.4616 -0.1903
  136MOL    H6343533   3.101   3.901   4.900 -1.1628 -0.9121 -1.2942
  136MOL    H6443534   3.378   3.989   4.694  1.6927  1.0224  0.2176
  136MOL    H6543535   3.591   4.055   4.770  0.7976 -1.9552  0.4273
  136MOL    C6643536   3.050   4.097   4.866  0.2084  0.1028 -0.3721
  136MOL    C6743537   2.908   4.054   4.826  0.2251  0.1435  0.5599
  136MOL    C6843538   2.840   3.960   4.906  0.2131  0.1939 -0.5504
  136MOL    C6943539   2.706   3.927   4.889  0.1852 -0.3028 -0.5804
  136MOL    C7043540   2.634   3.987   4.785 -0.0273  0.0636  1.4113
  136MOL    C7143541   2.488   3.950   4.760 -0.0552  0.2890  0.5074
  136MOL    C7243542   2.702   4.082   4.700  0.8647 -1.0466  0.4358
  136MOL    C7343543   2.834   4.116   4.726 -0.2188 -1.0343  0.0227
  136MOL    H7443544   3.069   4.191   4.813  1.4959 -1.0996 -2.1006
  136MOL    H7543545   3.062   4.121   4.971  0.5809  2.3077 -0.8833
  136MOL    H7643546   2.900   3.909   4.981 -0.0040  3.0205  1.6067
  136MOL    H7743547   2.666   3.855   4.958  1.1850  1.5909  2.0424
  136MOL    H7843548   2.450   4.042   4.715 -0.1124 -0.1251 -0.2992
  136MOL    H7943549   2.443   3.928   4.857 -0.4276 -0.2754  0.2096
  136MOL    H8043550   2.649   4.128   4.617  1.5559  0.1436  0.6489
  136MOL    H8143551   2.892   4.196   4.682 -0.4185  1.5100  4.1444
  136MOL    C8243552   2.464   3.828   4.673 -0.2659 -0.1534  0.4341
  136MOL    C8343553   2.320   3.822   4.633 -0.0473 -0.2297  0.1730
  136MOL    C8443554   2.267   3.916   4.544  0.4470  0.1293  0.5981
  136MOL    C8543555   2.135   3.899   4.497  0.0675  0.0720  0.1599
  136MOL    C8643556   2.060   3.781   4.534  0.4675 -0.5865 -0.1824
  136MOL    C8743557   1.923   3.759   4.477  0.2220 -0.1203 -0.4275
  136MOL    C8843558   2.114   3.695   4.630 -0.5597 -0.3588 -0.2634
  136MOL    C8943559   2.243   3.716   4.680 -0.2599 -0.2032  0.2561
  136MOL    H9043560   2.502   3.742   4.729  3.0273  1.2289  0.3980
  136MOL    H9143561   2.525   3.821   4.583  0.2210  1.3921  0.6288
  136MOL    H9243562   2.328   3.990   4.495 -1.5772  1.1250 -0.5111
  136MOL    H9343563   2.094   3.977   4.435 -0.3412 -0.4880 -0.2675
  136MOL    H9443564   1.905   3.860   4.439  1.8126 -0.1052 -1.2096
  136MOL    H9543565   1.857   3.749   4.562  0.2852  1.8963 -0.1052
  136MOL    H9643566   2.061   3.611   4.672  1.9113 -1.6209  0.4613
  136MOL    H9743567   2.290   3.635   4.733  0.9665  0.3492  0.0313
  136MOL    C9843568   1.910   3.667   4.353 -1.0109 -0.4386 -0.4361
  136MOL    C9943569   1.767   3.670   4.300 -0.5002  0.1172  0.3005
  136MOL   C10043570   1.665   3.593   4.359 -0.5910  0.5301  0.5125
  136MOL   C10143571   1.528   3.612   4.325 -0.2159  0.2012  0.2411
  136MOL   C10243572   1.493   3.712   4.234  0.0394  0.3374 -0.1987
  136MOL   C10343573   1.344   3.737   4.210  0.1509 -0.6794 -0.3953
  136MOL   C10443574   1.595   3.789   4.180 -0.2263 -0.5136 -0.2608
  136MOL   C10543575   1.731   3.778   4.221  0.2869 -0.1215 -0.1558
  136MOL   H10643576   1.960   3.573   4.378 -1.0472 -0.3586 -0.0626
  136MOL   H10743577   1.967   3.711   4.270  0.1536  0.3473  0.7560
  136MOL   H10843578   1.686   3.512   4.427 -2.2723 -1.8974 -1.7495
  136MOL   H10943579   1.455   3.557   4.383  1.4303 -0.6320  1.5741
  136MOL   H11043580   1.278   3.721   4.295  1.9622 -1.8439  0.8494
  136MOL   H11143581   1.334   3.844   4.193  3.5387 -0.1619  0.4922
  136MOL   H11243582   1.568   3.861   4.104 -1.5164  1.2078  1.7742
  136MOL   H11343583   1.800   3.842   4.168  3.4006 -0.6034  3.0795
  136MOL   C11443584   1.280   3.652   4.098  0.2060  0.1737 -0.8023
  136MOL   C11543585   1.131   3.683   4.085 -0.6892  0.0753  0.3879
  136MOL   C11643586   1.031   3.591   4.122 -0.0741  0.1650  0.2604
  136MOL   C11743587   0.901   3.632   4.099  0.2847 -0.1877 -0.1283
  136MOL   C11843588   0.864   3.756   4.046  0.4043  0.5970  0.0428
  136MOL   C11943589   0.714   3.800   4.029 -0.3147 -0.5688 -0.4734
  136MOL   C12043590   0.966   3.845   4.003 -0.7041  0.1993 -0.5860
  136MOL   C12143591   1.099   3.811   4.030 -0.3182  0.6864 -0.0887
  136MOL   H12243592   1.285   3.549   4.131 -0.0283  0.6735  0.8405
  136MOL   H12343593   1.335   3.674   4.006  0.6564  0.1451 -0.5385
  136MOL   H12443594   1.043   3.493   4.166 -0.3799 -0.0989 -0.2511
  136MOL   H12543595   0.820   3.568   4.130 -0.4872  0.2685 -1.1506
  136MOL   H12643596   0.646   3.743   4.092 -0.7328 -0.1666 -0.5552
  136MOL   H12743597   0.702   3.903   4.062  1.2294 -0.0928 -1.3390
  136MOL   H12843598   0.948   3.936   3.948  1.4581  0.7949 -0.3578
  136MOL   H12943599   1.174   3.881   3.995  2.0152 -0.8902  1.6145
  136MOL   C13043600   0.658   3.771   3.888  0.1793  0.4590 -0.1201
  136MOL   C13143601   0.512   3.811   3.884  0.5640 -0.4889 -1.2187
  136MOL   C13243602   0.406   3.723   3.921 -0.0042  0.5992  0.5617
  136MOL   C13343603   0.271   3.766   3.921  0.2317 -0.1863  0.0551
  136MOL   C13443604   0.233   3.894   3.877  0.3199 -0.0337  0.1110
  136MOL   C13543605   0.090   3.948   3.865 -0.2283 -0.1376 -0.0430
  136MOL   C13643606   0.337   3.981   3.834  0.4843 -0.1601 -0.8070
  136MOL   C13743607   0.472   3.942   3.845 -0.5474 -0.7311 -0.8460
  136MOL   H13843608   0.677   3.669   3.854  0.1064  0.6549 -0.7552
  136MOL   H13943609   0.706   3.832   3.812  3.1236  0.8799  2.0179
  136MOL   H14043610   0.434   3.624   3.954  0.4329 -0.5319 -2.8997
  136MOL   H14143611   0.191   3.699   3.948 -0.4615  0.1882 -1.0378
  136MOL   H14243612   0.027   3.928   3.952 -0.9616  1.5666 -0.1536
  136MOL   H14343613   0.094   4.057   3.862  0.0690 -0.1190  0.9351
  136MOL   H14443614   0.302   4.076   3.796  1.7962  0.4698 -0.4905
  136MOL   H14543615   0.543   4.003   3.791 -1.5331 -0.0348 -1.3638
  136MOL   C14643616   0.020   3.909   3.732 -0.1994 -0.0167 -0.9029
  136MOL   C14743617  -0.120   3.953   3.722 -0.3506  0.9557  0.4154
  136MOL   C14843618  -0.164   4.067   3.643 -0.9389 -0.2036  0.6994
  136MOL   C14943619  -0.302   4.096   3.625  0.1809  0.0705  0.4553
  136MOL   C15043620  -0.395   4.022   3.694 -1.1549  0.2023 -0.5697
  136MOL   C15143621  -0.545   4.062   3.695 -0.0156 -0.3560 -0.9291
  136MOL   C15243622  -0.353   3.914   3.776 -0.1557  0.5806  0.4851
  136MOL   C15343623  -0.219   3.877   3.792  0.4867 -0.3051 -0.1246
  136MOL   H15443624   0.025   3.801   3.722  3.2705  0.1142 -1.4332
  136MOL   H15543625   0.084   3.943   3.650 -0.3494  1.0234 -0.6039
  136MOL   H15643626  -0.089   4.118   3.584  0.9269 -2.7548  0.8003
  136MOL   H15743627  -0.337   4.182   3.570  0.0431 -1.4648 -1.9751
  136MOL   H15843628  -0.563   4.085   3.800  2.7641  0.2615 -0.5304
  136MOL   H15943629  -0.566   4.153   3.640 -3.3340  0.4305  1.5113
  136MOL   H16043630  -0.430   3.852   3.818  0.3865 -0.5347 -0.1437
  136MOL   H16143631  -0.195   3.787   3.847 -0.6473 -2.0755 -2.4209
  136MOL   C16243632  -0.642   3.953   3.639  0.6858 -1.0929  0.2854
  136MOL   C16343633  -0.783   3.985   3.625 -0.4685 -0.4638 -0.1342
  136MOL   C16443634  -0.864   4.016   3.736  0.7289  0.3125  0.1759
  136MOL   C16543635  -0.998   4.041   3.722  0.1412  0.1703 -1.5312
  136MOL   C16643636  -1.052   4.048   3.598 -0.2118  0.2817 -0.7253
  136MOL   C16743637  -1.199   4.076   3.577 -0.5120  0.2379  0.1496
  136MOL   C16843638  -0.969   4.023   3.481 -0.1147 -0.3860 -0.3837
  136MOL   C16943639  -0.832   4.003   3.491  0.0117 -0.0606 -0.9253
  136MOL   H17043640  -0.631   3.866   3.703  0.2942 -1.5677 -0.2845
  136MOL   H17143641  -0.606   3.928   3.539  0.5168 -0.2622  0.0098
  136MOL   H17243642  -0.817   4.012   3.833 -0.2291  1.5559  0.7011
  136MOL   H17343643  -1.056   4.065   3.810  0.8147 -0.0662 -1.0216
  136MOL   H17443644  -1.234   3.990   3.520  0.3821 -0.2242  0.2888
  136MOL   H17543645  -1.252   4.083   3.671  1.6422 -1.1111  1.5053
  136MOL   H17643646  -1.011   4.021   3.381  2.7663  0.7592 -1.6599
  136MOL   H17743647  -0.768   3.983   3.406 -0.1660 -0.1458 -1.0402
  136MOL   C17843648  -1.223   4.188   3.479 -0.3376 -0.6896 -0.1474
  136MOL   C17943649  -1.371   4.195   3.438  0.8104  0.5755 -0.2391
  136MOL   C18043650  -1.456   4.255   3.532 -0.9479 -0.1914 -0.4993
  136MOL   C18143651  -1.589   4.269   3.500 -0.8164  0.4593 -0.4411
  136MOL   C18243652  -1.636   4.216   3.374  0.5036 -0.4286  0.0123
  136MOL   C18343653  -1.788   4.231   3.350 -0.6851  0.5739  0.4367
  136MOL   C18443654  -1.545   4.162   3.278  0.5053  0.2173 -0.2068
  136MOL   C18543655  -1.411   4.153   3.309 -0.4811 -0.0482 -0.2511
  136MOL   H18643656  -1.175   4.166   3.383 -1.0988 -0.7755 -0.5110
  136MOL   H18743657  -1.199   4.291   3.504  0.7507 -0.7997 -0.7009
  136MOL   H18843658  -1.426   4.287   3.631 -0.0852 -1.3466 -0.3891
  136MOL   H18943659  -1.654   4.314   3.572  0.8723  1.1231  0.7054
  136MOL   H19043660  -1.830   4.131   3.337 -2.6328  1.4426 -0.2422
  136MOL   H19143661  -1.829   4.281   3.438  1.9054  4.2552 -0.3234
  136MOL   H19243662  -1.585   4.119   3.188  0.0408  0.5192 -0.1426
  136MOL   H19343663  -1.341   4.119   3.234  1.5837 -0.1013  1.6518
  136MOL   C19443664  -1.827   4.330   3.240 -0.1397  0.0037 -0.3795
  136MOL   C19543665  -1.971   4.336   3.212  0.1624 -0.3075 -0.6270
  136MOL   C19643666  -2.025   4.215   3.163  0.4176  0.1770  0.7848
  136MOL   C19743667  -2.164   4.210   3.126  0.1213 -0.0324 -0.6752
  136MOL   C19843668  -2.244   4.325   3.133  0.7865  0.1015  0.0864
  136MOL   C19943669  -2.388   4.332   3.090  0.2517 -0.1238 -0.3378
  136MOL   C20043670  -2.185   4.443   3.177 -0.2003 -0.6551 -0.1489
  136MOL   C20143671  -2.049   4.454   3.217  0.4265 -0.2671 -1.0051
  136MOL   H20243672  -1.785   4.288   3.148 -0.6326  1.3680 -1.2583
  136MOL   H20343673  -1.793   4.433   3.255  1.1360 -0.4395 -0.1647
  136MOL   H20443674  -1.955   4.132   3.166 -0.4925 -0.7881 -2.4558
  136MOL   H20543675  -2.198   4.114   3.092 -1.5536 -0.1419  1.1959
  136MOL   H20643676  -2.445   4.250   3.134  0.4383  0.4928  1.0974
  136MOL   H20743677  -2.431   4.421   3.136 -1.0093 -1.2704  0.7359
  136MOL   H20843678  -2.241   4.536   3.176 -0.1246 -0.5635  1.6552
  136MOL   H20943679  -1.992   4.545   3.224 -0.3506  0.2184 -0.9278
  136MOL   C21043680  -2.406   4.331   2.940  0.1629  0.3183 -0.5545
  136MOL   C21143681  -2.551   4.360   2.900  0.7384  0.1281 -0.3535
  136MOL   C21243682  -2.664   4.286   2.942 -0.2640  0.0486 -0.2369
  136MOL   C21343683  -2.795   4.312   2.891  0.0147 -0.7508 -0.3897
  136MOL   C21443684  -2.812   4.414   2.788 -0.1991 -0.0455  0.3565
  136MOL   C21543685  -2.946   4.437   2.710  0.2226  0.0214 -0.5419
  136MOL   C21643686  -2.697   4.486   2.742 -0.0778 -0.7572 -0.0227
  136MOL   C21743687  -2.572   4.459   2.798  0.0757  0.0770  0.1592
  136MOL   H21843688  -2.381   4.233   2.899  1.4964  1.0575 -1.5150
  136MOL   H21943689  -2.344   4.408   2.894  1.3807  0.1220  0.7408
  136MOL   H22043690  -2.645   4.214   3.020  2.7656 -0.5673 -1.4658
  136MOL   H22143691  -2.886   4.264   2.924 -1.8385  2.8371 -0.0372
  136MOL   H22243692  -2.933   4.513   2.633 -0.2272  1.7025  0.9908
  136MOL   H22343693  -2.981   4.339   2.677 -2.3285 -0.5742  3.5232
  136MOL   H22443694  -2.698   4.558   2.662  0.9693  1.3952  1.8445
  136MOL   H22543695  -2.496   4.528   2.766 -2.1375  3.2101  1.4206
  136MOL   C22643696  -3.049   4.494   2.811 -0.2925  0.3017 -0.2441
  136MOL   C22743697  -3.174   4.550   2.749  1.3499 -0.7799  0.1177
  136MOL   C22843698  -3.303   4.484   2.745  0.0364 -0.0908 -0.3248
  136MOL   C22943699  -3.404   4.537   2.664 -0.2155 -0.4078  0.2114
  136MOL   C23043700  -3.390   4.658   2.598  0.7143 -0.2556  0.0896
  136MOL   C23143701  -3.513   4.721   2.527 -0.5245 -0.4531  0.5979
  136MOL   C23243702  -3.272   4.721   2.596  0.2423  0.8486  0.1427
  136MOL   C23343703  -3.162   4.662   2.670 -0.5007 -0.5105 -0.0905
  136MOL   H23443704  -2.992   4.571   2.863  0.8036  1.1269 -2.5978
  136MOL   H23543705  -3.084   4.422   2.885 -1.4618  0.4144 -0.6811
  136MOL   H23643706  -3.334   4.394   2.796 -0.1773 -1.0858 -2.1292
  136MOL   H23743707  -3.496   4.481   2.667 -0.1319 -0.6716 -1.5278
  136MOL   H23843708  -3.501   4.686   2.425 -3.4101 -1.2027  0.4893
  136MOL   H23943709  -3.600   4.673   2.572 -2.6149  2.6474 -0.0249
  136MOL   H24043710  -3.266   4.812   2.539  3.7317 -0.3972 -1.6693
  136MOL   H24143711  -3.071   4.719   2.680 -2.0672  2.1393 -0.5037
  136MOL   C24243712  -3.548   4.870   2.541 -0.3540 -0.4609 -0.5222
  136MOL   C24343713  -3.689   4.901   2.485 -0.2280  0.0818 -0.3452
  136MOL   C24443714  -3.713   4.965   2.365 -0.5254 -0.1669 -0.4102
  136MOL   C24543715  -3.839   4.998   2.322 -0.3400 -0.7156 -0.4085
  136MOL   C24643716  -3.952   4.964   2.401  0.4774  0.6490 -0.4542
  136MOL   C24743717  -4.094   5.009   2.365  0.7542  0.4513 -0.2304
  136MOL   C24843718  -3.933   4.900   2.528 -0.3835 -0.8189  0.5919
  136MOL   C24943719  -3.802   4.871   2.565 -0.0297  0.2766 -0.8152
  136MOL   H25043720  -3.546   4.904   2.644 -1.5165 -1.8084 -0.0335
  136MOL   H25143721  -3.470   4.924   2.487 -1.9141  0.6550 -1.7049
  136MOL   H25243722  -3.635   4.988   2.294 -0.8749 -2.1160 -1.4570
  136MOL   H25343723  -3.852   5.059   2.234  0.0349 -2.3687 -1.6316
  136MOL   H25443724  -4.089   5.079   2.281  1.6425 -1.9985 -2.2611
  136MOL   H25543725  -4.148   4.923   2.327  0.2275  0.2704  0.9025
  136MOL   H25643726  -4.020   4.873   2.587  0.2838 -3.2283  0.5334
  136MOL   H25743727  -3.787   4.837   2.666  0.5086  1.4411 -0.5033
  136MOL   C25843728  -4.179   5.072   2.475 -0.4986 -0.2768 -0.3312
  136MOL   C25943729  -4.309   5.132   2.424  0.7613 -0.3605  0.1321
  136MOL   C26043730  -4.313   5.229   2.318  0.3907  0.0517 -0.2919
  136MOL   C26143731  -4.436   5.268   2.261  0.2888  0.7976 -0.3703
  136MOL   C26243732  -4.557   5.219   2.323 -0.1303 -0.2253  0.1141
  136MOL   C26343733  -4.687   5.273   2.276 -0.4242 -0.1024 -0.6368
  136MOL   C26443734  -4.551   5.127   2.425 -0.3123  1.0968  0.1831
  136MOL   C26543735  -4.427   5.084   2.482 -0.5784 -0.1257  0.2762
  136MOL   H26643736  -4.125   5.157   2.517 -1.6961  0.2539  0.1648
  136MOL   H26743737  -4.200   5.002   2.555 -2.0600 -0.0168 -0.5075
  136MOL   H26843738  -4.219   5.273   2.288  0.1759 -0.0795 -1.1627
  136MOL   H26943739  -4.438   5.331   2.174  1.2048 -0.0016 -0.9813
  136MOL   H27043740  -4.669   5.356   2.207  0.4045 -0.1792 -0.5128
  136MOL   H27143741  -4.753   5.194   2.242 -0.5314 -0.8079  1.1667
  136MOL   H27243742  -4.645   5.089   2.463  0.2959 -1.4749 -0.7829
  136MOL   H27343743  -4.431   5.008   2.559  1.1339  0.9961  1.5449
  136MOL   C27443744  -4.757   5.354   2.395 -0.3646 -0.1827 -0.3499
  136MOL   C27543745  -4.894   5.393   2.346  0.9117  0.3952  0.1423
  136MOL   C27643746  -5.010   5.346   2.412 -0.2031  0.0664  0.6838
  136MOL   C27743747  -5.141   5.384   2.372 -0.4927  0.4658 -0.3270
  136MOL   C27843748  -5.153   5.483   2.269 -0.2774  0.9004  0.7594
  136MOL   C27943749  -5.293   5.523   2.221  0.8636 -0.2313 -1.0783
  136MOL   C28043750  -5.034   5.527   2.206 -0.1690 -0.8311 -0.0290
  136MOL   C28143751  -4.908   5.485   2.241  0.0556 -0.2368  0.1272
  136MOL   H28243752  -4.757   5.292   2.485 -0.0043 -0.7294 -0.7176
  136MOL   H28343753  -4.702   5.446   2.416  0.1287 -0.8730  1.4556
  136MOL   H28443754  -5.007   5.277   2.495  1.1392 -3.8786 -2.4869
  136MOL   H28543755  -5.227   5.339   2.420 -1.5197  1.2858 -1.3706
  136MOL   H28643756  -5.281   5.566   2.121  1.1460 -1.8428 -1.7469
  136MOL   H28743757  -5.365   5.442   2.218 -0.1075  0.6111 -1.0598
  136MOL   H28843758  -5.037   5.598   2.125 -0.2338  0.1586  0.8257
  136MOL   H28943759  -4.821   5.515   2.185 -0.8274 -0.8565 -1.6410
  136MOL   C29043760  -5.348   5.629   2.316 -0.0541 -0.0106 -0.1426
  136MOL   C29143761  -5.466   5.711   2.264 -0.1607 -0.0653 -0.2167
  136MOL   C29243762  -5.590   5.707   2.331  0.0314 -0.2484 -0.3388
  136MOL   C29343763  -5.693   5.779   2.281  0.1375  0.1977 -0.3587
  136MOL   C29443764  -5.687   5.854   2.165 -0.2216  0.1045  0.6730
  136MOL   C29543765  -5.812   5.935   2.124 -0.3621 -1.3469 -0.2338
  136MOL   C29643766  -5.568   5.861   2.093  0.0522 -0.0745  0.5272
  136MOL   C29743767  -5.458   5.792   2.145 -0.1421  0.6839 -0.5405
  136MOL   H29843768  -5.260   5.689   2.337  1.1802 -2.3969  1.7602
  136MOL   H29943769  -5.372   5.578   2.409 -0.1749  1.1558  0.4673
  136MOL   H30043770  -5.605   5.646   2.419 -0.6473  0.6610  0.1821
  136MOL   H30143771  -5.782   5.772   2.341 -1.9989  4.4225 -2.7794
  136MOL   H30243772  -5.804   5.946   2.016  1.6894 -1.4868 -0.1250
  136MOL   H30343773  -5.908   5.883   2.128 -1.7813  1.0804 -1.4733
  136MOL   H30443774  -5.560   5.923   2.005  1.5165 -1.2850 -0.2249
  136MOL   H30543775  -5.366   5.789   2.088 -1.8151  1.3533 -3.3892
  136MOL   C30643776  -5.804   6.076   2.190 -0.5196  0.7402  0.2539
  136MOL   C30743777  -5.925   6.167   2.157  0.7452  0.4133 -0.6001
  136MOL   C30843778  -6.045   6.153   2.235  0.0105 -0.1390  0.0930
  136MOL   C30943779  -6.156   6.235   2.213 -0.4643 -0.1124  0.0726
  136MOL   C31043780  -6.143   6.331   2.107  0.9903 -0.5919  0.5546
  136MOL   C31143781  -6.270   6.409   2.071 -0.3606 -0.5724 -0.0205
  136MOL   C31243782  -6.030   6.341   2.028 -0.2269 -0.1411  0.0317
  136MOL   C31343783  -5.919   6.261   2.056 -0.4861  0.2281  0.0696
  136MOL   H31443784  -5.710   6.127   2.168  0.1426  0.2526  1.8671
  136MOL   H31543785  -5.806   6.051   2.296 -2.4072 -2.7068 -0.5097
  136MOL   H31643786  -6.039   6.078   2.312 -0.2187  1.1046  1.3610
  136MOL   H31743787  -6.250   6.220   2.263 -0.6948  2.3012  0.4107
  136MOL   H31843788  -6.333   6.375   1.988 -1.4847  1.0647  0.1491
  136MOL   H31943789  -6.336   6.426   2.157  2.1414  0.7702  1.6935
  136MOL   H32043790  -6.033   6.405   1.940 -1.5635 -1.1891 -0.7004
  136MOL   H32143791  -5.830   6.267   1.995 -0.2585 -1.6087  0.2137
  136MOL   H32243792  -6.246   6.511   2.042 -1.3190 -1.0098 -2.4324
  137MOL     C143793   4.434   4.300   3.466 -0.4921 -0.0507  0.0427
  137MOL     C243794   4.293   4.340   3.438  0.0858 -0.2950  0.3570
  137MOL     C343795   4.211   4.251   3.369  0.1841  0.6267 -0.0403
  137MOL     C443796   4.086   4.290   3.334 -0.0380  0.4255 -0.5878
  137MOL     C543797   4.034   4.412   3.376  0.1379 -0.2294 -0.0050
  137MOL     C643798   3.911   4.458   3.305 -0.4884 -0.3118 -0.0726
  137MOL     C743799   4.115   4.500   3.451 -0.0951  0.4424 -0.4868
  137MOL     C843800   4.244   4.463   3.489  0.2551  0.4531 -0.4109
  137MOL     H943801   4.430   4.218   3.537  0.4381 -0.4085 -0.3031
  137MOL    H1043802   4.470   4.256   3.373  0.5447 -1.0259  0.8952
  137MOL    H1143803   4.247   4.152   3.346 -0.2513  0.3827  0.3028
  137MOL    H1243804   4.036   4.228   3.261 -0.2070 -0.2949  0.1386
  137MOL    H1343805   3.918   4.567   3.310  1.8289 -0.3582 -1.4269
  137MOL    H1443806   3.923   4.439   3.199 -1.7699 -0.6036 -0.1703
  137MOL    H1543807   4.093   4.605   3.465 -0.4463  0.2512  0.4492
  137MOL    H1643808   4.310   4.530   3.542  0.2418 -1.3184  1.9623
  137MOL    H1743809   4.494   4.383   3.503 -0.3210  0.1845 -0.7450
  137MOL    C1843810   3.780   4.402   3.366  0.4892 -0.4550 -0.1333
  137MOL    C1943811   3.659   4.457   3.297  0.0327 -0.3990  0.4446
  137MOL    C2043812   3.556   4.368   3.279  0.5829 -0.0224  0.6868
  137MOL    C2143813   3.436   4.406   3.219  0.6275  0.3858  0.1184
  137MOL    C2243814   3.420   4.541   3.178 -0.3947 -0.0608  0.3771
  137MOL    C2343815   3.285   4.573   3.102 -0.0604 -0.1668  0.3241
  137MOL    C2443816   3.523   4.639   3.194  0.2807  0.6725 -0.1708
  137MOL    C2543817   3.643   4.591   3.253  0.1106  1.1853 -0.3363
  137MOL    H2643818   3.771   4.296   3.390  0.2214  0.0194  1.9935
  137MOL    H2743819   3.771   4.440   3.468 -2.7863  0.9259 -0.8763
  137MOL    H2843820   3.567   4.264   3.305  1.3785 -0.3297 -0.8229
  137MOL    H2943821   3.364   4.326   3.203 -0.2632  1.1769  0.1140
  137MOL    H3043822   3.281   4.501   3.021  0.3867 -0.2262  0.3507
  137MOL    H3143823   3.286   4.672   3.058  0.6050 -0.0127  0.6803
  137MOL    H3243824   3.520   4.740   3.156  0.2236  1.6751  2.4043
  137MOL    H3343825   3.722   4.664   3.260  1.4054 -0.0251 -1.8423
  137MOL    C3443826   3.158   4.560   3.193 -0.0267  0.6623 -0.2332
  137MOL    C3543827   3.029   4.583   3.118 -0.5915  0.0911 -0.2533
  137MOL    C3643828   2.994   4.707   3.059  1.0171  0.1947 -0.0607
  137MOL    C3743829   2.872   4.724   2.996  0.0428  0.0819  0.4797
  137MOL    C3843830   2.778   4.618   2.990 -0.7417 -0.2493 -0.6035
  137MOL    C3943831   2.641   4.640   2.922 -0.2826 -0.4738 -0.0055
  137MOL    C4043832   2.812   4.491   3.042 -0.9627 -0.9337  0.3924
  137MOL    C4143833   2.938   4.473   3.104 -0.3668 -0.5390  0.3589
  137MOL    H4243834   3.178   4.629   3.275  1.1269  0.4041 -0.2951
  137MOL    H4343835   3.157   4.458   3.230 -1.1069 -0.0645 -2.1993
  137MOL    H4443836   3.068   4.784   3.078  2.2688 -0.7949 -0.8718
  137MOL    H4543837   2.862   4.820   2.947  0.6690  0.5675  1.2776
  137MOL    H4643838   2.644   4.706   2.836 -0.3817  1.0197  1.1081
  137MOL    H4743839   2.596   4.543   2.899 -0.0671 -0.6960  0.5085
  137MOL    H4843840   2.749   4.404   3.035  0.1570 -1.6662 -0.9271
  137MOL    H4943841   2.961   4.375   3.142 -1.4251 -1.5885 -1.6437
  137MOL    C5043842   2.538   4.711   3.015  0.2248  0.1009 -0.0654
  137MOL    C5143843   2.395   4.697   2.962  0.1336 -0.1997 -0.0200
  137MOL    C5243844   2.361   4.778   2.858 -0.3376  0.1006  1.1963
  137MOL    C5343845   2.231   4.782   2.805 -0.1325  0.3893  0.3410
  137MOL    C5443846   2.138   4.685   2.849 -0.3635 -0.5033  0.1830
  137MOL    C5543847   1.997   4.685   2.790  0.0383  0.5753  0.2781
  137MOL    C5643848   2.172   4.604   2.955 -0.4798  0.1379  0.2908
  137MOL    C5743849   2.304   4.600   3.012  0.3794  0.0879 -0.0519
  137MOL    H5843850   2.552   4.818   3.026  0.6511 -0.1321  1.7201
  137MOL    H5943851   2.529   4.668   3.115 -0.0607 -0.7050 -0.4276
  137MOL    H6043852   2.434   4.850   2.823 -0.0217  0.2007  2.0441
  137MOL    H6143853   2.212   4.851   2.724  1.6683 -1.0785 -1.3913
  137MOL    H6243854   2.005   4.683   2.681 -0.2940  0.9663  0.2468
  137MOL    H6343855   1.946   4.597   2.828 -0.7118  1.4769  1.3722
  137MOL    H6443856   2.097   4.535   2.989  0.9299 -0.9246  1.2946
  137MOL    H6543857   2.321   4.537   3.098 -1.6956 -1.6017 -0.8163
  137MOL    C6643858   1.925   4.816   2.846  0.2722 -0.0337  0.4509
  137MOL    C6743859   1.773   4.816   2.817 -0.2050 -0.1780  0.5850
  137MOL    C6843860   1.724   4.856   2.685 -0.1714 -0.1640  0.1652
  137MOL    C6943861   1.589   4.867   2.664  1.1198 -0.1983 -0.0207
  137MOL    C7043862   1.500   4.850   2.776  0.6738 -0.0164 -0.2982
  137MOL    C7143863   1.354   4.860   2.753  0.8519 -0.1052 -0.3177
  137MOL    C7243864   1.547   4.802   2.899 -0.3871  0.4962  0.6718
  137MOL    C7343865   1.684   4.800   2.924  0.3391  0.5903  0.2105
  137MOL    H7443866   1.968   4.900   2.791  0.6782 -0.1995  0.5154
  137MOL    H7543867   1.934   4.830   2.954  0.3345 -1.4126  0.6305
  137MOL    H7643868   1.801   4.869   2.611  1.5960  0.0885  2.0024
  137MOL    H7743869   1.573   4.899   2.563  1.4187 -0.8196 -0.2726
  137MOL    H7843870   1.309   4.770   2.795 -0.9819  0.3487 -1.2302
  137MOL    H7943871   1.332   4.854   2.646  1.5843 -1.0814 -0.4140
  137MOL    H8043872   1.483   4.779   2.983 -0.7821  3.3606  1.2110
  137MOL    H8143873   1.719   4.773   3.022  0.4950  1.3919  0.3779
  137MOL    C8243874   1.292   4.988   2.814  0.8226 -0.4969  0.5044
  137MOL    C8343875   1.134   4.991   2.801 -0.6289  0.3455  0.2414
  137MOL    C8443876   1.087   4.995   2.673  0.9060  0.5202  0.2475
  137MOL    C8543877   0.950   4.982   2.648 -0.1700 -0.0654  0.3460
  137MOL    C8643878   0.857   4.971   2.758  0.4031 -0.4793  0.3707
  137MOL    C8743879   0.708   4.949   2.737  0.0568  0.0869 -0.0631
  137MOL    C8843880   0.913   4.977   2.886  0.2914  0.8695  0.0258
  137MOL    C8943881   1.051   4.986   2.912  0.4774  0.0814 -0.2333
  137MOL    H9043882   1.328   5.081   2.771 -1.0969  1.5486  3.1866
  137MOL    H9143883   1.318   4.993   2.919  0.0752 -1.3616  0.7406
  137MOL    H9243884   1.145   5.004   2.582  1.1076 -1.9876  0.0882
  137MOL    H9343885   0.911   4.967   2.548 -0.8377  0.1214  0.5759
  137MOL    H9443886   0.674   4.880   2.814  0.5367  0.7398  0.7583
  137MOL    H9543887   0.681   4.912   2.639  0.3035 -0.2480 -0.0027
  137MOL    H9643888   0.838   4.979   2.964 -3.9097 -0.5335 -3.7512
  137MOL    H9743889   1.085   4.990   3.014  0.7373  1.4058 -0.3660
  137MOL    C9843890   0.637   5.081   2.740 -0.6829  0.2013  0.2959
  137MOL    C9943891   0.482   5.067   2.730  0.3378 -0.2855 -0.5091
  137MOL   C10043892   0.395   5.042   2.843  0.1225 -0.2345 -0.3065
  137MOL   C10143893   0.254   5.039   2.829 -0.1812 -0.1732 -0.4365
  137MOL   C10243894   0.203   5.057   2.702  0.0689  0.0216  0.7254
  137MOL   C10343895   0.052   5.045   2.683  0.4471  0.4383  0.3345
  137MOL   C10443896   0.283   5.077   2.589  0.1228  0.1428  0.0044
  137MOL   C10543897   0.421   5.081   2.608 -0.5991 -0.6206  0.3135
  137MOL   H10643898   0.678   5.143   2.661  2.0916 -0.6449  1.0297
  137MOL   H10743899   0.665   5.129   2.834 -0.8507 -1.0788  1.0138
  137MOL   H10843900   0.435   5.031   2.943  1.4981 -2.1513 -1.0505
  137MOL   H10943901   0.198   5.006   2.915 -0.2773  1.6531  0.2131
  137MOL   H11043902   0.050   5.082   2.581  2.1690  0.1235  0.1621
  137MOL   H11143903   0.021   4.942   2.671  0.7242  0.3124  0.6662
  137MOL   H11243904   0.241   5.095   2.491  1.8128 -0.6376 -0.8876
  137MOL   H11343905   0.481   5.098   2.520 -1.1626  2.0313  0.3932
  137MOL   C11443906  -0.036   5.119   2.780  0.5571  0.4633 -0.1089
  137MOL   C11543907  -0.187   5.106   2.753  0.5765  0.0030 -0.0562
  137MOL   C11643908  -0.248   5.210   2.682 -0.1196  0.5146  0.2216
  137MOL   C11743909  -0.387   5.200   2.683  0.2648  0.4136 -0.2192
  137MOL   C11843910  -0.458   5.084   2.728 -0.7733 -0.5312 -0.4695
  137MOL   C11943911  -0.602   5.061   2.712  0.9923 -0.0606  0.4752
  137MOL   C12043912  -0.388   4.989   2.808 -0.4483 -0.2088  0.1113
  137MOL   C12143913  -0.249   4.991   2.809  0.2141  0.5737 -0.0632
  137MOL   H12243914  -0.008   5.224   2.790 -1.1759  0.8842  0.5955
  137MOL   H12343915  -0.025   5.071   2.878 -0.2062 -1.0287 -0.7443
  137MOL   H12443916  -0.195   5.295   2.640 -0.1636  0.4242 -0.0169
  137MOL   H12543917  -0.434   5.280   2.628  0.5376 -0.3706 -1.6281
  137MOL   H12643918  -0.628   4.959   2.737 -1.1687  0.3554  0.0657
  137MOL   H12743919  -0.657   5.125   2.781  2.5545  0.2266  1.4723
  137MOL   H12843920  -0.433   4.901   2.853  1.3446 -1.0648  0.2641
  137MOL   H12943921  -0.188   4.923   2.866 -0.7341 -1.0632 -0.9453
  137MOL   C13043922  -0.654   5.102   2.574  1.1462  0.0278 -0.0359
  137MOL   C13143923  -0.802   5.094   2.550  0.0889  0.2897 -0.6880
  137MOL   C13243924  -0.883   5.202   2.599 -0.8453  0.0778  0.1564
  137MOL   C13343925  -1.023   5.203   2.581  0.4241 -0.3891  0.0998
  137MOL   C13443926  -1.088   5.095   2.519 -0.6978 -0.6039 -0.0710
  137MOL   C13543927  -1.236   5.105   2.486 -0.2790  0.1638 -0.1439
  137MOL   C13643928  -1.011   4.984   2.478  0.0325  0.3907 -1.2912
  137MOL   C13743929  -0.867   4.983   2.501  0.7186 -0.4526  0.3744
  137MOL   H13843930  -0.590   5.049   2.503 -1.5196 -1.4327 -1.4192
  137MOL   H13943931  -0.628   5.206   2.553 -1.7138  0.6917 -0.4857
  137MOL   H14043932  -0.840   5.278   2.663  0.7130 -1.0983  0.5469
  137MOL   H14143933  -1.075   5.291   2.618 -1.1129 -1.2485  0.0387
  137MOL   H14243934  -1.269   5.027   2.418 -3.8792 -0.0388  1.7001
  137MOL   H14343935  -1.291   5.092   2.579  0.8064 -0.3719  0.4289
  137MOL   H14443936  -1.051   4.896   2.431 -0.3071  1.4688 -3.0988
  137MOL   H14543937  -0.821   4.887   2.479 -2.2920 -1.6600 -0.9597
  137MOL   C14643938  -1.275   5.239   2.426  0.0376 -0.1141 -0.4694
  137MOL   C14743939  -1.418   5.249   2.398 -0.1617 -0.1379  0.9435
  137MOL   C14843940  -1.519   5.217   2.495  0.0075  0.5262  0.0415
  137MOL   C14943941  -1.656   5.232   2.471  0.2840 -0.2716 -0.0759
  137MOL   C15043942  -1.692   5.282   2.342 -0.0606  1.0131 -0.0589
  137MOL   C15143943  -1.840   5.305   2.313 -0.2219  0.5309 -0.2105
  137MOL   C15243944  -1.594   5.316   2.248 -0.5665  0.6993 -0.0320
  137MOL   C15343945  -1.454   5.300   2.270  0.6538  0.8678  0.3437
  137MOL   H15443946  -1.211   5.255   2.340  2.4925 -1.0684  1.1333
  137MOL   H15543947  -1.255   5.321   2.496 -0.0841 -0.3106 -0.2041
  137MOL   H15643948  -1.473   5.176   2.584 -0.5766  0.2209  0.2041
  137MOL   H15743949  -1.722   5.214   2.555 -1.2140 -1.1862 -1.4234
  137MOL   H15843950  -1.849   5.305   2.204  0.1818  3.3613 -0.2979
  137MOL   H15943951  -1.894   5.213   2.334 -0.0558  0.4521 -0.1289
  137MOL   H16043952  -1.627   5.358   2.154  1.6748 -0.5699 -1.4422
  137MOL   H16143953  -1.375   5.308   2.197  0.2639 -2.3835 -0.5331
  137MOL   C16243954  -1.899   5.426   2.372 -0.1901 -0.0112 -0.6747
  137MOL   C16343955  -2.042   5.429   2.337 -0.1834  0.3980  0.5732
  137MOL   C16443956  -2.149   5.367   2.415  0.4818 -0.7898 -0.4708
  137MOL   C16543957  -2.280   5.387   2.376 -0.2581  0.0078 -0.3209
  137MOL   C16643958  -2.308   5.450   2.252  0.7075 -0.1066 -0.0037
  137MOL   C16743959  -2.451   5.478   2.202  0.2684  0.3174 -0.2352
  137MOL   C16843960  -2.198   5.488   2.167  0.6457 -0.2754  0.2892
  137MOL   C16943961  -2.068   5.494   2.213 -0.2164 -0.3687 -0.0297
  137MOL   H17043962  -1.855   5.514   2.323 -0.1285 -0.6983 -1.8823
  137MOL   H17143963  -1.887   5.415   2.479  1.5515 -1.1432 -0.9502
  137MOL   H17243964  -2.123   5.307   2.500 -1.9919 -1.0458  0.1463
  137MOL   H17343965  -2.367   5.346   2.426  0.3543 -0.5362  0.3143
  137MOL   H17443966  -2.453   5.485   2.093  1.0079  2.5340 -0.1283
  137MOL   H17543967  -2.503   5.385   2.223  0.0960  0.7035  1.0812
  137MOL   H17643968  -2.217   5.530   2.069  2.4917  2.0469  0.8880
  137MOL   H17743969  -1.989   5.538   2.155  0.6892 -1.4237  0.3886
  137MOL   C17843970  -2.515   5.602   2.268  0.0613  0.2485 -0.0191
  137MOL   C17943971  -2.662   5.628   2.234 -0.1525  1.0184  1.0477
  137MOL   C18043972  -2.765   5.551   2.300 -0.4013  0.3572  0.6506
  137MOL   C18143973  -2.900   5.591   2.282  0.4552 -0.1109 -0.1628
  137MOL   C18243974  -2.931   5.698   2.201  0.1563  0.5903 -0.5206
  137MOL   C18343975  -3.077   5.725   2.171  0.0971  0.2117  0.2237
  137MOL   C18443976  -2.835   5.762   2.134 -0.1374  0.4827 -0.5532
  137MOL   C18543977  -2.700   5.733   2.152 -0.2088 -0.0778  0.3685
  137MOL   H18643978  -2.453   5.689   2.246  0.4123  0.6103  2.2405
  137MOL   H18743979  -2.510   5.577   2.374 -0.0938  2.2918  0.4797
  137MOL   H18843980  -2.746   5.475   2.374 -1.4279  0.7058  1.2783
  137MOL   H18943981  -2.980   5.539   2.333  1.1511 -0.5574  0.4894
  137MOL   H19043982  -3.081   5.710   2.063 -1.3332 -0.1805  0.3250
  137MOL   H19143983  -3.144   5.653   2.217 -1.1245  1.6144  0.6651
  137MOL   H19243984  -2.861   5.835   2.059 -0.4654  0.4679 -0.4536
  137MOL   H19343985  -2.621   5.787   2.101 -0.1018 -0.5391  0.0440
  137MOL   C19443986  -3.123   5.860   2.227  0.3616 -0.2721  0.8176
  137MOL   C19543987  -3.267   5.900   2.197 -0.0836 -0.7581  0.2356
  137MOL   C19643988  -3.303   6.006   2.110  0.3747 -0.1521 -0.4623
  137MOL   C19743989  -3.443   6.035   2.091  0.3217 -0.0572 -0.0757
  137MOL   C19843990  -3.542   5.964   2.164 -0.5456 -0.0543 -0.1620
  137MOL   C19943991  -3.685   5.998   2.131  0.1162  0.0749 -0.8181
  137MOL   C20043992  -3.501   5.865   2.256 -0.0317 -0.1858 -0.5558
  137MOL   C20143993  -3.366   5.835   2.272 -0.7347  0.0610 -0.0738
  137MOL   H20243994  -3.056   5.930   2.177 -0.0759  0.4659  1.2664
  137MOL   H20343995  -3.111   5.861   2.335 -0.7458 -0.5844  0.9459
  137MOL   H20443996  -3.229   6.069   2.062 -1.1294  1.4503 -0.7437
  137MOL   H20543997  -3.474   6.106   2.016 -0.1660 -0.9052 -0.6947
  137MOL   H20643998  -3.720   5.996   2.028 -0.9252 -0.4234 -0.4564
  137MOL   H20743999  -3.743   5.923   2.185  0.7219  1.3404  1.6851
  137MOL   H20844000  -3.573   5.820   2.323  0.2962 -1.2751 -0.9242
  137MOL   H20944001  -3.337   5.757   2.341  1.4684 -0.6830 -1.7726
  137MOL   C21044002  -3.728   6.132   2.193 -0.5457  0.5581 -0.1528
  137MOL   C21144003  -3.871   6.162   2.156  0.4320 -1.1668 -0.3166
  137MOL   C21244004  -3.903   6.262   2.056  0.4904 -0.4204  0.6473
  137MOL   C21344005  -4.039   6.287   2.030 -0.0929  0.1083  0.2780
  137MOL   C21444006  -4.139   6.221   2.099 -0.4432  0.1049  0.0364
  137MOL   C21544007  -4.279   6.250   2.065  0.4895 -0.0354  0.0464
  137MOL   C21644008  -4.110   6.115   2.190  0.1581 -1.0512 -0.5279
  137MOL   C21744009  -3.974   6.088   2.219 -0.4161  0.9842 -0.3015
  137MOL   H21844010  -3.667   6.211   2.148 -0.8337  0.1675 -1.2565
  137MOL   H21944011  -3.728   6.140   2.301  1.7750 -0.0843 -0.0706
  137MOL   H22044012  -3.826   6.311   1.999  0.1124  0.7908  1.1550
  137MOL   H22144013  -4.058   6.376   1.973  1.1787  1.7930  2.4018
  137MOL   H22244014  -4.292   6.248   1.957 -3.2454 -2.1262  0.4487
  137MOL   H22344015  -4.348   6.176   2.105 -1.0497  0.2295 -2.0460
  137MOL   H22444016  -4.191   6.060   2.237 -0.2787 -0.9166 -1.1267
  137MOL   H22544017  -3.968   6.011   2.294 -3.3988  1.9408  0.9988
  137MOL   C22644018  -4.324   6.392   2.120  0.3649  1.0024 -0.1896
  137MOL   C22744019  -4.472   6.412   2.089 -0.0755 -0.1982 -0.3858
  137MOL   C22844020  -4.516   6.505   1.992  0.3006 -0.2001 -0.0572
  137MOL   C22944021  -4.653   6.529   1.969 -0.3718 -0.1431  0.0592
  137MOL   C23044022  -4.740   6.446   2.036 -0.9446 -0.1483 -0.5043
  137MOL   C23144023  -4.890   6.466   2.020  0.1039  0.1454  0.4985
  137MOL   C23244024  -4.702   6.346   2.127 -1.4518  0.2872  0.1431
  137MOL   C23344025  -4.563   6.328   2.154  0.2518 -0.1555 -0.0840
  137MOL   H23444026  -4.258   6.467   2.076  1.2982  0.3294  0.0442
  137MOL   H23544027  -4.303   6.384   2.227  1.1662 -0.4538 -0.4452
  137MOL   H23644028  -4.444   6.570   1.944 -0.1954  1.6626  1.6387
  137MOL   H23744029  -4.681   6.609   1.902 -1.2925  0.5271  1.2191
  137MOL   H23844030  -4.899   6.514   1.923  0.0809  0.6978  0.7705
  137MOL   H23944031  -4.944   6.374   2.001 -0.9220  0.1849  2.9936
  137MOL   H24044032  -4.781   6.290   2.175 -2.1387  1.6212  0.5865
  137MOL   H24144033  -4.532   6.260   2.233 -1.2563  1.7796  2.2463
  137MOL   C24244034  -4.950   6.551   2.130  0.7432  0.8403  0.0753
  137MOL   C24344035  -5.091   6.587   2.097  0.6081  0.3111 -0.0099
  137MOL   C24444036  -5.131   6.704   2.026  0.1892 -0.6478  0.6394
  137MOL   C24544037  -5.265   6.729   2.005  0.1666 -0.2818  0.6238
  137MOL   C24644038  -5.362   6.639   2.042  0.0137 -0.6513  0.0448
  137MOL   C24744039  -5.511   6.673   2.013 -0.3381  0.6229  0.1899
  137MOL   C24844040  -5.330   6.525   2.115 -0.1431  0.2097  0.5405
  137MOL   C24944041  -5.196   6.496   2.140 -0.0952  0.3742  0.3663
  137MOL   H25044042  -4.950   6.501   2.226  2.6823  0.8974  0.1233
  137MOL   H25144043  -4.892   6.643   2.137  0.7875  0.9154 -1.1781
  137MOL   H25244044  -5.060   6.775   1.986 -1.2884 -0.2246 -1.2783
  137MOL   H25344045  -5.292   6.821   1.955 -0.6356 -1.0400 -0.3372
  137MOL   H25444046  -5.504   6.727   1.919  1.4454  0.9270  0.4728
  137MOL   H25544047  -5.570   6.585   1.991  1.1481 -0.1623 -0.7522
  137MOL   H25644048  -5.411   6.464   2.153  0.5113  1.0753  3.4671
  137MOL   H25744049  -5.171   6.406   2.194 -0.3776 -1.0754 -1.8478
  137MOL   C25844050  -5.578   6.754   2.129  0.9570 -0.0710  0.5594
  137MOL   C25944051  -5.723   6.770   2.105  0.5219  0.1079 -0.4409
  137MOL   C26044052  -5.818   6.669   2.133  0.3229  0.5443  0.4805
  137MOL   C26144053  -5.955   6.699   2.103  0.8151  0.0876 -0.3492
  137MOL   C26244054  -5.995   6.821   2.056 -0.5432  0.5469 -0.3525
  137MOL   C26344055  -6.142   6.851   2.025 -0.1887 -0.0629  1.0505
  137MOL   C26444056  -5.901   6.924   2.034  0.6565  0.1502  0.1703
  137MOL   C26544057  -5.760   6.895   2.046  0.2888  0.6482 -0.4558
  137MOL   H26644058  -5.532   6.851   2.152 -0.6099  0.5377  1.1464
  137MOL   H26744059  -5.573   6.696   2.221  0.0645 -0.4850  0.3526
  137MOL   H26844060  -5.774   6.572   2.149 -0.8844 -0.1652 -0.4134
  137MOL   H26944061  -6.034   6.625   2.112  1.4918 -0.8645 -2.1264
  137MOL   H27044062  -6.148   6.909   1.933 -0.0589 -1.3097  0.2456
  137MOL   H27144063  -6.176   6.751   1.997  1.9015 -0.5805  0.1955
  137MOL   H27244064  -5.929   7.023   2.002 -2.1866 -0.5813  0.2947
  137MOL   H27344065  -5.694   6.979   2.035 -0.1679  0.7322 -2.5686
  137MOL   C27444066  -6.214   6.915   2.141  0.3604  0.1115  0.2290
  137MOL   C27544067  -6.365   6.921   2.116  0.1295 -0.4435  0.0881
  137MOL   C27644068  -6.425   7.052   2.100  0.8372 -0.6903 -0.4837
  137MOL   C27744069  -6.557   7.065   2.076  0.7536 -0.9084  1.0797
  137MOL   C27844070  -6.640   6.956   2.057 -0.0237 -0.6257  0.4567
  137MOL   C27944071  -6.787   6.976   2.031 -0.1081 -0.4337  0.4685
  137MOL   C28044072  -6.585   6.825   2.070  0.3623 -0.3609 -0.0535
  137MOL   C28144073  -6.446   6.810   2.095  0.3065 -0.0265  0.6149
  137MOL   H28244074  -6.198   6.863   2.235  4.0687  0.7381  0.0115
  137MOL   H28344075  -6.164   7.011   2.158  2.7916 -1.1047  0.0553
  137MOL   H28444076  -6.363   7.140   2.112  1.2626 -1.2380  1.5546
  137MOL   H28544077  -6.603   7.163   2.074  0.9218 -0.8226  1.3758
  137MOL   H28644078  -6.808   7.047   1.951  1.4088  0.8350  1.1856
  137MOL   H28744079  -6.826   6.880   1.998 -0.3053  0.2920 -1.4710
  137MOL   H28844080  -6.645   6.739   2.046 -0.1435 -0.6622  2.1387
  137MOL   H28944081  -6.393   6.716   2.095 -1.3058 -0.9541  0.6324
  137MOL   C29044082  -6.871   7.026   2.146 -0.2370  0.1616  0.4573
  137MOL   C29144083  -7.015   7.039   2.119  0.9050 -0.1894 -0.0414
  137MOL   C29244084  -7.092   7.049   2.233 -1.0845 -0.6882 -0.1394
  137MOL   C29344085  -7.226   7.086   2.230 -0.2443  0.1098 -0.7167
  137MOL   C29444086  -7.293   7.104   2.103 -0.1460 -0.6379 -0.2597
  137MOL   C29544087  -7.439   7.143   2.094  0.8280  0.3818 -0.1303
  137MOL   C29644088  -7.216   7.091   1.985 -0.1559 -0.3219 -0.7439
  137MOL   C29744089  -7.080   7.060   1.994  0.4473 -0.4357 -0.0811
  137MOL   H29844090  -6.832   7.122   2.180 -1.9147  0.2578  2.1842
  137MOL   H29944091  -6.852   6.960   2.231  0.7366 -0.2057 -0.0366
  137MOL   H30044092  -7.050   7.033   2.331 -1.1241 -1.0481 -0.1824
  137MOL   H30144093  -7.281   7.108   2.321 -1.1938  0.3050 -1.3266
  137MOL   H30244094  -7.469   7.105   1.996 -0.3951  0.8130  0.0696
  137MOL   H30344095  -7.497   7.100   2.176 -2.1640 -1.5771 -3.1546
  137MOL   H30444096  -7.255   7.089   1.885  2.4186 -1.1067 -1.7669
  137MOL   H30544097  -7.021   7.054   1.903  0.2094 -0.9919 -0.1959
  137MOL   C30644098  -7.461   7.298   2.096  0.6442 -0.3382  0.1203
  137MOL   C30744099  -7.612   7.338   2.076  0.2684  0.1049 -0.3509
  137MOL   C30844100  -7.694   7.397   2.175  0.0235  0.4746  0.0805
  137MOL   C30944101  -7.829   7.439   2.154 -0.1652  0.5430 -0.5626
  137MOL   C31044102  -7.891   7.416   2.030 -0.2598  0.3929  0.0345
  137MOL   C31144103  -8.033   7.462   1.992  0.1866 -0.5793 -0.8738
  137MOL   C31244104  -7.815   7.346   1.930  0.5389  0.3066 -0.3633
  137MOL   C31344105  -7.676   7.315   1.955  0.2427  0.3667  0.1221
  137MOL   H31444106  -7.416   7.343   2.007 -1.3529  0.5173 -0.4947
  137MOL   H31544107  -7.416   7.340   2.186 -0.4393  2.7429 -0.6898
  137MOL   H31644108  -7.644   7.429   2.265 -0.8970  1.2867  0.3130
  137MOL   H31744109  -7.877   7.492   2.234 -1.4195  0.9388 -1.5571
  137MOL   H31844110  -8.027   7.569   1.973  1.2804 -1.1315 -3.9369
  137MOL   H31944111  -8.069   7.407   1.905  2.4999 -1.8065 -1.0938
  137MOL   H32044112  -7.862   7.343   1.833 -2.8213  0.9704  1.1819
  137MOL   H32144113  -7.622   7.270   1.872  0.7124 -0.1298  0.6946
  137MOL   H32244114  -8.101   7.424   2.068  1.3867 -0.5777  0.2185
  138MOL     C144115   2.015   1.007   3.860  0.0535 -0.1305 -0.4993
  138MOL     C244116   2.149   0.961   3.896  0.1345  0.1451  0.4938
  138MOL     C344117   2.255   0.999   3.817 -0.1827 -0.5912 -0.7032
  138MOL     C444118   2.388   0.955   3.846 -0.0964 -0.3812 -0.0419
  138MOL     C544119   2.409   0.860   3.948 -0.3078  0.1782  0.2655
  138MOL     C644120   2.545   0.788   3.966  0.1412  0.2109 -0.1101
  138MOL     C744121   2.298   0.818   4.023 -0.4543 -0.3319 -0.1025
  138MOL     C844122   2.167   0.866   3.996 -0.4922 -0.0625  0.2525
  138MOL     H944123   1.932   0.982   3.925 -1.1712  0.0343 -1.9528
  138MOL    H1044124   2.004   1.116   3.855  0.0518 -0.1633 -1.2488
  138MOL    H1144125   2.249   1.061   3.728  0.0363  1.4047  0.6501
  138MOL    H1244126   2.472   0.987   3.787 -0.8036  1.6276  0.0075
  138MOL    H1344127   2.542   0.682   3.991 -0.0337 -0.0360 -1.1328
  138MOL    H1444128   2.571   0.801   3.861 -2.0062  3.7122 -0.2907
  138MOL    H1544129   2.325   0.736   4.088 -2.0383 -0.2469  0.6914
  138MOL    H1644130   2.090   0.812   4.048  0.0493 -1.9872 -0.8833
  138MOL    H1744131   1.988   0.962   3.764 -1.5718 -3.2270  1.3296
  138MOL    C1844132   2.641   0.854   4.058  0.1212  0.3496  0.2711
  138MOL    C1944133   2.778   0.782   4.055  0.0431 -0.3644 -0.0522
  138MOL    C2044134   2.801   0.676   4.141 -0.3293  0.8181  0.3218
  138MOL    C2144135   2.895   0.577   4.121  0.5437  0.0170  0.4947
  138MOL    C2244136   2.993   0.600   4.026 -0.4947 -0.2911 -0.1368
  138MOL    C2344137   3.100   0.494   4.005  0.3184  0.4390  1.0112
  138MOL    C2444138   2.987   0.719   3.949 -0.0816  0.3916  0.0029
  138MOL    C2544139   2.871   0.798   3.952  0.4757  0.4728  0.0842
  138MOL    H2644140   2.652   0.959   4.034 -1.2252  0.3777 -0.2653
  138MOL    H2744141   2.590   0.858   4.154 -0.2429  1.9114  0.0170
  138MOL    H2844142   2.718   0.652   4.205 -0.4312 -1.5381 -0.6607
  138MOL    H2944143   2.903   0.488   4.181 -1.4078 -1.7473 -1.7634
  138MOL    H3044144   3.118   0.458   4.106  2.7308 -0.4122  0.3141
  138MOL    H3144145   3.187   0.542   3.960  0.2309 -0.4360 -0.1126
  138MOL    H3244146   3.060   0.737   3.871  0.7240 -1.3097  0.3303
  138MOL    H3344147   2.867   0.875   3.876  2.1603  0.5086  0.0094
  138MOL    C3444148   3.057   0.373   3.915 -0.0122 -0.0200 -0.3465
  138MOL    C3544149   3.162   0.264   3.890  0.5074  0.2065  0.4036
  138MOL    C3644150   3.260   0.281   3.793  0.2871  0.5809 -0.3540
  138MOL    C3744151   3.357   0.185   3.765 -0.1565 -0.0991 -0.4353
  138MOL    C3844152   3.361   0.071   3.846 -0.6574  0.6958 -0.0107
  138MOL    C3944153   3.479  -0.023   3.836  0.2128 -0.6698  0.3785
  138MOL    C4044154   3.256   0.052   3.939  0.7013 -0.3044  0.2721
  138MOL    C4144155   3.164   0.149   3.966 -0.3086 -0.7967 -0.2472
  138MOL    H4244156   3.022   0.415   3.821 -0.4243  2.0643  0.7033
  138MOL    H4344157   2.971   0.327   3.963  0.0285  2.6097  2.4123
  138MOL    H4444158   3.263   0.375   3.740 -0.0103 -0.1136 -1.6437
  138MOL    H4544159   3.430   0.205   3.689  1.9974  2.9234  2.2831
  138MOL    H4644160   3.468  -0.115   3.893 -0.3189 -1.1795 -0.5355
  138MOL    H4744161   3.493  -0.053   3.732  1.6967  2.3509 -0.3402
  138MOL    H4844162   3.264  -0.026   4.014 -1.8372 -1.3300 -0.4781
  138MOL    H4944163   3.084   0.138   4.038 -1.3926 -1.0945 -1.4796
  138MOL    C5044164   3.609   0.047   3.888 -0.6275  0.1201 -0.1894
  138MOL    C5144165   3.733  -0.014   3.837  0.1121  0.3524 -0.2629
  138MOL    C5244166   3.749  -0.152   3.827  0.5627  0.4289 -0.1103
  138MOL    C5344167   3.873  -0.201   3.773 -0.6041 -0.2237 -0.2033
  138MOL    C5444168   3.979  -0.117   3.730  0.4505 -0.4987  0.6147
  138MOL    C5544169   4.105  -0.162   3.671  0.0927  0.5941 -0.7511
  138MOL    C5644170   3.953   0.022   3.747  0.3733  0.3828  0.0770
  138MOL    C5744171   3.830   0.074   3.787 -0.2098  0.5505  0.0087
  138MOL    H5844172   3.625   0.063   3.995  0.5657  3.1436 -0.7640
  138MOL    H5944173   3.608   0.149   3.847  0.8389 -0.1779 -1.0016
  138MOL    H6044174   3.679  -0.226   3.863 -0.9412  0.1176 -3.4643
  138MOL    H6144175   3.890  -0.308   3.770  2.6725  0.2481  0.1208
  138MOL    H6244176   4.084  -0.211   3.576 -1.1776  0.1613 -0.2569
  138MOL    H6344177   4.157  -0.069   3.645 -0.8742  0.5765 -2.7917
  138MOL    H6444178   4.024   0.093   3.708  0.4355  0.4826  0.3666
  138MOL    H6544179   3.814   0.181   3.789 -0.9779  0.4618 -0.9059
  138MOL    C6644180   4.179  -0.251   3.772  0.5771  0.2346 -0.2036
  138MOL    C6744181   4.318  -0.293   3.713  0.7103  0.1356  0.1869
  138MOL    C6844182   4.351  -0.428   3.677  0.1360  0.6190  1.1396
  138MOL    C6944183   4.476  -0.455   3.626 -0.2420  0.0113 -0.1044
  138MOL    C7044184   4.577  -0.353   3.617  0.1233  0.0345  0.0305
  138MOL    C7144185   4.713  -0.396   3.561 -0.9525  0.3050 -0.0324
  138MOL    C7244186   4.547  -0.225   3.662 -0.3534  0.1229 -0.4017
  138MOL    C7344187   4.418  -0.191   3.700  0.7872 -0.2836 -0.3880
  138MOL    H7444188   4.118  -0.340   3.789  0.8663  0.0871  0.0585
  138MOL    H7544189   4.201  -0.206   3.869 -0.2844 -0.3518  0.2717
  138MOL    H7644190   4.273  -0.503   3.676  0.5342  0.2085  1.0225
  138MOL    H7744191   4.510  -0.553   3.594  0.3243 -0.1652  1.0238
  138MOL    H7844192   4.757  -0.307   3.517  0.7246 -0.8394 -0.7454
  138MOL    H7944193   4.707  -0.471   3.482  6.3547 -0.3891 -0.3379
  138MOL    H8044194   4.615  -0.143   3.678 -0.8121  0.4373 -0.0024
  138MOL    H8144195   4.403  -0.090   3.737 -2.5087 -0.1160 -1.9824
  138MOL    C8244196   4.803  -0.449   3.672 -0.4001  0.0264  0.5289
  138MOL    C8344197   4.937  -0.495   3.632 -0.0381  0.9806  0.5550
  138MOL    C8444198   5.050  -0.412   3.655  0.1794 -0.0736  0.1708
  138MOL    C8544199   5.181  -0.457   3.621 -0.8730 -0.3381  0.6125
  138MOL    C8644200   5.194  -0.584   3.556  0.0554 -0.5769 -0.6884
  138MOL    C8744201   5.334  -0.638   3.527  0.3700 -0.4337  0.2752
  138MOL    C8844202   5.081  -0.673   3.546  0.6270 -0.0982  0.1450
  138MOL    C8944203   4.953  -0.629   3.579 -0.1899 -0.4023 -0.7064
  138MOL    H9044204   4.746  -0.534   3.708  1.1215 -0.3973  1.9722
  138MOL    H9144205   4.822  -0.381   3.755  1.0636 -0.0879  0.2868
  138MOL    H9244206   5.038  -0.314   3.699 -0.5576 -1.0077  2.1300
  138MOL    H9344207   5.272  -0.406   3.648 -2.2452  1.9406  1.1460
  138MOL    H9444208   5.414  -0.571   3.494  0.0120 -0.6744 -1.0991
  138MOL    H9544209   5.330  -0.712   3.448 -0.1754  0.7864 -0.8660
  138MOL    H9644210   5.099  -0.774   3.515  1.7929 -0.2910  1.4179
  138MOL    H9744211   4.867  -0.691   3.562 -2.1084  1.4273  2.0302
  138MOL    C9844212   5.404  -0.695   3.649 -0.0858  0.5806 -0.2379
  138MOL    C9944213   5.545  -0.753   3.627  0.3766 -0.4614  0.1092
  138MOL   C10044214   5.571  -0.888   3.592 -0.1258 -0.0277 -0.0704
  138MOL   C10144215   5.707  -0.933   3.569 -0.2563 -0.8756  0.0376
  138MOL   C10244216   5.812  -0.834   3.579 -0.2061  0.2607  0.2220
  138MOL   C10344217   5.955  -0.877   3.547 -1.1699  0.4413  0.4231
  138MOL   C10444218   5.784  -0.706   3.622  0.0029  0.8019 -0.4464
  138MOL   C10544219   5.650  -0.663   3.645  0.8304  0.2278 -0.1052
  138MOL   H10644220   5.338  -0.774   3.688  0.6118  0.6906  1.2163
  138MOL   H10744221   5.412  -0.624   3.732  1.8200  0.2103 -0.1005
  138MOL   H10844222   5.484  -0.952   3.582 -1.2129  1.5272 -0.8741
  138MOL   H10944223   5.744  -1.032   3.547  1.1731 -0.3722  0.0964
  138MOL   H11044224   5.953  -0.938   3.456  0.6134 -1.2728  1.4814
  138MOL   H11144225   6.006  -0.785   3.519 -0.8349  0.0256 -0.3853
  138MOL   H11244226   5.855  -0.625   3.633  0.2662  0.4042  0.7772
  138MOL   H11344227   5.643  -0.559   3.674  0.8933 -0.4757  2.5670
  138MOL   C11444228   6.026  -0.947   3.667  0.3787  0.4584  0.0377
  138MOL   C11544229   6.180  -0.973   3.642 -0.1413 -0.4461  0.6861
  138MOL   C11644230   6.269  -0.953   3.751  0.2301  0.8793 -0.0804
  138MOL   C11744231   6.405  -0.977   3.726  0.9451  0.1100  0.5230
  138MOL   C11844232   6.456  -1.005   3.599 -0.2583  0.2923 -0.2481
  138MOL   C11944233   6.606  -0.988   3.563 -0.5764 -0.3785 -0.6118
  138MOL   C12044234   6.367  -1.030   3.497  0.9536  0.6706  0.0472
  138MOL   C12144235   6.228  -1.018   3.518 -0.5017 -0.7917  0.4826
  138MOL   H12244236   5.985  -1.042   3.703  3.3852 -1.1544 -0.6498
  138MOL   H12344237   6.019  -0.873   3.747 -0.5050 -0.3505  0.7370
  138MOL   H12444238   6.237  -0.916   3.847 -0.7012  0.0700 -0.0643
  138MOL   H12544239   6.471  -0.947   3.806  1.6301  1.3629 -0.4916
  138MOL   H12644240   6.656  -1.064   3.624 -1.4520 -0.2368  0.3073
  138MOL   H12744241   6.619  -1.026   3.462 -0.1242 -1.1059 -0.2872
  138MOL   H12844242   6.404  -1.052   3.398  1.1512 -0.8975  0.4554
  138MOL   H12944243   6.158  -1.028   3.436 -0.9300 -3.0898  1.1023
  138MOL   C13044244   6.671  -0.855   3.576 -0.2985  0.2458  0.0694
  138MOL   C13144245   6.592  -0.736   3.534 -0.6785 -0.0417 -0.4375
  138MOL   C13244246   6.524  -0.728   3.411 -0.3053  0.5568 -0.6545
  138MOL   C13344247   6.422  -0.631   3.398 -1.0182  0.2570  1.0385
  138MOL   C13444248   6.382  -0.549   3.506 -0.0604  0.1470 -0.8961
  138MOL   C13544249   6.276  -0.440   3.491  0.2004 -0.0465 -0.4885
  138MOL   C13644250   6.460  -0.549   3.628 -1.3048 -0.4412 -0.4972
  138MOL   C13744251   6.565  -0.643   3.635  0.0186 -0.4846  0.1085
  138MOL   H13844252   6.769  -0.859   3.529 -0.5353 -1.8161 -0.2747
  138MOL   H13944253   6.707  -0.843   3.679 -1.4812  0.9246  0.4164
  138MOL   H14044254   6.551  -0.803   3.338 -0.5962  0.1607 -0.3519
  138MOL   H14144255   6.377  -0.621   3.300  1.8350  2.2421 -0.1590
  138MOL   H14244256   6.286  -0.363   3.568  0.1177 -2.0891  1.6268
  138MOL   H14344257   6.272  -0.397   3.391 -1.3366 -1.8323 -1.2198
  138MOL   H14444258   6.430  -0.482   3.708 -1.5773  0.5861 -1.4415
  138MOL   H14544259   6.621  -0.655   3.726  0.9983 -0.4974 -0.4900
  138MOL   C14644260   6.137  -0.507   3.512 -0.1363 -0.5613 -0.0839
  138MOL   C14744261   6.022  -0.406   3.507  0.0008  0.2989  1.2135
  138MOL   C14844262   6.010  -0.319   3.611  0.0568 -0.3597  0.4946
  138MOL   C14944263   5.892  -0.249   3.632  0.5489 -0.8486 -0.1362
  138MOL   C15044264   5.792  -0.253   3.532 -0.4606  0.6605  0.5362
  138MOL   C15144265   5.665  -0.171   3.544 -0.8557 -0.1589  0.3144
  138MOL   C15244266   5.813  -0.329   3.414 -0.8398  0.1241 -0.3247
  138MOL   C15344267   5.931  -0.411   3.402 -0.2385  0.1219 -0.8347
  138MOL   H15444268   6.130  -0.575   3.596 -0.2197 -0.5094 -0.0493
  138MOL   H15544269   6.114  -0.575   3.430 -3.0166  0.7256 -0.3997
  138MOL   H15644270   6.083  -0.316   3.690 -0.8152  0.3917  1.2778
  138MOL   H15744271   5.882  -0.174   3.709  1.9726 -0.3578 -0.4019
  138MOL   H15844272   5.680  -0.101   3.626  0.8287  0.2253 -0.2912
  138MOL   H15944273   5.658  -0.116   3.450  0.7652 -1.0384 -0.3372
  138MOL   H16044274   5.747  -0.333   3.329  0.3678 -0.7870 -1.2503
  138MOL   H16144275   5.956  -0.471   3.315 -1.9033  0.3194 -1.4769
  138MOL   C16244276   5.542  -0.263   3.576 -0.0805  0.8444 -0.3180
  138MOL   C16344277   5.422  -0.171   3.570  0.0176 -0.2358  0.3413
  138MOL   C16444278   5.394  -0.074   3.669  0.2485  0.0062  0.2437
  138MOL   C16544279   5.276  -0.001   3.663  0.2394 -0.0115  0.3951
  138MOL   C16644280   5.188  -0.008   3.548  0.3109 -0.2475 -0.9812
  138MOL   C16744281   5.060   0.075   3.551  0.0248  0.1155  0.4086
  138MOL   C16844282   5.222  -0.101   3.444 -1.0367  0.5056  0.6536
  138MOL   C16944283   5.343  -0.176   3.451 -0.2265  0.0921  1.0903
  138MOL   H17044284   5.553  -0.304   3.677  1.1874  0.1464 -0.7289
  138MOL   H17144285   5.522  -0.341   3.503  0.6539 -0.4255  0.8107
  138MOL   H17244286   5.448  -0.081   3.763 -2.3389 -0.6034  1.7358
  138MOL   H17344287   5.259   0.065   3.746  0.0982  0.7688 -0.2489
  138MOL   H17444288   5.076   0.171   3.601 -2.8381  0.4500  0.7770
  138MOL   H17544289   5.033   0.099   3.448 -0.7557 -1.0185  0.3449
  138MOL   H17644290   5.165  -0.107   3.353 -0.6578  3.5955  0.1524
  138MOL   H17744291   5.364  -0.247   3.372  2.7550  2.2067 -0.1062
  138MOL   C17844292   4.941  -0.002   3.623  0.1005  0.2846 -0.2887
  138MOL   C17944293   4.811   0.071   3.608  0.2622 -0.1262 -0.3381
  138MOL   C18044294   4.728   0.045   3.497  0.3977 -0.6559 -0.7105
  138MOL   C18144295   4.610   0.117   3.478 -0.3491  0.2471  0.2735
  138MOL   C18244296   4.572   0.207   3.582 -0.8594  0.0054  0.0577
  138MOL   C18344297   4.443   0.280   3.577  0.6889  0.2055  0.1234
  138MOL   C18444298   4.650   0.230   3.694 -0.6224 -0.4949 -1.1244
  138MOL   C18544299   4.773   0.161   3.707 -0.1404  0.5818  0.6118
  138MOL   H18644300   4.963  -0.012   3.730  0.4675  1.4273 -0.2571
  138MOL   H18744301   4.928  -0.108   3.600  3.1952 -0.3111  0.4618
  138MOL   H18844302   4.760  -0.028   3.424 -1.8682 -1.0734 -1.3146
  138MOL   H18944303   4.542   0.095   3.397 -0.5915 -0.2889  0.6149
  138MOL   H19044304   4.451   0.381   3.619  1.6127  0.0765  0.2761
  138MOL   H19144305   4.417   0.287   3.472 -0.8405 -3.4114  0.1971
  138MOL   H19244306   4.606   0.285   3.775 -0.5389 -0.6379 -0.9814
  138MOL   H19344307   4.821   0.159   3.804  1.3552  0.3076 -0.1215
  138MOL   C19444308   4.326   0.205   3.652 -0.0830  0.0058  0.2054
  138MOL   C19544309   4.196   0.277   3.642  0.0386  0.3196 -0.3918
  138MOL   C19644310   4.151   0.366   3.740 -0.4659 -0.2971  0.2245
  138MOL   C19744311   4.029   0.426   3.730  0.5930 -0.3234  0.4421
  138MOL   C19844312   3.945   0.403   3.618 -0.1180 -0.3853  0.2899
  138MOL   C19944313   3.812   0.474   3.608  0.1321  0.2715  0.4516
  138MOL   C20044314   3.994   0.319   3.515  0.4035 -0.2066  0.0127
  138MOL   C20144315   4.116   0.256   3.526 -0.0230  0.4152  0.0412
  138MOL   H20244316   4.357   0.192   3.755 -1.0613  0.5395  0.5696
  138MOL   H20344317   4.307   0.102   3.621 -1.7940  0.0329  1.1139
  138MOL   H20444318   4.219   0.392   3.820 -0.5441  1.0296 -0.1402
  138MOL   H20544319   4.000   0.499   3.805 -0.5337 -1.1192  0.7942
  138MOL   H20644320   3.809   0.567   3.665  2.3348  0.5776  0.1051
  138MOL   H20744321   3.803   0.503   3.503  2.5413  0.9687  0.4006
  138MOL   H20844322   3.934   0.300   3.427 -1.1234  2.4082  0.4195
  138MOL   H20944323   4.146   0.198   3.439  1.2120 -0.1772  0.8484
  138MOL   C21044324   3.693   0.379   3.645  1.1930  0.0710  0.6772
  138MOL   C21144325   3.556   0.444   3.613  0.0735  0.8843  0.4352
  138MOL   C21244326   3.514   0.548   3.699  0.7417 -0.2695 -0.2174
  138MOL   C21344327   3.391   0.616   3.680  0.1421 -0.1623  0.3848
  138MOL   C21444328   3.309   0.573   3.570 -0.2968  0.2289 -0.3819
  138MOL   C21544329   3.176   0.642   3.545 -0.1543  1.2146  0.7273
  138MOL   C21644330   3.355   0.472   3.488 -0.1316 -0.1471 -0.2397
  138MOL   C21744331   3.478   0.414   3.503  0.1831 -0.6939  0.3659
  138MOL   H21844332   3.706   0.371   3.753  0.4958 -1.2335  0.6707
  138MOL   H21944333   3.686   0.282   3.595 -2.2830  0.7748 -0.3477
  138MOL   H22044334   3.578   0.576   3.781  0.8442  1.0012 -0.7237
  138MOL   H22144335   3.355   0.704   3.732  0.3733 -0.4106  0.9735
  138MOL   H22244336   3.140   0.705   3.626 -2.0459  0.9883  0.0682
  138MOL   H22344337   3.177   0.702   3.454  0.9886  0.0345 -0.0583
  138MOL   H22444338   3.293   0.456   3.401 -0.7366  0.6885  0.0217
  138MOL   H22544339   3.515   0.361   3.416 -1.7464 -3.2222  1.0373
  138MOL   C22644340   3.058   0.538   3.526  0.5384 -0.1499  0.1858
  138MOL   C22744341   2.917   0.604   3.523 -0.3231  0.1431 -0.0625
  138MOL   C22844342   2.817   0.571   3.619 -0.7489  0.7369 -0.1467
  138MOL   C22944343   2.691   0.640   3.613 -0.7006  0.5510  0.2509
  138MOL   C23044344   2.666   0.743   3.525  0.1556 -0.7934 -0.6774
  138MOL   C23144345   2.538   0.836   3.533 -0.1134 -0.0729  0.4273
  138MOL   C23244346   2.769   0.771   3.429  0.3393 -0.0564 -0.1028
  138MOL   C23344347   2.890   0.700   3.428 -0.2769  1.0591 -0.7022
  138MOL   H23444348   3.066   0.475   3.615  0.4697  0.0068  0.3048
  138MOL   H23544349   3.082   0.483   3.435  1.3338 -1.0200  0.9141
  138MOL   H23644350   2.821   0.495   3.696  0.1770  1.3136  0.3844
  138MOL   H23744351   2.631   0.626   3.702  0.2378  3.0236  1.3144
  138MOL   H23844352   2.451   0.791   3.581  0.3866  0.5351  1.9278
  138MOL   H23944353   2.557   0.928   3.587 -3.6132  0.9766 -0.0238
  138MOL   H24044354   2.752   0.847   3.354  5.0989  0.1962 -1.1067
  138MOL   H24144355   2.958   0.728   3.348 -1.9475 -3.2929 -3.8273
  138MOL   C24244356   2.489   0.887   3.392 -0.1605 -0.4283 -0.8101
  138MOL   C24344357   2.358   0.953   3.393 -0.5327 -0.1581 -0.4282
  138MOL   C24444358   2.347   1.078   3.445  0.2622  0.0993 -0.5303
  138MOL   C24544359   2.217   1.136   3.461 -0.4849 -0.0963 -0.0759
  138MOL   C24644360   2.105   1.075   3.408  0.2988  0.1517  0.5988
  138MOL   C24744361   1.980   1.153   3.401 -0.4001  0.4776  0.3860
  138MOL   C24844362   2.119   0.944   3.347  1.3518 -1.0212 -0.0729
  138MOL   C24944363   2.246   0.885   3.343  0.7764 -0.0494  0.0246
  138MOL   H25044364   2.557   0.956   3.343 -0.2981 -1.0192 -1.8349
  138MOL   H25144365   2.481   0.798   3.330  2.0823 -1.0158 -0.3050
  138MOL   H25244366   2.437   1.124   3.483 -0.1842 -0.2737  1.0354
  138MOL   H25344367   2.211   1.238   3.496 -1.4072 -0.8804  2.2294
  138MOL   H25444368   1.998   1.256   3.373 -0.1250  0.0068 -1.2221
  138MOL   H25544369   1.928   1.111   3.315  0.2293  1.7310 -0.6116
  138MOL   H25644370   2.026   0.908   3.306  1.7080 -0.2116 -1.6276
  138MOL   H25744371   2.256   0.793   3.287 -0.6652  0.9389 -1.9537
  138MOL   C25844372   1.899   1.151   3.535  0.0965 -0.6074  0.4527
  138MOL   C25944373   1.760   1.222   3.533  0.9882 -0.0384 -0.8504
  138MOL   C26044374   1.630   1.162   3.550 -0.6851 -0.4724  0.5708
  138MOL   C26144375   1.516   1.240   3.559 -0.4566  0.4167 -0.8520
  138MOL   C26244376   1.518   1.379   3.531  1.0694  0.3654 -0.3529
  138MOL   C26344377   1.394   1.463   3.544  0.9373  0.0145  0.4533
  138MOL   C26444378   1.642   1.440   3.501  0.0996 -0.7999 -0.5326
  138MOL   C26544379   1.761   1.361   3.516 -0.0414 -0.2980 -0.3838
  138MOL   H26644380   1.950   1.198   3.619  0.6691  0.9902 -0.7829
  138MOL   H26744381   1.879   1.047   3.563 -1.0006  0.1395  2.6397
  138MOL   H26844382   1.628   1.056   3.568 -1.4133 -0.2575  1.8239
  138MOL   H26944383   1.419   1.202   3.588  0.4801  1.2266  3.7720
  138MOL   H27044384   1.323   1.418   3.614 -2.7221  1.1052 -2.4011
  138MOL   H27144385   1.415   1.558   3.593 -0.0015  0.4048  0.1071
  138MOL   H27244386   1.643   1.542   3.467  1.0426 -0.6055  0.0483
  138MOL   H27344387   1.856   1.412   3.506  0.2457 -0.4734  1.3279
  138MOL   C27444388   1.314   1.478   3.417 -0.0710 -0.2416  0.0676
  138MOL   C27544389   1.194   1.569   3.423 -0.5634 -0.3565  0.0806
  138MOL   C27644390   1.119   1.580   3.543  0.0409 -0.5081  0.4789
  138MOL   C27744391   1.007   1.664   3.557 -0.4563  0.0112  0.0244
  138MOL   C27844392   0.975   1.743   3.449 -0.2956 -0.4576  0.4714
  138MOL   C27944393   0.845   1.825   3.452  0.0419 -0.2247  0.1692
  138MOL   C28044394   1.055   1.742   3.332  0.1535  0.1602 -1.1024
  138MOL   C28144395   1.159   1.650   3.313 -0.8518 -0.0249 -0.3061
  138MOL   H28244396   1.383   1.516   3.342  0.3779  0.3415  0.7654
  138MOL   H28344397   1.295   1.381   3.372 -0.9066  0.5018 -1.2493
  138MOL   H28444398   1.138   1.513   3.625  0.4482  0.1208  0.8951
  138MOL   H28544399   0.954   1.667   3.650  1.6345 -0.5476  1.2628
  138MOL   H28644400   0.829   1.888   3.365  1.3843  0.7161  0.5787
  138MOL   H28744401   0.763   1.753   3.443  0.4652 -0.5320 -1.4717
  138MOL   H28844402   1.035   1.807   3.248  1.4258 -0.1919 -1.6836
  138MOL   H28944403   1.217   1.644   3.221 -1.0535 -1.1264 -0.3684
  138MOL   C29044404   0.823   1.910   3.574  0.2905  0.0065 -0.1017
  138MOL   C29144405   0.689   1.975   3.589 -0.0168  0.0685  0.1766
  138MOL   C29244406   0.596   1.980   3.481  0.4998 -0.2381  0.2805
  138MOL   C29344407   0.479   2.054   3.488  0.6911  0.1977  0.1635
  138MOL   C29444408   0.436   2.092   3.614 -0.7234  0.1984 -0.1296
  138MOL   C29544409   0.306   2.164   3.634 -0.3065  0.5866  0.5046
  138MOL   C29644410   0.521   2.079   3.723 -0.1997  0.5606  0.1201
  138MOL   C29744411   0.651   2.034   3.711  0.1353  0.5581 -0.0785
  138MOL   H29844412   0.903   1.984   3.570 -1.2941  1.8175  0.7149
  138MOL   H29944413   0.847   1.853   3.664  0.8012 -0.7195 -0.6876
  138MOL   H30044414   0.611   1.940   3.382 -0.6528 -0.1214  0.0500
  138MOL   H30144415   0.417   2.064   3.399 -2.1136  1.4127  2.1915
  138MOL   H30244416   0.232   2.110   3.575  0.8142 -0.1343 -0.2545
  138MOL   H30344417   0.274   2.169   3.738 -0.4953 -0.0611  0.4781
  138MOL   H30444418   0.491   2.102   3.824 -1.1251 -0.1042 -0.0004
  138MOL   H30544419   0.714   2.025   3.798  0.2405 -1.5278 -0.3423
  138MOL   C30644420   0.317   2.312   3.600  0.2701 -0.0141 -0.0465
  138MOL   C30744421   0.180   2.380   3.605 -0.1178  0.2055  0.1696
  138MOL   C30844422   0.176   2.503   3.675 -0.1655  0.4293  0.7336
  138MOL   C30944423   0.049   2.565   3.675 -0.6545 -0.2617  0.1083
  138MOL   C31044424  -0.068   2.508   3.613 -0.1093  0.1233 -0.4247
  138MOL   C31144425  -0.196   2.583   3.604  0.4896 -0.2139 -0.0112
  138MOL   C31244426  -0.059   2.391   3.544 -1.1499  0.0871  0.5694
  138MOL   C31344427   0.064   2.322   3.542 -0.5335  0.0298 -0.8151
  138MOL   H31444428   0.349   2.321   3.496  0.2593  2.0326  0.1027
  138MOL   H31544429   0.385   2.368   3.664 -1.7238  1.5055  0.7964
  138MOL   H31644430   0.269   2.540   3.716  0.7518 -0.0146 -0.8625
  138MOL   H31744431   0.037   2.659   3.728 -0.4196  0.6828 -1.4869
  138MOL   H31844432  -0.218   2.642   3.692 -0.5675  0.6520 -0.8351
  138MOL   H31944433  -0.198   2.646   3.515  4.1346 -3.0882 -2.2651
  138MOL   H32044434  -0.146   2.351   3.495 -1.4560  1.0362  0.3263
  138MOL   H32144435   0.069   2.225   3.494 -0.0271 -0.2325 -0.2341
  138MOL   H32244436  -0.292   2.532   3.600  0.9597 -1.4793  3.6340
  139MOL     C144437   5.359   0.112   0.963  0.2676  0.4552 -0.4984
  139MOL     C244438   5.496   0.054   0.987  0.1277  0.6382 -0.9450
  139MOL     C344439   5.540   0.008   1.114  0.8052 -0.1940  0.2415
  139MOL     C444440   5.665  -0.057   1.121 -0.0384 -0.8801  0.1667
  139MOL     C544441   5.745  -0.080   1.002  0.0328 -0.6666 -0.2858
  139MOL     C644442   5.884  -0.146   1.013 -0.4204 -0.6168  0.1849
  139MOL     C744443   5.704  -0.027   0.881  0.1592 -0.6674 -0.1744
  139MOL     C844444   5.574   0.031   0.875 -0.4155 -0.4041  0.2370
  139MOL     H944445   5.322   0.085   0.864 -1.4195 -2.9513  0.9813
  139MOL    H1044446   5.290   0.084   1.042  1.7534 -0.4995  0.4810
  139MOL    H1144447   5.482   0.017   1.204 -2.2674 -0.1577 -1.6792
  139MOL    H1244448   5.706  -0.090   1.216 -0.1297 -1.5691 -0.0310
  139MOL    H1344449   5.863  -0.236   0.954 -0.2602  0.7005 -1.9531
  139MOL    H1444450   5.968  -0.100   0.960  0.2623 -3.2450 -1.1216
  139MOL    H1544451   5.762  -0.028   0.789  0.4468 -0.7251  0.0076
  139MOL    H1644452   5.537   0.058   0.777  1.9096 -0.5673 -0.7197
  139MOL    H1744453   5.360   0.221   0.970  3.4348  0.4711 -0.1978
  139MOL    C1844454   5.940  -0.184   1.151 -0.3213 -0.9539  0.0523
  139MOL    C1944455   6.074  -0.253   1.160  0.3180 -0.2172  0.2447
  139MOL    C2044456   6.084  -0.387   1.139  0.5458  0.2563  0.2470
  139MOL    C2144457   6.197  -0.463   1.161  0.5896 -0.4031 -0.4999
  139MOL    C2244458   6.317  -0.395   1.190  0.0009 -0.3591 -0.1479
  139MOL    C2344459   6.459  -0.461   1.192 -0.8988 -0.5802 -0.5288
  139MOL    C2444460   6.308  -0.253   1.217 -0.0827  0.2917  0.1292
  139MOL    C2544461   6.186  -0.180   1.201 -0.5448  0.0384 -1.0282
  139MOL    H2644462   5.963  -0.102   1.219 -1.5157  0.2129 -0.9267
  139MOL    H2744463   5.872  -0.249   1.206 -2.1356  1.3249  0.6196
  139MOL    H2844464   5.995  -0.438   1.104  0.8668  0.9160 -1.5865
  139MOL    H2944465   6.194  -0.565   1.125  0.5328 -0.4194 -0.4476
  139MOL    H3044466   6.520  -0.412   1.117  0.9058 -2.6057 -0.4121
  139MOL    H3144467   6.451  -0.564   1.159 -1.9817  0.2654 -2.9839
  139MOL    H3244468   6.394  -0.200   1.254 -0.7443  1.9068 -0.5846
  139MOL    H3344469   6.176  -0.074   1.219  0.4500  0.0303 -0.4101
  139MOL    C3444470   6.513  -0.475   1.335  0.9640  0.1749  0.7802
  139MOL    C3544471   6.662  -0.490   1.348 -0.1343 -0.2338  0.7508
  139MOL    C3644472   6.743  -0.382   1.383 -0.5596  0.0396 -0.0541
  139MOL    C3744473   6.879  -0.396   1.401  0.2095  0.5764 -1.1159
  139MOL    C3844474   6.943  -0.522   1.388  0.9363 -0.2439 -0.1773
  139MOL    C3944475   7.094  -0.532   1.406  1.4827  0.0833 -0.1516
  139MOL    C4044476   6.867  -0.629   1.346  0.7188  1.3210  0.0834
  139MOL    C4144477   6.727  -0.617   1.328  0.0098 -1.1236 -0.4954
  139MOL    H4244478   6.459  -0.551   1.391 -1.1318  0.4672 -0.7908
  139MOL    H4344479   6.485  -0.386   1.391 -3.7568 -0.3893 -0.4557
  139MOL    H4444480   6.703  -0.288   1.419  0.0522 -0.0353  0.8404
  139MOL    H4544481   6.937  -0.313   1.439 -0.4560  0.4242  0.2828
  139MOL    H4644482   7.139  -0.600   1.334 -1.0893 -4.2809  2.0792
  139MOL    H4744483   7.147  -0.437   1.414 -0.5573  1.1404  1.4196
  139MOL    H4844484   6.908  -0.725   1.320 -0.7733  1.2255 -2.0654
  139MOL    H4944485   6.694  -0.713   1.290  1.0625 -2.7181  2.4272
  139MOL    C5044486   7.122  -0.591   1.541 -1.1638  0.5392 -0.4896
  139MOL    C5144487   7.270  -0.616   1.561  0.8028 -0.0023 -0.1068
  139MOL    C5244488   7.354  -0.507   1.578  0.0771 -0.1321  0.0399
  139MOL    C5344489   7.486  -0.524   1.597 -0.0964 -0.5608 -0.2091
  139MOL    C5444490   7.538  -0.656   1.606  0.3571 -0.1568 -0.2553
  139MOL    C5544491   7.680  -0.676   1.648 -0.3298 -1.0033  0.1750
  139MOL    C5644492   7.453  -0.767   1.597  0.5163 -0.1115  0.2698
  139MOL    C5744493   7.317  -0.747   1.571 -0.3012 -0.3618  0.0489
  139MOL    H5844494   7.078  -0.689   1.559  0.8641 -0.2181  0.4642
  139MOL    H5944495   7.101  -0.526   1.626 -0.2770  0.8440 -0.4997
  139MOL    H6044496   7.311  -0.408   1.583 -1.7055 -0.8760 -0.3650
  139MOL    H6144497   7.551  -0.438   1.609  1.3300 -1.6316 -0.2197
  139MOL    H6244498   7.711  -0.594   1.713 -3.2038  1.2059 -1.1122
  139MOL    H6344499   7.687  -0.769   1.704  1.5230 -1.9424 -1.5761
  139MOL    H6444500   7.486  -0.868   1.618 -1.0487 -1.0582 -1.6728
  139MOL    H6544501   7.255  -0.835   1.569  0.3868 -0.8574  0.5806
  139MOL    C6644502   7.770  -0.702   1.526 -0.3427 -0.0265 -0.0451
  139MOL    C6744503   7.922  -0.710   1.555  0.7400 -0.0723 -0.3995
  139MOL    C6844504   7.963  -0.829   1.618 -0.2127 -0.1185  0.3537
  139MOL    C6944505   8.095  -0.854   1.647  0.5733  0.1444 -0.2970
  139MOL    C7044506   8.197  -0.757   1.617  0.3619 -0.2358 -0.2233
  139MOL    C7144507   8.343  -0.785   1.646 -0.7805 -0.1857  0.5370
  139MOL    C7244508   8.158  -0.638   1.551 -0.0078 -0.2978 -0.9852
  139MOL    C7344509   8.022  -0.625   1.512  0.0562  0.2182  0.2083
  139MOL    H7444510   7.753  -0.618   1.458  0.0505  0.5861  0.6124
  139MOL    H7544511   7.729  -0.792   1.480 -0.3072 -0.2272  0.3131
  139MOL    H7644512   7.898  -0.913   1.638 -2.1414  1.4544  0.8301
  139MOL    H7744513   8.125  -0.951   1.685  0.7747  1.1183  2.1549
  139MOL    H7844514   8.341  -0.857   1.727 -2.5844 -0.8366 -0.0684
  139MOL    H7944515   8.410  -0.704   1.675  0.3527 -0.1396 -2.0212
  139MOL    H8044516   8.239  -0.579   1.512 -0.5427  1.1098  0.0090
  139MOL    H8144517   7.993  -0.535   1.460 -3.5175 -0.8285  0.2995
  139MOL    C8244518   8.410  -0.846   1.523  0.4105 -0.2082  0.1602
  139MOL    C8344519   8.557  -0.885   1.550  0.3422  0.6285  1.0355
  139MOL    C8444520   8.658  -0.823   1.474  0.0019 -0.5543  0.3790
  139MOL    C8544521   8.793  -0.863   1.493 -0.7166 -0.5842 -0.6227
  139MOL    C8644522   8.833  -0.959   1.589  0.2701  0.3604  0.4321
  139MOL    C8744523   8.979  -1.001   1.607 -0.2393 -0.1469  0.0952
  139MOL    C8844524   8.729  -1.021   1.664  0.4142  0.0949  1.0443
  139MOL    C8944525   8.592  -0.988   1.634 -0.0886  0.3361 -0.3718
  139MOL    H9044526   8.411  -0.765   1.449 -0.4234  0.9333  1.3706
  139MOL    H9144527   8.358  -0.932   1.482  1.2106 -0.0083 -1.2966
  139MOL    H9244528   8.641  -0.746   1.400  2.7717 -0.0050  0.2366
  139MOL    H9344529   8.871  -0.821   1.431 -0.5859  1.6648  0.9904
  139MOL    H9444530   9.006  -0.929   1.684 -0.3533  1.7414 -1.5660
  139MOL    H9544531   9.031  -0.976   1.514  0.3517  0.7914  0.6674
  139MOL    H9644532   8.738  -1.102   1.735 -1.7642 -0.5345  0.6582
  139MOL    H9744533   8.509  -1.044   1.675  0.8361 -2.7112 -2.5815
  139MOL    C9844534   8.991  -1.153   1.646 -0.1066 -0.8077  0.1836
  139MOL    C9944535   9.139  -1.199   1.652  0.3234 -0.2068 -0.2091
  139MOL   C10044536   9.240  -1.119   1.710  0.5809  0.3947  0.9234
  139MOL   C10144537   9.369  -1.165   1.725 -0.3435 -0.2030  0.1687
  139MOL   C10244538   9.404  -1.293   1.680 -0.1181  0.1915  0.4180
  139MOL   C10344539   9.550  -1.337   1.684 -0.0815 -0.2384 -0.3820
  139MOL   C10444540   9.306  -1.379   1.625 -0.0182  0.4587 -0.0354
  139MOL   C10544541   9.175  -1.328   1.622  0.6100 -0.2528  0.5941
  139MOL   H10644542   8.939  -1.213   1.572  1.2035 -2.2853  0.4433
  139MOL   H10744543   8.948  -1.153   1.746 -0.0830  0.5871  0.2128
  139MOL   H10844544   9.221  -1.014   1.731  1.6460  0.8269 -0.2270
  139MOL   H10944545   9.451  -1.101   1.752  1.3733 -1.5683 -1.6025
  139MOL   H11044546   9.588  -1.310   1.782 -1.0630 -1.7016  0.4142
  139MOL   H11144547   9.555  -1.445   1.672  0.6991 -0.1421 -1.0118
  139MOL   H11244548   9.321  -1.481   1.593 -3.1546  0.4659 -1.7502
  139MOL   H11344549   9.107  -1.392   1.568 -0.9993  0.4650  1.7492
  139MOL   C11444550   9.640  -1.275   1.579  0.1270 -0.5516  0.0591
  139MOL   C11544551   9.781  -1.329   1.589  0.1788 -0.0053 -0.2855
  139MOL   C11644552   9.838  -1.406   1.486  0.9993  0.0835 -0.1863
  139MOL   C11744553   9.962  -1.472   1.496  0.0672 -0.5260  0.0097
  139MOL   C11844554  10.043  -1.450   1.605 -0.6631  0.2749  0.1618
  139MOL   C11944555  10.181  -1.513   1.607  0.1745  0.9239 -0.3184
  139MOL   C12044556   9.994  -1.368   1.709  0.1262 -0.8330 -0.7472
  139MOL   C12144557   9.862  -1.311   1.703 -0.1071  0.4655  0.0104
  139MOL   H12244558   9.636  -1.167   1.593  1.5496 -0.2239 -1.8504
  139MOL   H12344559   9.595  -1.277   1.479  0.4625  1.3936 -0.1552
  139MOL   H12444560   9.771  -1.435   1.407  0.9507 -1.6170  0.4472
  139MOL   H12544561   9.992  -1.532   1.411 -1.1574  1.9418 -2.2367
  139MOL   H12644562  10.196  -1.565   1.701 -3.0240  1.4938  0.5595
  139MOL   H12744563  10.202  -1.582   1.526 -1.3668 -1.4104  1.2228
  139MOL   H12844564  10.045  -1.358   1.804 -0.4658 -3.5485 -0.0846
  139MOL   H12944565   9.825  -1.253   1.787  0.4989 -0.6493  1.0564
  139MOL   C13044566  10.296  -1.412   1.594 -0.1580 -0.5422  0.2888
  139MOL   C13144567  10.436  -1.467   1.603 -0.3195  0.5238 -0.3361
  139MOL   C13244568  10.493  -1.481   1.732 -0.5974 -0.0196 -0.8781
  139MOL   C13344569  10.624  -1.511   1.741  0.1479  0.0524 -0.4304
  139MOL   C13444570  10.697  -1.548   1.626  0.0700 -0.3542 -0.2235
  139MOL   C13544571  10.839  -1.587   1.642  0.6200 -0.4175 -0.4377
  139MOL   C13644572  10.638  -1.542   1.497  0.0159  0.0945  0.0673
  139MOL   C13744573  10.508  -1.499   1.487  0.9855 -0.3379 -0.5282
  139MOL   H13844574  10.279  -1.322   1.653 -0.4268 -0.5781  0.2691
  139MOL   H13944575  10.280  -1.375   1.493 -0.4565 -1.1667  0.1045
  139MOL   H14044576  10.441  -1.466   1.825  0.0147  0.3213 -0.5867
  139MOL   H14144577  10.674  -1.521   1.837 -0.0543 -2.6757 -0.5738
  139MOL   H14244578  10.882  -1.557   1.546 -1.9784  1.6364 -1.0196
  139MOL   H14344579  10.892  -1.527   1.715 -1.7738 -3.0211  3.6359
  139MOL   H14444580  10.701  -1.557   1.410  0.6979  0.4441  0.4939
  139MOL   H14544581  10.444  -1.495   1.400  0.9254 -0.2698 -0.4810
  139MOL   C14644582  10.859  -1.737   1.661 -0.2604  0.3285  0.2693
  139MOL   C14744583  11.012  -1.761   1.671  0.5745 -0.5573 -0.1050
  139MOL   C14844584  11.081  -1.808   1.564 -0.7534 -0.8265 -0.2417
  139MOL   C14944585  11.223  -1.830   1.569  0.3359  0.2574 -0.4794
  139MOL   C15044586  11.301  -1.802   1.680 -0.0310  0.0103  0.1001
  139MOL   C15144587  11.453  -1.828   1.684 -0.3115 -0.2106 -0.6602
  139MOL   C15244588  11.225  -1.756   1.793 -0.0035  0.2183 -0.3362
  139MOL   C15344589  11.087  -1.739   1.790 -0.1276 -0.2221  0.1325
  139MOL   H15444590  10.803  -1.799   1.591  0.0269  0.8823 -0.4587
  139MOL   H15544591  10.816  -1.762   1.758 -1.1258  0.4880 -0.0724
  139MOL   H15644592  11.051  -1.825   1.462 -1.7541  2.3122 -0.5126
  139MOL   H15744593  11.260  -1.866   1.474 -0.7097 -1.8949 -0.1040
  139MOL   H15844594  11.511  -1.807   1.594 -1.3270 -0.8271 -1.4655
  139MOL   H15944595  11.493  -1.758   1.757  0.1502 -1.2889  0.1218
  139MOL   H16044596  11.279  -1.727   1.882 -0.7335  2.8810 -0.6963
  139MOL   H16144597  11.025  -1.701   1.870  0.2712  1.7102 -0.4589
  139MOL   C16244598  11.470  -1.975   1.726  0.7457 -0.3421  0.5539
  139MOL   C16344599  11.622  -2.006   1.748 -0.0758  1.0271  0.9130
  139MOL   C16444600  11.687  -2.082   1.649 -0.0382  0.5196  0.5718
  139MOL   C16544601  11.817  -2.125   1.667  0.1889 -1.2439 -0.1615
  139MOL   C16644602  11.887  -2.088   1.787  0.0604  0.1367  0.5378
  139MOL   C16744603  12.032  -2.135   1.820 -0.1126  0.1615  0.0716
  139MOL   C16844604  11.827  -2.009   1.886  0.0570  0.2304 -0.3165
  139MOL   C16944605  11.688  -1.971   1.866  0.6135 -0.1192 -0.1600
  139MOL   H17044606  11.425  -2.044   1.655  0.2854  1.4042 -0.8906
  139MOL   H17144607  11.419  -1.992   1.821 -1.4213  3.3436  0.1583
  139MOL   H17244608  11.641  -2.110   1.556  0.4395  1.7087 -0.0236
  139MOL   H17344609  11.855  -2.183   1.584 -0.0135  0.1422 -1.2588
  139MOL   H17444610  12.097  -2.110   1.736 -2.8222 -1.3086 -2.5818
  139MOL   H17544611  12.071  -2.072   1.899 -0.9331  0.2948  0.3789
  139MOL   H17644612  11.881  -1.982   1.975 -1.1688  3.5569 -0.5077
  139MOL   H17744613  11.625  -1.913   1.932  1.9389  2.5572 -1.1722
  139MOL   C17844614  12.044  -2.283   1.848 -0.9392 -0.2450  0.3518
  139MOL   C17944615  12.193  -2.322   1.833  0.3980 -0.4803 -0.4069
  139MOL   C18044616  12.238  -2.411   1.730  0.0949 -0.1809  0.2157
  139MOL   C18144617  12.375  -2.458   1.726 -0.1574  0.2679  0.1695
  139MOL   C18244618  12.467  -2.402   1.819  0.0830  0.0822  0.4416
  139MOL   C18344619  12.617  -2.463   1.819 -0.5282 -0.3601 -0.3184
  139MOL   C18444620  12.422  -2.305   1.917  0.1674 -0.2814 -0.7648
  139MOL   C18544621  12.290  -2.267   1.921 -0.5531  0.1662  0.3168
  139MOL   H18644622  11.986  -2.348   1.782 -2.6487  0.0773  1.5273
  139MOL   H18744623  12.021  -2.300   1.953  0.5202  3.1271  1.2787
  139MOL   H18844624  12.155  -2.437   1.666  0.7577 -2.4933  0.2753
  139MOL   H18944625  12.406  -2.517   1.642 -0.8531 -0.4896  0.4363
  139MOL   H19044626  12.657  -2.450   1.718  0.4991  1.6414  0.3405
  139MOL   H19144627  12.677  -2.395   1.879 -0.9079 -0.4571  0.1808
  139MOL   H19244628  12.487  -2.274   1.997  0.7920 -2.5820 -0.3192
  139MOL   H19344629  12.260  -2.216   2.011 -0.3482 -0.5277  0.7852
  139MOL   C19444630  12.636  -2.604   1.852 -0.6239  0.6750 -0.4529
  139MOL   C19544631  12.770  -2.670   1.834  0.2949  0.0146 -0.1430
  139MOL   C19644632  12.784  -2.795   1.773  0.7988  1.2200 -0.0113
  139MOL   C19744633  12.910  -2.860   1.772  0.7561  0.4810  0.3013
  139MOL   C19844634  13.020  -2.791   1.828 -0.0335  0.5438  0.0961
  139MOL   C19944635  13.159  -2.853   1.809  0.0132  0.3373 -0.1766
  139MOL   C20044636  13.013  -2.658   1.872 -0.3404  0.3449  0.1862
  139MOL   C20144637  12.883  -2.600   1.884 -0.0297  0.3899 -0.7438
  139MOL   H20244638  12.567  -2.653   1.783 -0.9786  1.2003 -0.4742
  139MOL   H20344639  12.596  -2.629   1.951 -1.0542  0.9173 -0.5648
  139MOL   H20444640  12.689  -2.838   1.746  0.3687  2.1495 -0.0272
  139MOL   H20544641  12.923  -2.958   1.728  1.7948  0.4643  0.6310
  139MOL   H20644642  13.155  -2.911   1.717  0.2855  0.2209 -0.1180
  139MOL   H20744643  13.236  -2.782   1.780  2.3115 -1.8461  0.3444
  139MOL   H20844644  13.099  -2.607   1.911  0.1188 -0.4163  0.1654
  139MOL   H20944645  12.880  -2.506   1.935 -2.9189  0.6983 -1.4046
  139MOL   C21044646  13.208  -2.948   1.924 -0.3145  0.0249 -0.0817
  139MOL   C21144647  13.356  -2.979   1.903  0.4688 -0.1466  0.0110
  139MOL   C21244648  13.413  -3.096   1.853  0.7303  0.3031 -0.7621
  139MOL   C21344649  13.547  -3.108   1.837 -0.6990  0.5407 -0.0864
  139MOL   C21444650  13.635  -3.004   1.881  0.6004  0.0518 -0.0978
  139MOL   C21544651  13.788  -3.004   1.880 -0.6565  0.7344  0.2462
  139MOL   C21644652  13.582  -2.886   1.934 -0.5471  0.0846 -0.3192
  139MOL   C21744653  13.441  -2.872   1.945 -0.1058 -0.4832 -0.3097
  139MOL   H21844654  13.161  -3.046   1.918 -1.3907  0.5092  0.3126
  139MOL   H21944655  13.196  -2.910   2.025  0.8179  0.3795 -0.0781
  139MOL   H22044656  13.350  -3.179   1.825  1.3837 -0.0128 -1.3099
  139MOL   H22144657  13.576  -3.197   1.784 -2.6706 -0.5463  0.5936
  139MOL   H22244658  13.799  -3.093   1.818 -1.5286  1.7636 -1.4029
  139MOL   H22344659  13.827  -2.917   1.826  0.9477 -0.9380 -1.3478
  139MOL   H22444660  13.654  -2.811   1.962 -1.1124  0.3254  0.4938
  139MOL   H22544661  13.397  -2.785   1.992  0.7068 -1.4666  2.4075
  139MOL   C22644662  13.852  -3.018   2.015  0.1105 -0.0874  0.2038
  139MOL   C22744663  13.998  -3.032   2.021  0.7215 -0.8565  0.4867
  139MOL   C22844664  14.068  -3.121   1.935  0.8008  0.4444 -1.1201
  139MOL   C22944665  14.209  -3.138   1.947 -0.0389  0.4223 -0.5977
  139MOL   C23044666  14.277  -3.063   2.041 -0.2494 -0.1112 -0.7436
  139MOL   C23144667  14.426  -3.090   2.057 -0.1701  0.1606  0.5514
  139MOL   C23244668  14.206  -2.980   2.125 -0.5496 -0.1397 -0.5587
  139MOL   C23344669  14.070  -2.959   2.115  0.2177  0.2277  0.2200
  139MOL   H23444670  13.803  -3.103   2.062  1.4377  0.2908  2.3498
  139MOL   H23544671  13.812  -2.931   2.068 -3.7904  0.2821 -3.0448
  139MOL   H23644672  14.000  -3.179   1.875 -0.3852 -2.4676  2.8363
  139MOL   H23744673  14.265  -3.212   1.891 -0.8732 -2.1192  1.8192
  139MOL   H23844674  14.459  -3.087   2.161  1.6698 -2.3658  0.0857
  139MOL   H23944675  14.447  -3.187   2.012 -2.6528  0.4361 -1.2454
  139MOL   H24044676  14.256  -2.927   2.205 -0.5384  1.4805 -1.6283
  139MOL   H24144677  14.018  -2.892   2.181  0.2167  0.3862  0.0590
  139MOL   C24244678  14.516  -2.994   1.974  0.2981 -0.1610  0.3354
  139MOL   C24344679  14.663  -3.018   1.982 -0.2164 -0.2082 -0.1414
  139MOL   C24444680  14.731  -3.018   2.107  0.0194  0.1487 -0.2346
  139MOL   C24544681  14.873  -3.045   2.113  0.9439 -0.3203 -0.2721
  139MOL   C24644682  14.938  -3.073   1.996 -0.4443 -0.0588  0.5699
  139MOL   C24744683  15.085  -3.116   2.005 -0.3708  0.0537  0.1122
  139MOL   C24844684  14.869  -3.077   1.873 -0.0848  0.3841  0.1588
  139MOL   C24944685  14.736  -3.038   1.861 -0.3037  0.1020 -0.5812
  139MOL   H25044686  14.487  -2.986   1.869  0.7784  0.4240  0.2382
  139MOL   H25144687  14.501  -2.898   2.024 -0.4618 -1.3972  2.5700
  139MOL   H25244688  14.665  -3.013   2.192  0.5548  1.6248  0.1249
  139MOL   H25344689  14.931  -3.051   2.204  0.6692 -1.7081 -0.1806
  139MOL   H25444690  15.133  -3.073   1.916  2.8782 -0.9996  1.2738
  139MOL   H25544691  15.124  -3.059   2.089 -0.6759 -0.2926  0.4895
  139MOL   H25644692  14.916  -3.105   1.780  0.1160  1.7251 -0.1462
  139MOL   H25744693  14.691  -3.036   1.763  0.3438  0.2188 -0.8782
  139MOL   C25844694  15.108  -3.267   2.012 -0.1475 -0.3652  0.2087
  139MOL   C25944695  15.252  -3.296   2.042  0.1967  0.2854  0.3993
  139MOL   C26044696  15.341  -3.327   1.942  0.5083  0.0743  0.4140
  139MOL   C26144697  15.478  -3.351   1.973 -0.2617 -0.5438 -0.0378
  139MOL   C26244698  15.520  -3.339   2.110  0.8974  0.3635 -0.5501
  139MOL   C26344699  15.668  -3.356   2.146 -0.1663 -0.4945 -0.2792
  139MOL   C26444700  15.423  -3.315   2.213 -0.2150 -0.5052 -0.0110
  139MOL   C26544701  15.287  -3.301   2.178  0.5258 -0.3269 -0.6005
  139MOL   H26644702  15.086  -3.312   1.915 -0.8167 -0.0660  0.2190
  139MOL   H26744703  15.045  -3.313   2.089 -0.7855  0.3930  0.1438
  139MOL   H26844704  15.313  -3.333   1.838 -0.7181  2.3872  0.5801
  139MOL   H26944705  15.555  -3.351   1.898 -0.0840  1.2936  0.1113
  139MOL   H27044706  15.675  -3.349   2.255 -1.7617 -0.2626 -0.1788
  139MOL   H27144707  15.696  -3.453   2.107 -1.8977 -0.3397 -1.9709
  139MOL   H27244708  15.452  -3.319   2.317 -0.4457  2.6463  0.2287
  139MOL   H27344709  15.213  -3.282   2.254  1.7695  1.4672  0.1832
  139MOL   C27444710  15.742  -3.234   2.085 -0.6004 -0.2346 -0.4350
  139MOL   C27544711  15.685  -3.094   2.124  0.2507 -0.0265 -0.2444
  139MOL   C27644712  15.678  -3.056   2.258  0.0834  0.1440  0.7758
  139MOL   C27744713  15.611  -2.935   2.287 -0.3776  0.2844 -0.0972
  139MOL   C27844714  15.541  -2.857   2.189 -0.2822  0.1625  0.0535
  139MOL   C27944715  15.447  -2.743   2.223  0.1055  0.3642  0.0828
  139MOL   C28044716  15.549  -2.907   2.060  0.0800  0.2094 -0.6287
  139MOL   C28144717  15.615  -3.026   2.025  0.2329  0.6012  0.1134
  139MOL   H28244718  15.848  -3.243   2.105 -1.2474 -2.4594  2.2187
  139MOL   H28344719  15.744  -3.245   1.977  1.9758 -2.5909 -0.1742
  139MOL   H28444720  15.723  -3.114   2.337  0.1178  1.7474  1.9661
  139MOL   H28544721  15.609  -2.906   2.392  0.0111  0.5994 -0.1749
  139MOL   H28644722  15.472  -2.706   2.322 -1.7322 -0.8085  1.0049
  139MOL   H28744723  15.480  -2.666   2.154  0.5768 -1.1151 -1.3927
  139MOL   H28844724  15.491  -2.868   1.977  1.2575  0.8050 -1.1939
  139MOL   H28944725  15.630  -3.054   1.922  2.8346 -1.5925  1.0233
  139MOL   C29044726  15.301  -2.776   2.187  0.9277  0.0060  0.2135
  139MOL   C29144727  15.188  -2.674   2.220  0.1644 -0.6418 -0.4415
  139MOL   C29244728  15.067  -2.715   2.166 -0.3266 -0.4758  0.2608
  139MOL   C29344729  14.955  -2.631   2.182 -0.1019  0.1732 -0.4875
  139MOL   C29444730  14.973  -2.502   2.238 -0.2878  0.0124  0.2199
  139MOL   C29544731  14.855  -2.408   2.234 -0.1922 -0.1149  0.5828
  139MOL   C29644732  15.094  -2.464   2.298 -0.6042  0.0874 -0.3669
  139MOL   C29744733  15.204  -2.553   2.291  0.2560 -0.4497 -0.5706
  139MOL   H29844734  15.268  -2.871   2.230  0.0703  0.1724 -0.0722
  139MOL   H29944735  15.290  -2.797   2.081 -3.1890 -0.4296  0.6478
  139MOL   H30044736  15.055  -2.807   2.110  2.6436 -0.2617 -0.7881
  139MOL   H30144737  14.864  -2.649   2.127 -1.3985 -0.3445  1.7400
  139MOL   H30244738  14.767  -2.470   2.252 -0.0570 -0.3393  0.4714
  139MOL   H30344739  14.874  -2.338   2.316 -2.6789  0.8438  0.3903
  139MOL   H30444740  15.111  -2.363   2.333 -1.1373 -0.4512  1.5210
  139MOL   H30544741  15.300  -2.530   2.335  0.8454 -2.7416 -0.5693
  139MOL   C30644742  14.832  -2.325   2.105  0.5141  0.6049  0.1810
  139MOL   C30744743  14.693  -2.266   2.119  0.0231  0.9115  0.2500
  139MOL   C30844744  14.583  -2.340   2.069 -0.0723  0.5652 -0.1114
  139MOL   C30944745  14.448  -2.295   2.087 -0.5947 -0.0191  0.2004
  139MOL   C31044746  14.420  -2.181   2.165  0.1487  0.2989 -0.0465
  139MOL   C31144747  14.277  -2.142   2.209  0.6211  0.2026  0.4016
  139MOL   C31244748  14.528  -2.110   2.215 -0.4901  0.3058  0.5128
  139MOL   C31344749  14.665  -2.153   2.189 -0.1231 -0.6108  0.3756
  139MOL   H31444750  14.835  -2.388   2.016  1.2204  1.1991 -0.2104
  139MOL   H31544751  14.900  -2.243   2.084  0.8759  0.2033 -0.2123
  139MOL   H31644752  14.613  -2.435   2.027 -0.3001 -1.1228  3.3479
  139MOL   H31744753  14.364  -2.344   2.038 -0.4330  0.3354 -0.4325
  139MOL   H31844754  14.270  -2.100   2.309 -2.6109 -0.7450  0.6407
  139MOL   H31944755  14.229  -2.073   2.140 -0.3112 -1.0451 -0.2141
  139MOL   H32044756  14.514  -2.020   2.273  0.1044  0.7135  0.0410
  139MOL   H32144757  14.748  -2.095   2.228  1.0310 -1.0572 -1.3640
  139MOL   H32244758  14.229  -2.240   2.214  0.5720  0.0659 -2.0522
  140MOL     C144759   7.746   7.679   3.654 -0.3464  0.2135 -0.0988
  140MOL     C244760   7.894   7.645   3.654  0.4468 -0.0006  0.2342
  140MOL     C344761   7.924   7.530   3.730  0.0882  0.7261  0.0828
  140MOL     C444762   8.058   7.493   3.742  0.4191 -0.7244  0.3589
  140MOL     C544763   8.161   7.571   3.692 -0.9902  0.4788  0.3719
  140MOL     C644764   8.306   7.543   3.731  0.9030  0.5451 -0.0027
  140MOL     C744765   8.130   7.690   3.616  0.4462  0.0582  0.1132
  140MOL     C844766   7.995   7.727   3.596 -0.6653 -0.8766  1.0533
  140MOL     H944767   7.716   7.672   3.549 -3.1582  1.0897  0.5986
  140MOL    H1044768   7.691   7.615   3.722  1.4166 -0.4750  0.7160
  140MOL    H1144769   7.847   7.467   3.773  1.0618 -0.0927  0.6641
  140MOL    H1244770   8.077   7.400   3.793 -0.5857 -2.4698 -2.3551
  140MOL    H1344771   8.359   7.635   3.757  0.4899  0.5613  0.7767
  140MOL    H1444772   8.316   7.471   3.812 -0.3304 -0.9875 -1.2032
  140MOL    H1544773   8.208   7.762   3.594 -0.3504  0.4329 -1.6323
  140MOL    H1644774   7.961   7.818   3.548  2.8882  0.1163  0.2251
  140MOL    H1744775   7.726   7.784   3.675 -1.6518  0.1141 -0.7725
  140MOL    C1844776   8.376   7.487   3.609 -0.7652  0.0948 -0.1638
  140MOL    C1944777   8.530   7.460   3.622  0.0700  0.3447 -0.2841
  140MOL    C2044778   8.587   7.381   3.728  0.4432  0.0563 -0.2794
  140MOL    C2144779   8.722   7.340   3.722 -0.2196 -0.0884  0.7949
  140MOL    C2244780   8.810   7.378   3.619  0.5248 -0.1002  0.5690
  140MOL    C2344781   8.956   7.347   3.627  0.0270 -0.1800 -0.1557
  140MOL    C2444782   8.755   7.454   3.514  1.0868 -0.4879  0.0087
  140MOL    C2544783   8.617   7.490   3.514 -0.1730 -0.4537 -0.1043
  140MOL    H2644784   8.324   7.396   3.579  1.2492 -0.6575 -1.4187
  140MOL    H2744785   8.366   7.561   3.530  0.0539 -0.3843 -0.7155
  140MOL    H2844786   8.530   7.355   3.815  0.3900  0.0894 -0.3047
  140MOL    H2944787   8.754   7.277   3.804  2.0462 -0.0889 -0.0471
  140MOL    H3044788   8.998   7.359   3.728 -1.7481 -1.5189  0.7609
  140MOL    H3144789   9.002   7.430   3.574 -1.6424  2.3846  2.2429
  140MOL    H3244790   8.821   7.491   3.437  0.0258  0.4588 -0.4683
  140MOL    H3344791   8.581   7.558   3.439 -1.4936 -0.1384  0.7985
  140MOL    C3444792   9.004   7.211   3.577  0.8346  0.8438  0.3412
  140MOL    C3544793   9.148   7.194   3.595  0.3023 -0.1115 -0.4495
  140MOL    C3644794   9.245   7.204   3.488 -0.0670 -0.3310 -0.4112
  140MOL    C3744795   9.388   7.202   3.513  0.5460  1.0917 -0.0585
  140MOL    C3844796   9.434   7.167   3.645 -0.0054 -0.5074  0.8248
  140MOL    C3944797   9.575   7.120   3.681 -0.0630 -0.1564 -0.3136
  140MOL    C4044798   9.339   7.153   3.747  0.0752 -0.3122  0.1592
  140MOL    C4144799   9.200   7.167   3.722  0.3431 -0.5464  0.2026
  140MOL    H4244800   8.977   7.196   3.473  0.9327  2.5934  0.0608
  140MOL    H4344801   8.957   7.131   3.635 -0.4610  1.3521  0.0084
  140MOL    H4444802   9.215   7.225   3.386  0.6953  1.4503 -0.2893
  140MOL    H4544803   9.457   7.212   3.430  0.5583 -3.4775 -0.7257
  140MOL    H4644804   9.598   7.137   3.786  1.6234 -0.4168 -0.6332
  140MOL    H4744805   9.579   7.013   3.666  2.3090  0.0064 -0.8796
  140MOL    H4844806   9.370   7.132   3.849 -1.0298  0.6661  0.7114
  140MOL    H4944807   9.127   7.155   3.800 -0.7686 -0.7628 -0.8534
  140MOL    C5044808   9.690   7.177   3.599  0.5981 -0.1198 -0.0033
  140MOL    C5144809   9.809   7.082   3.625  0.1484 -0.4867  0.4940
  140MOL    C5244810   9.902   7.106   3.727 -0.1852  0.3289  0.4687
  140MOL    C5344811  10.018   7.025   3.745  0.0889 -0.5237  0.5925
  140MOL    C5444812  10.041   6.928   3.649 -0.2296  0.1968  0.2557
  140MOL    C5544813  10.167   6.844   3.642  0.2874 -0.1331  0.3915
  140MOL    C5644814   9.951   6.899   3.552  0.4490  0.5147  0.0209
  140MOL    C5744815   9.831   6.971   3.533  0.6502 -0.9121 -0.6334
  140MOL    H5844816   9.706   7.280   3.631  0.3296  0.3917 -1.5165
  140MOL    H5944817   9.671   7.178   3.492 -0.0187  2.1793  0.0980
  140MOL    H6044818   9.892   7.192   3.791  0.2326  1.1355 -0.5276
  140MOL    H6144819  10.084   7.057   3.824  1.2695 -0.0058 -0.5921
  140MOL    H6244820  10.191   6.816   3.745  3.2335 -1.9190 -0.7097
  140MOL    H6344821  10.162   6.753   3.582  1.8527 -0.0328  0.0989
  140MOL    H6444822   9.966   6.815   3.486 -0.0491 -0.4295  1.0954
  140MOL    H6544823   9.758   6.938   3.460  1.5372 -0.1286 -1.9061
  140MOL    C6644824  10.277   6.940   3.579 -0.2935  0.5470  0.3088
  140MOL    C6744825  10.410   6.888   3.618  0.1052 -0.2669  0.2457
  140MOL    C6844826  10.469   6.796   3.531 -0.2942 -0.0246 -0.2170
  140MOL    C6944827  10.593   6.741   3.561  0.2163 -0.7124  0.2174
  140MOL    C7044828  10.663   6.783   3.675 -0.6831  0.2952 -0.4355
  140MOL    C7144829  10.806   6.732   3.712  1.2976 -0.0193  0.4107
  140MOL    C7244830  10.601   6.872   3.765 -0.7881  0.0105 -1.0506
  140MOL    C7344831  10.481   6.934   3.732 -0.8447  0.0385  0.0957
  140MOL    H7444832  10.267   7.045   3.605  2.2445  1.5385 -2.4517
  140MOL    H7544833  10.275   6.945   3.471 -2.0717 -0.3993  0.2827
  140MOL    H7644834  10.420   6.763   3.441  1.3775  0.5071 -1.3305
  140MOL    H7744835  10.628   6.677   3.482 -0.8594 -0.2292 -0.6678
  140MOL    H7844836  10.815   6.628   3.681  0.3436 -0.1589  0.6025
  140MOL    H7944837  10.824   6.733   3.819  0.5921 -1.7117  0.5557
  140MOL    H8044838  10.641   6.905   3.859  0.0156 -1.9509 -0.6974
  140MOL    H8144839  10.436   7.009   3.796 -0.7593 -0.1909  0.4252
  140MOL    C8244840  10.908   6.811   3.634 -0.0387 -0.4667 -0.9388
  140MOL    C8344841  11.053   6.771   3.670  0.2633  0.3606 -0.3147
  140MOL    C8444842  11.116   6.667   3.592  0.1889  0.3472 -0.0726
  140MOL    C8544843  11.247   6.634   3.624  0.7290  0.4692 -0.0232
  140MOL    C8644844  11.324   6.689   3.732  0.7349 -0.0417  0.2041
  140MOL    C8744845  11.465   6.635   3.761 -0.5028  0.1429 -0.3869
  140MOL    C8844846  11.254   6.777   3.810 -1.1065  0.8636  1.3736
  140MOL    C8944847  11.119   6.814   3.783 -0.0772 -0.7522 -0.0120
  140MOL    H9044848  10.904   6.920   3.646  2.4520 -0.4400  0.0444
  140MOL    H9144849  10.883   6.791   3.530 -0.8723  1.0766 -1.0503
  140MOL    H9244850  11.047   6.614   3.528 -1.9115  2.0678  0.7000
  140MOL    H9344851  11.295   6.559   3.564  1.5760  1.0372 -0.0764
  140MOL    H9444852  11.459   6.531   3.795 -2.0705  0.8850  1.7237
  140MOL    H9544853  11.507   6.696   3.841 -0.3763 -2.1046  1.3092
  140MOL    H9644854  11.308   6.818   3.895  0.2532  2.1610 -0.0884
  140MOL    H9744855  11.058   6.872   3.851 -2.1109 -2.6589 -0.1771
  140MOL    C9844856  11.555   6.655   3.636  0.1182  0.3784 -0.0183
  140MOL    C9944857  11.700   6.618   3.666 -1.0190 -0.3290 -0.2666
  140MOL   C10044858  11.791   6.725   3.685 -0.3332 -0.0986 -0.6263
  140MOL   C10144859  11.930   6.697   3.711  0.2513  0.3123 -0.6908
  140MOL   C10244860  11.969   6.562   3.732 -0.1655  0.6628 -0.7194
  140MOL   C10344861  12.115   6.531   3.764  0.9493  0.2255  0.6687
  140MOL   C10444862  11.881   6.458   3.717 -0.5301  0.4134 -0.8688
  140MOL   C10544863  11.747   6.484   3.680 -0.0682 -0.2828 -0.7771
  140MOL   H10644864  11.565   6.753   3.591  2.1030 -0.3998 -1.3132
  140MOL   H10744865  11.505   6.590   3.565  1.0055 -0.9623  0.5668
  140MOL   H10844866  11.763   6.829   3.674  0.3513  0.2233  0.6399
  140MOL   H10944867  11.999   6.780   3.715 -1.1821  1.5185 -0.5174
  140MOL   H11044868  12.119   6.448   3.834  2.9569  0.5118  0.9210
  140MOL   H11144869  12.156   6.496   3.669  1.7829  1.8567  0.4068
  140MOL   H11244870  11.922   6.359   3.723  0.1560  0.5819 -2.3607
  140MOL   H11344871  11.676   6.404   3.671 -1.1497  0.5495  0.2374
  140MOL   C11444872  12.203   6.639   3.819  0.3649 -0.1929 -0.0499
  140MOL   C11544873  12.334   6.585   3.874  0.2355  0.2770 -0.0173
  140MOL   C11644874  12.425   6.516   3.794  0.0585  0.3345 -0.0317
  140MOL   C11744875  12.555   6.482   3.842 -0.1886  0.9252 -0.2887
  140MOL   C11844876  12.580   6.487   3.979 -0.9435 -0.1574 -0.0949
  140MOL   C11944877  12.699   6.414   4.040 -0.1631  0.4821 -0.1868
  140MOL   C12044878  12.488   6.553   4.060 -0.2905  0.2478  0.0317
  140MOL   C12144879  12.363   6.599   4.013 -0.2527  0.6775 -0.4899
  140MOL   H12244880  12.154   6.692   3.902 -2.8508 -0.9448 -1.3769
  140MOL   H12344881  12.224   6.713   3.742  2.6568  1.7945  2.3531
  140MOL   H12444882  12.391   6.515   3.692 -0.5713  1.9994  0.1419
  140MOL   H12544883  12.619   6.426   3.775 -1.7680 -0.1226 -0.9651
  140MOL   H12644884  12.797   6.432   3.995  1.2545 -1.0044  2.2025
  140MOL   H12744885  12.711   6.458   4.139 -0.9486  0.4307 -0.0627
  140MOL   H12844886  12.509   6.574   4.163  2.4403 -0.6160 -0.3134
  140MOL   H12944887  12.303   6.656   4.083 -0.3735  1.1107 -0.9395
  140MOL   C13044888  12.671   6.264   4.065 -0.0605  0.5991 -0.0015
  140MOL   C13144889  12.544   6.234   4.138  0.2304  0.5565 -0.3559
  140MOL   C13244890  12.434   6.183   4.065  0.1608  0.7034  0.1917
  140MOL   C13344891  12.306   6.162   4.124 -0.3470  0.0569 -0.1296
  140MOL   C13444892  12.288   6.190   4.259 -0.3508 -0.0004 -0.5920
  140MOL   C13544893  12.153   6.163   4.323  0.6101  0.1216 -0.4176
  140MOL   C13644894  12.401   6.239   4.340 -0.2022  0.0533  0.2921
  140MOL   C13744895  12.527   6.251   4.275  1.0175 -0.1877  0.1155
  140MOL   H13844896  12.755   6.212   4.110 -1.0721 -0.6345  0.5249
  140MOL   H13944897  12.656   6.217   3.968 -0.8310 -0.7126  0.7317
  140MOL   H14044898  12.427   6.174   3.958 -1.9294 -2.1520  0.4976
  140MOL   H14144899  12.219   6.137   4.066 -2.0836 -0.3698  2.5422
  140MOL   H14244900  12.106   6.074   4.280 -1.0881  0.0894  1.4752
  140MOL   H14344901  12.159   6.141   4.429  1.6511  0.6127 -0.3621
  140MOL   H14444902  12.381   6.269   4.442  2.2070  0.9285  0.5418
  140MOL   H14544903  12.615   6.281   4.328  1.2134  1.2151 -0.9756
  140MOL   C14644904  12.052   6.280   4.308  0.4425 -0.6909  0.0463
  140MOL   C14744905  11.917   6.240   4.357 -0.0777 -0.8032  0.3101
  140MOL   C14844906  11.865   6.269   4.483 -0.3554  0.0395 -0.8423
  140MOL   C14944907  11.730   6.236   4.505  0.6399  0.4673  0.1478
  140MOL   C15044908  11.653   6.164   4.415 -0.2264 -0.5960 -0.5384
  140MOL   C15144909  11.503   6.146   4.442 -0.0571 -0.2056  0.5584
  140MOL   C15244910  11.712   6.124   4.290 -0.3142 -0.3533 -0.9048
  140MOL   C15344911  11.842   6.170   4.261 -0.8341  0.5949 -0.0432
  140MOL   H15444912  12.039   6.309   4.204  1.5155 -1.2378 -0.2569
  140MOL   H15544913  12.085   6.364   4.369  3.0980 -0.6118 -1.4312
  140MOL   H15644914  11.917   6.318   4.563 -0.1560 -0.2229 -0.8125
  140MOL   H15744915  11.687   6.278   4.594  1.2611  1.4990 -0.0294
  140MOL   H15844916  11.468   6.047   4.411 -0.9253  0.3839 -0.3583
  140MOL   H15944917  11.479   6.161   4.547 -1.6810 -1.4160  0.3824
  140MOL   H16044918  11.664   6.058   4.220 -1.5965  0.6457 -0.9835
  140MOL   H16144919  11.876   6.141   4.163  1.8962  1.2954  0.6550
  140MOL   C16244920  11.427   6.248   4.364  0.8267 -0.5835 -0.8458
  140MOL   C16344921  11.274   6.247   4.385 -0.6164 -0.4150 -0.6765
  140MOL   C16444922  11.226   6.343   4.480 -1.2397 -0.3282  0.7528
  140MOL   C16544923  11.090   6.353   4.499 -0.3517 -0.0254 -1.0171
  140MOL   C16644924  11.000   6.266   4.436 -0.6287 -0.5490  0.2063
  140MOL   C16744925  10.849   6.273   4.471 -0.1688 -0.2554 -0.0087
  140MOL   C16844926  11.047   6.178   4.339  0.0125 -0.1951  0.8698
  140MOL   C16944927  11.186   6.167   4.316  0.1368  0.1758  0.3425
  140MOL   H17044928  11.442   6.225   4.258  0.5382 -1.9774 -0.6049
  140MOL   H17144929  11.462   6.348   4.385 -0.3763 -0.5367  1.0775
  140MOL   H17244930  11.292   6.410   4.532  2.8438 -0.9703 -3.2533
  140MOL   H17344931  11.057   6.420   4.577  3.1624  0.7049 -0.0615
  140MOL   H17444932  10.811   6.363   4.423 -0.6423 -1.8962 -2.8475
  140MOL   H17544933  10.799   6.194   4.415 -1.5812  0.3267  0.4223
  140MOL   H17644934  10.986   6.099   4.296  2.5007 -2.5956  1.5637
  140MOL   H17744935  11.215   6.093   4.243  2.7099  2.0927 -0.6398
  140MOL   C17844936  10.807   6.284   4.622 -0.1330 -0.5766 -0.9191
  140MOL   C17944937  10.658   6.274   4.641  0.2480  0.2336  0.3774
  140MOL   C18044938  10.564   6.368   4.581  0.4986 -0.2075 -0.4655
  140MOL   C18144939  10.426   6.356   4.602 -0.0286  0.0129 -0.3089
  140MOL   C18244940  10.375   6.249   4.681 -1.4315  0.4804 -0.1558
  140MOL   C18344941  10.233   6.239   4.718 -0.0113  0.0451 -0.3199
  140MOL   C18444942  10.466   6.155   4.739  0.7481 -0.0657 -0.5697
  140MOL   C18544943  10.605   6.164   4.720  0.1322  0.2374 -0.1313
  140MOL   H18644944  10.842   6.376   4.669 -0.9226 -0.5417 -0.3860
  140MOL   H18744945  10.863   6.207   4.675  0.1944 -0.7752 -1.5429
  140MOL   H18844946  10.603   6.441   4.512  0.7175 -0.4527 -0.6063
  140MOL   H18944947  10.354   6.425   4.560  0.8274  0.5102 -0.9737
  140MOL   H19044948  10.200   6.142   4.754 -0.0414  0.8566  1.9347
  140MOL   H19144949  10.213   6.315   4.794 -2.6830 -0.0746 -0.8581
  140MOL   H19244950  10.427   6.076   4.802 -0.8325  1.6106  0.6224
  140MOL   H19344951  10.665   6.084   4.762  0.1464  0.5496  0.4447
  140MOL   C19444952  10.133   6.273   4.605 -0.2524  0.0746 -0.3989
  140MOL   C19544953   9.990   6.260   4.649 -0.0925 -0.2419  0.3106
  140MOL   C19644954   9.932   6.136   4.634 -0.3248 -0.0211 -0.0750
  140MOL   C19744955   9.795   6.124   4.663  0.1127  0.0029 -0.1246
  140MOL   C19844956   9.719   6.234   4.708  0.0945 -0.8912 -0.3565
  140MOL   C19944957   9.570   6.219   4.735  0.8202 -0.3377 -0.4637
  140MOL   C20044958   9.784   6.359   4.744 -0.7635 -0.5383  0.0548
  140MOL   C20144959   9.923   6.373   4.713 -0.0433  0.7788 -0.2097
  140MOL   H20244960  10.158   6.209   4.520  0.8753 -1.6477  1.1727
  140MOL   H20344961  10.149   6.376   4.576 -1.1299  0.3470  0.0897
  140MOL   H20444962   9.980   6.055   4.580 -1.6837  0.8588 -2.6318
  140MOL   H20544963   9.752   6.026   4.649 -0.4964  0.1459  0.7106
  140MOL   H20644964   9.555   6.174   4.833 -0.5338  2.2573  0.5606
  140MOL   H20744965   9.531   6.316   4.764  0.3688 -1.0148  1.2568
  140MOL   H20844966   9.724   6.443   4.774 -1.5443 -0.2104 -2.2604
  140MOL   H20944967   9.977   6.464   4.734  0.6805  0.0951  0.9133
  140MOL   C21044968   9.494   6.157   4.621 -0.5988  1.1457 -0.8095
  140MOL   C21144969   9.346   6.174   4.634 -0.3735 -0.8469 -0.6365
  140MOL   C21244970   9.272   6.267   4.571 -0.2654 -0.1301  0.4259
  140MOL   C21344971   9.135   6.282   4.587 -0.4575  0.0236  0.3749
  140MOL   C21444972   9.066   6.186   4.666 -0.1166  0.4147  0.5331
  140MOL   C21544973   8.921   6.214   4.703 -0.2120 -0.0095  0.2123
  140MOL   C21644974   9.137   6.080   4.727  0.7708 -0.5896  0.3470
  140MOL   C21744975   9.277   6.077   4.715  0.7242  0.6127  0.3777
  140MOL   H21844976   9.506   6.049   4.612  0.1878  0.9731  1.6931
  140MOL   H21944977   9.524   6.209   4.531 -0.9288 -1.0987 -2.2506
  140MOL   H22044978   9.321   6.334   4.501 -1.6390  1.5080  0.9987
  140MOL   H22144979   9.080   6.364   4.542 -0.8164 -1.5142 -2.0574
  140MOL   H22244980   8.899   6.174   4.802  1.2032 -2.0011 -0.2421
  140MOL   H22344981   8.900   6.321   4.706  0.2950  0.1509 -1.2644
  140MOL   H22444982   9.086   6.014   4.795  0.1983  0.1554  0.6536
  140MOL   H22544983   9.339   6.006   4.767 -0.4536 -1.3994 -0.8933
  140MOL   C22644984   8.840   6.134   4.600  0.7228  0.2859  0.2885
  140MOL   C22744985   8.700   6.154   4.632 -0.1243 -0.4923  0.5642
  140MOL   C22844986   8.638   6.276   4.608  0.6933  0.3484 -0.7841
  140MOL   C22944987   8.504   6.290   4.645  0.4463  0.3865  0.1019
  140MOL   C23044988   8.433   6.189   4.703 -0.4572 -1.0486  0.2233
  140MOL   C23144989   8.292   6.210   4.741 -0.1961 -0.3101  0.2519
  140MOL   C23244990   8.500   6.064   4.735  0.6529 -0.5012  0.0129
  140MOL   C23344991   8.635   6.048   4.701  0.1782  0.1892 -0.0559
  140MOL   H23444992   8.875   6.031   4.606 -0.8079 -0.2626  0.0646
  140MOL   H23544993   8.850   6.168   4.497 -0.2288 -0.3873 -0.0316
  140MOL   H23644994   8.690   6.363   4.573 -0.7928  1.5058 -0.1496
  140MOL   H23744995   8.450   6.382   4.631 -0.2675 -0.0116  0.2132
  140MOL   H23844996   8.260   6.132   4.810 -0.9834  1.4674  1.9446
  140MOL   H23944997   8.280   6.304   4.794  0.2869 -0.4996  0.7113
  140MOL   H24044998   8.441   5.980   4.770 -1.7227  1.4026  0.6605
  140MOL   H24144999   8.685   5.953   4.714 -3.1725 -1.6188  0.0851
  140MOL   C24245000   8.199   6.203   4.623 -0.3024 -0.5163 -0.4674
  140MOL   C24345001   8.052   6.218   4.667 -0.3403 -0.1019 -0.2267
  140MOL   C24445002   7.999   6.346   4.646  0.1087  0.2702  1.0116
  140MOL   C24545003   7.873   6.376   4.692  0.8700  0.7399  0.3806
  140MOL   C24645004   7.796   6.267   4.743 -0.4250 -0.1852  1.0351
  140MOL   C24745005   7.643   6.289   4.767 -0.6295  0.0289  0.2470
  140MOL   C24845006   7.849   6.138   4.758  0.3712 -0.4188 -0.5033
  140MOL   C24945007   7.973   6.114   4.708 -0.3209 -0.5990 -0.3849
  140MOL   H25045008   8.227   6.283   4.555  2.4183 -0.1694  0.9643
  140MOL   H25145009   8.212   6.116   4.559 -0.4990 -0.5668 -0.4392
  140MOL   H25245010   8.056   6.422   4.595 -1.6159  0.3189 -0.9234
  140MOL   H25345011   7.827   6.474   4.690  2.3134  1.4199 -0.2179
  140MOL   H25445012   7.619   6.394   4.756  0.3608  0.3620  1.1529
  140MOL   H25545013   7.586   6.231   4.695  0.8673 -1.8630  0.5248
  140MOL   H25645014   7.775   6.071   4.799  0.6986 -0.5811 -0.1654
  140MOL   H25745015   8.003   6.010   4.708  1.0645 -0.2101  0.1542
  140MOL   C25845016   7.602   6.250   4.917  0.6293 -0.1019 -0.0535
  140MOL   C25945017   7.454   6.262   4.954  0.4522  0.6019  0.0825
  140MOL   C26045018   7.381   6.376   4.921  0.1780 -0.5749 -0.2465
  140MOL   C26145019   7.255   6.412   4.972  0.4806 -0.2954 -0.3379
  140MOL   C26245020   7.207   6.316   5.059 -0.2635  0.7948  0.8737
  140MOL   C26345021   7.092   6.368   5.143  0.1123 -0.3694  0.3874
  140MOL   C26445022   7.268   6.193   5.092 -0.1758 -0.0872  0.4774
  140MOL   C26545023   7.390   6.160   5.024 -0.2048  0.2750 -0.4410
  140MOL   H26645024   7.649   6.318   4.988  2.4458 -1.4582  0.0872
  140MOL   H26745025   7.647   6.152   4.935 -0.7584 -0.7752 -0.2286
  140MOL   H26845026   7.434   6.451   4.863  1.0441 -1.2512 -0.3489
  140MOL   H26945027   7.214   6.511   4.962  0.2486 -0.2403  1.1000
  140MOL   H27045028   7.111   6.339   5.246  3.5088 -1.0568 -0.3613
  140MOL   H27145029   7.102   6.476   5.130  3.1404 -0.9539 -2.7966
  140MOL   H27245030   7.226   6.131   5.171  0.8226 -0.0309  1.0604
  140MOL   H27345031   7.435   6.064   5.041 -1.5633 -0.4613 -0.8770
  140MOL   C27445032   6.956   6.319   5.089 -0.1597  0.5827 -0.0467
  140MOL   C27545033   6.839   6.371   5.162 -0.3331 -0.0870  0.5047
  140MOL   C27645034   6.781   6.491   5.118 -1.1346 -0.7459 -0.3764
  140MOL   C27745035   6.684   6.549   5.192  0.0407 -0.1997  0.4630
  140MOL   C27845036   6.635   6.491   5.311  0.1667 -1.0016  0.0719
  140MOL   C27945037   6.525   6.554   5.395  0.2316  0.6767  0.5390
  140MOL   C28045038   6.685   6.366   5.353 -0.2663  0.6955 -0.5128
  140MOL   C28145039   6.796   6.314   5.281  0.1094 -0.4181 -0.7114
  140MOL   H28245040   6.944   6.342   4.983 -0.9833 -1.5780 -0.4400
  140MOL   H28345041   6.952   6.210   5.094 -1.0203  0.5152 -1.8644
  140MOL   H28445042   6.814   6.549   5.033 -1.4681  0.9727  0.6382
  140MOL   H28545043   6.633   6.637   5.155 -0.3841 -0.3325  0.7396
  140MOL   H28645044   6.540   6.535   5.501 -3.0816 -0.8000  0.7987
  140MOL   H28745045   6.521   6.662   5.376  0.2621  0.1272 -2.8271
  140MOL   H28845046   6.637   6.315   5.435 -0.1428  0.6349 -0.4794
  140MOL   H28945047   6.842   6.226   5.324 -2.5619 -0.5451  2.0337
  140MOL   C29045048   6.389   6.476   5.361 -0.9211  0.3162  0.7469
  140MOL   C29145049   6.273   6.545   5.423 -0.3369  0.9038  0.7556
  140MOL   C29245050   6.237   6.505   5.550 -0.6795 -0.7902  0.0043
  140MOL   C29345051   6.131   6.571   5.616  0.4944  0.1960  0.1886
  140MOL   C29445052   6.040   6.654   5.548  0.2038 -0.0894  0.1733
  140MOL   C29545053   5.908   6.696   5.612 -0.2138  0.3981  0.5137
  140MOL   C29645054   6.074   6.692   5.419  0.4107 -0.3139  0.7268
  140MOL   C29745055   6.191   6.643   5.361  0.2091 -0.3708  0.5146
  140MOL   H29845056   6.408   6.369   5.365  1.3059  0.5120 -2.3823
  140MOL   H29945057   6.375   6.499   5.255 -0.1074  1.1594  0.8166
  140MOL   H30045058   6.296   6.436   5.608 -1.2064  0.1496  1.7123
  140MOL   H30145059   6.114   6.535   5.717 -1.0004  1.2643  0.3450
  140MOL   H30245060   5.926   6.733   5.713 -0.3076 -0.4930  0.8622
  140MOL   H30345061   5.851   6.769   5.555 -1.8313 -0.2237  1.3312
  140MOL   H30445062   6.013   6.770   5.374 -2.1856 -2.8642 -0.3097
  140MOL   H30545063   6.213   6.682   5.264 -2.0453  0.5642  0.3540
  140MOL   C30645064   5.811   6.578   5.628 -0.5424 -0.7295 -0.2004
  140MOL   C30745065   5.685   6.627   5.697  0.6673 -0.5184 -0.9139
  140MOL   C30845066   5.640   6.582   5.822  0.1685  0.5294  0.0722
  140MOL   C30945067   5.520   6.631   5.883 -0.0815 -0.3922 -0.1902
  140MOL   C31045068   5.445   6.720   5.806 -0.4023  0.0230  0.2026
  140MOL   C31145069   5.313   6.762   5.862 -0.0777 -0.4081  0.3356
  140MOL   C31245070   5.483   6.763   5.682 -0.1366 -0.3862  0.6244
  140MOL   C31345071   5.604   6.721   5.630 -0.0541  0.0560  0.2473
  140MOL   H31445072   5.851   6.490   5.679 -3.6708 -1.3536  1.2622
  140MOL   H31545073   5.778   6.541   5.531  0.0028  1.6926 -1.3411
  140MOL   H31645074   5.706   6.514   5.873  0.2560  0.4047 -0.2025
  140MOL   H31745075   5.491   6.601   5.982  0.2594 -1.5730 -0.4392
  140MOL   H31845076   5.310   6.862   5.818  1.8334 -0.9373 -1.0398
  140MOL   H31945077   5.221   6.720   5.822 -1.6277  1.9597  1.2685
  140MOL   H32045078   5.416   6.820   5.620  1.7614  2.7636  1.3637
  140MOL   H32145079   5.634   6.752   5.532  0.0606 -1.1711 -0.1111
  140MOL   H32245080   5.305   6.770   5.970  1.2447  2.3695  0.2832
  141MOL     C145081   3.341   2.504   7.118 -0.3125  0.6929  0.0609
  141MOL     C245082   3.485   2.478   7.121  0.5967 -0.1419  0.0658
  141MOL     C345083   3.554   2.456   7.003 -0.3150 -0.1314  0.0708
  141MOL     C445084   3.690   2.414   7.007 -0.0348  0.6278  0.1985
  141MOL     C545085   3.758   2.414   7.131 -0.8261  0.7360 -0.2882
  141MOL     C645086   3.904   2.360   7.144 -0.1931  0.0151 -0.3660
  141MOL     C745087   3.690   2.441   7.252 -0.7887 -0.1050 -1.2930
  141MOL     C845088   3.552   2.472   7.244 -0.5191  0.0749 -0.3352
  141MOL     H945089   3.301   2.573   7.044 -1.0403  2.0535  1.6696
  141MOL    H1045090   3.282   2.413   7.120 -1.3649  1.3783  1.9178
  141MOL    H1145091   3.501   2.468   6.909 -1.7858 -1.3287  0.7320
  141MOL    H1245092   3.735   2.398   6.911  0.3565 -0.4257  0.5490
  141MOL    H1345093   3.964   2.448   7.120 -1.1612  0.6224 -0.6286
  141MOL    H1445094   3.930   2.341   7.248  1.4843  2.9131 -0.1983
  141MOL    H1545095   3.747   2.442   7.343 -1.0365  0.1281 -1.1402
  141MOL    H1645096   3.501   2.495   7.336  0.7463 -1.2179  0.7121
  141MOL    H1745097   3.311   2.550   7.213 -1.3314  1.6946 -0.7381
  141MOL    C1845098   3.932   2.235   7.060 -0.0970  0.0295  0.7466
  141MOL    C1945099   4.083   2.218   7.044  0.0316  0.4656 -0.0284
  141MOL    C2045100   4.151   2.293   6.946 -0.1624  0.7321  0.2178
  141MOL    C2145101   4.290   2.281   6.934 -0.2786 -0.1061  0.3709
  141MOL    C2245102   4.360   2.188   7.017  1.1617 -0.0793  0.0890
  141MOL    C2345103   4.509   2.177   6.998 -0.3879 -0.0667  0.0421
  141MOL    C2445104   4.289   2.111   7.117  0.4606  0.5639 -0.3598
  141MOL    C2545105   4.149   2.123   7.122  0.0729  0.8542  0.0942
  141MOL    H2645106   3.885   2.146   7.102 -0.9228 -1.4140 -3.0505
  141MOL    H2745107   3.886   2.235   6.961 -0.2407  1.4770  0.8061
  141MOL    H2845108   4.090   2.351   6.879 -0.1983 -0.5847 -0.9001
  141MOL    H2945109   4.335   2.325   6.847 -1.1066  0.5216  0.2555
  141MOL    H3045110   4.562   2.160   7.091 -0.5373 -0.5218  0.0460
  141MOL    H3145111   4.539   2.277   6.968  2.9168 -0.3288  2.2465
  141MOL    H3245112   4.339   2.041   7.183  0.8446 -0.4705 -1.7128
  141MOL    H3345113   4.093   2.050   7.178 -0.2730 -0.7462 -2.2841
  141MOL    C3445114   4.551   2.056   6.900 -0.0301 -0.2667  0.4721
  141MOL    C3545115   4.703   2.042   6.891  0.0161  0.0236  0.1916
  141MOL    C3645116   4.789   2.144   6.835  0.8234 -0.1900 -0.0622
  141MOL    C3745117   4.927   2.117   6.812  0.0421  0.1168  0.3677
  141MOL    C3845118   4.985   1.996   6.858  0.4875  0.2625  0.7326
  141MOL    C3945119   5.137   1.965   6.842 -0.2543 -0.0958  0.2886
  141MOL    C4045120   4.903   1.898   6.913 -0.2396  0.2018  0.4160
  141MOL    C4145121   4.763   1.920   6.931  1.0061 -0.3772  0.0591
  141MOL    H4245122   4.505   2.057   6.801 -1.0422  0.4724  0.9538
  141MOL    H4345123   4.520   1.963   6.948  2.3885 -0.5987  1.4631
  141MOL    H4445124   4.752   2.242   6.806  0.3619 -0.4775 -0.4562
  141MOL    H4545125   4.985   2.190   6.757  0.5180  0.9256  1.8985
  141MOL    H4645126   5.188   2.058   6.819  0.7580 -0.7028  0.0515
  141MOL    H4745127   5.164   1.936   6.943  1.4664  0.8886  0.1378
  141MOL    H4845128   4.943   1.801   6.939  0.8813  0.2603 -1.0878
  141MOL    H4945129   4.703   1.835   6.961  2.6789 -0.6849  2.7008
  141MOL    C5045130   5.167   1.862   6.732  0.2250  0.3433  0.5857
  141MOL    C5145131   5.314   1.842   6.718 -0.0457 -0.1569  0.5725
  141MOL    C5245132   5.378   1.724   6.771  0.4558  0.7654  0.2917
  141MOL    C5345133   5.516   1.702   6.758 -0.2906  0.5731  0.0340
  141MOL    C5445134   5.598   1.801   6.696 -0.6287 -0.9321  0.1905
  141MOL    C5545135   5.747   1.783   6.682 -0.5076  0.0790 -0.4630
  141MOL    C5645136   5.530   1.911   6.635 -0.4608 -0.2419 -0.8257
  141MOL    C5745137   5.393   1.939   6.648  0.0358 -0.1740 -1.2111
  141MOL    H5845138   5.122   1.910   6.645 -0.6661 -0.5404  0.5517
  141MOL    H5945139   5.117   1.769   6.757  0.2792  0.0965 -0.2256
  141MOL    H6045140   5.316   1.651   6.821 -1.8899  3.5129  1.5728
  141MOL    H6145141   5.552   1.605   6.791  1.0679  0.7712 -0.7964
  141MOL    H6245142   5.799   1.878   6.684 -1.7099  0.7413 -0.0282
  141MOL    H6345143   5.794   1.725   6.762 -0.7107  0.4695 -0.0590
  141MOL    H6445144   5.592   1.984   6.584 -0.1837 -0.0592 -0.2305
  141MOL    H6545145   5.359   2.031   6.603  1.9269  0.7816 -0.7251
  141MOL    C6645146   5.787   1.727   6.540 -1.0422 -0.3899 -0.2748
  141MOL    C6745147   5.939   1.715   6.519 -0.4596 -0.0243  0.5521
  141MOL    C6845148   5.995   1.773   6.407 -0.4479  0.5356 -0.5787
  141MOL    C6945149   6.135   1.743   6.387 -0.0577  0.1928  0.2405
  141MOL    C7045150   6.209   1.670   6.480  0.2361  0.3701 -0.0249
  141MOL    C7145151   6.353   1.626   6.450  0.7304  0.6508  0.0908
  141MOL    C7245152   6.144   1.611   6.589  0.4386  0.1997 -0.4207
  141MOL    C7345153   6.008   1.638   6.613  0.4725 -0.5010  0.1551
  141MOL    H7445154   5.735   1.772   6.455 -0.1076  0.9456 -0.1651
  141MOL    H7545155   5.752   1.624   6.539  1.5608 -1.2953  0.3298
  141MOL    H7645156   5.945   1.826   6.328 -0.3680  1.2140 -0.1872
  141MOL    H7745157   6.186   1.781   6.299  0.4967  1.5172  1.1267
  141MOL    H7845158   6.365   1.542   6.382 -0.8778  1.4821 -1.2377
  141MOL    H7945159   6.395   1.578   6.539 -1.4137 -0.8193  0.3594
  141MOL    H8045160   6.195   1.554   6.665  1.3018  0.7993 -0.5373
  141MOL    H8145161   5.958   1.604   6.703  0.8902  2.3007  1.5077
  141MOL    C8245162   6.442   1.741   6.404 -0.0406 -0.5470 -0.0192
  141MOL    C8345163   6.581   1.687   6.358  0.4025  0.0820  0.1020
  141MOL    C8445164   6.695   1.697   6.440  0.4382 -0.3180 -0.6193
  141MOL    C8545165   6.819   1.645   6.389 -0.0506  0.7526  0.2793
  141MOL    C8645166   6.834   1.578   6.265 -0.0751 -0.7358 -0.1196
  141MOL    C8745167   6.966   1.521   6.224 -0.0112  0.2336 -0.7698
  141MOL    C8845168   6.716   1.557   6.191  0.3844 -0.9065  0.2185
  141MOL    C8945169   6.592   1.623   6.231 -0.8202  0.9274  0.0206
  141MOL    H9045170   6.449   1.823   6.475  0.2214 -1.1693  0.6828
  141MOL    H9145171   6.400   1.786   6.315  0.8692  3.0094  1.2745
  141MOL    H9245172   6.697   1.752   6.533 -0.2835 -0.7991 -0.3216
  141MOL    H9345173   6.904   1.676   6.447 -0.1396  1.7345 -0.0877
  141MOL    H9445174   6.960   1.412   6.231  0.0139  0.0267 -3.4875
  141MOL    H9545175   7.045   1.550   6.294 -0.3351 -1.4865  0.3478
  141MOL    H9645176   6.731   1.517   6.092  3.1793  0.7536 -0.1112
  141MOL    H9745177   6.512   1.614   6.161  0.3965 -0.8420 -1.1957
  141MOL    C9845178   7.009   1.542   6.086  0.7966  0.2700 -0.5551
  141MOL    C9945179   7.105   1.429   6.043 -0.0525 -0.5866  0.5767
  141MOL   C10045180   7.046   1.310   5.993 -1.0935  0.6630 -0.6943
  141MOL   C10145181   7.123   1.196   5.962  0.1729 -0.2499 -0.4473
  141MOL   C10245182   7.263   1.212   5.967 -0.6237  0.2842 -0.6946
  141MOL   C10345183   7.369   1.103   5.953 -0.4515  0.0976  0.4866
  141MOL   C10445184   7.320   1.336   6.006  0.5215  0.0737  0.0060
  141MOL   C10545185   7.242   1.449   6.048  0.3073  0.4976  0.0110
  141MOL   H10645186   7.052   1.642   6.080 -1.7922  1.6722  2.8264
  141MOL   H10745187   6.921   1.549   6.021 -0.6026  1.1053  1.3770
  141MOL   H10845188   6.939   1.306   5.983 -1.2227 -1.1178  1.1713
  141MOL   H10945189   7.081   1.103   5.927 -0.8490 -0.4248  1.1903
  141MOL   H11045190   7.430   1.110   6.043 -1.8216 -0.7596  1.5027
  141MOL   H11145191   7.318   1.006   5.951 -0.4351  0.0863  0.6031
  141MOL   H11245192   7.428   1.342   6.007  0.5618 -0.3136 -0.8868
  141MOL   H11345193   7.285   1.544   6.075 -0.1243  0.3714  1.1751
  141MOL   C11445194   7.446   1.120   5.818 -0.6669 -0.0836  0.1040
  141MOL   C11545195   7.559   1.020   5.799 -0.7263  0.8425  0.4754
  141MOL   C11645196   7.595   0.915   5.892 -0.4874  0.2378  0.0727
  141MOL   C11745197   7.712   0.842   5.865 -0.5249  0.4476 -0.0832
  141MOL   C11845198   7.787   0.861   5.748  0.5482  0.0700 -0.2837
  141MOL   C11945199   7.910   0.777   5.722  0.1701 -0.3478  0.2375
  141MOL   C12045200   7.746   0.952   5.648 -0.1431 -0.0460  0.1036
  141MOL   C12145201   7.635   1.032   5.676  0.1939 -0.1413  0.2033
  141MOL   H12245202   7.491   1.215   5.788 -0.0717 -0.2341  0.5203
  141MOL   H12345203   7.371   1.100   5.741  0.6326  3.0432 -2.1071
  141MOL   H12445204   7.525   0.900   5.972 -0.6289  0.2216 -0.0561
  141MOL   H12545205   7.745   0.767   5.935  3.2469  2.7327  0.7656
  141MOL   H12645206   7.899   0.674   5.757 -1.2933 -0.0382  0.7349
  141MOL   H12745207   7.917   0.776   5.613  0.1461 -0.1899  0.2338
  141MOL   H12845208   7.797   0.970   5.554  0.6999 -2.3474  0.1079
  141MOL   H12945209   7.608   1.111   5.608  0.2296 -0.0306  0.3155
  141MOL   C13045210   8.038   0.829   5.787 -0.1880 -0.4485 -0.2180
  141MOL   C13145211   8.161   0.786   5.726 -0.1040 -0.8539 -0.4355
  141MOL   C13245212   8.176   0.652   5.692  0.0909 -0.9255 -0.5782
  141MOL   C13345213   8.291   0.606   5.638 -0.1512 -0.1984  0.0146
  141MOL   C13445214   8.395   0.693   5.610 -0.1137 -0.0199  0.2213
  141MOL   C13545215   8.530   0.646   5.548  0.2032  0.2566  0.3414
  141MOL   C13645216   8.382   0.833   5.643  0.1888 -0.3579  0.0508
  141MOL   C13745217   8.269   0.874   5.706  0.2208 -0.5710  0.3807
  141MOL   H13845218   8.035   0.802   5.893 -1.3539  1.1972  0.1837
  141MOL   H13945219   8.038   0.937   5.778 -1.0094 -0.1229  2.9763
  141MOL   H14045220   8.104   0.574   5.712  0.5169 -0.9427  0.9229
  141MOL   H14145221   8.295   0.503   5.606 -0.7033 -0.0436 -0.5634
  141MOL   H14245222   8.525   0.544   5.511 -1.3362 -0.6310  2.8724
  141MOL   H14345223   8.553   0.713   5.465  0.4612  0.5095  0.6127
  141MOL   H14445224   8.468   0.897   5.629  1.0940 -1.5086  0.2341
  141MOL   H14545225   8.260   0.976   5.741  1.7275  0.0928 -1.0879
  141MOL   C14645226   8.649   0.651   5.652  1.0201 -0.6651  0.2274
  141MOL   C14745227   8.788   0.614   5.593 -0.6130 -0.1155  0.4600
  141MOL   C14845228   8.886   0.712   5.566  0.0894  0.1441 -0.0693
  141MOL   C14945229   9.008   0.675   5.509  0.5604  0.5237 -0.1167
  141MOL   C15045230   9.042   0.541   5.485 -0.2380  0.4428  0.1829
  141MOL   C15145231   9.173   0.499   5.422  0.6218 -0.4842  0.2537
  141MOL   C15245232   8.948   0.439   5.515  0.2038  0.1225 -0.7017
  141MOL   C15345233   8.819   0.480   5.571 -0.4627  0.5206 -0.8241
  141MOL   H15445234   8.632   0.589   5.741  2.4027 -0.1040  0.9069
  141MOL   H15545235   8.649   0.750   5.698 -0.1246 -0.8135  0.5741
  141MOL   H15645236   8.857   0.815   5.580 -0.5323  0.1942 -1.6122
  141MOL   H15745237   9.084   0.748   5.484  1.2184  0.0258  0.4007
  141MOL   H15845238   9.157   0.424   5.345 -0.3947  0.0611 -0.0842
  141MOL   H15945239   9.217   0.586   5.373  0.0288 -0.5548 -0.4248
  141MOL   H16045240   8.961   0.333   5.495  0.1007 -0.1525  0.6572
  141MOL   H16145241   8.738   0.412   5.594  0.0244  0.9849  2.6163
  141MOL   C16245242   9.270   0.434   5.520  0.1507  0.0480 -0.3364
  141MOL   C16345243   9.397   0.389   5.452 -0.1684  0.0351 -0.6552
  141MOL   C16445244   9.506   0.475   5.444  0.3489  0.1834 -0.3970
  141MOL   C16545245   9.631   0.432   5.391  0.6943 -0.6113  0.3028
  141MOL   C16645246   9.645   0.299   5.352  0.7356 -0.1860  0.5005
  141MOL   C16745247   9.777   0.248   5.308  0.1287  0.4236 -0.9015
  141MOL   C16845248   9.537   0.206   5.368 -0.4374 -0.5628  1.0673
  141MOL   C16945249   9.414   0.254   5.410  1.1118 -0.0174  0.2583
  141MOL   H17045250   9.218   0.345   5.556  1.2208  0.1149  1.4199
  141MOL   H17145251   9.279   0.495   5.610  0.9128 -0.1201 -0.2962
  141MOL   H17245252   9.500   0.579   5.472 -2.1945 -0.5303  1.9974
  141MOL   H17345253   9.713   0.503   5.388  2.2199 -2.3962 -1.8096
  141MOL   H17445254   9.781   0.142   5.281  1.3325  0.1559  0.2598
  141MOL   H17545255   9.806   0.296   5.214  1.0359  0.1498 -0.7706
  141MOL   H17645256   9.546   0.105   5.332 -0.2270 -0.1983  0.0714
  141MOL   H17745257   9.326   0.195   5.433  1.0859  0.4968  1.5498
  141MOL   C17845258   9.887   0.270   5.414  0.3987  0.5596  0.3841
  141MOL   C17945259  10.010   0.185   5.403 -0.8790 -1.2760 -0.4982
  141MOL   C18045260  10.001   0.052   5.436 -0.4117  0.3570  0.3457
  141MOL   C18145261  10.115  -0.031   5.443 -0.4261  0.4300  0.6247
  141MOL   C18245262  10.242   0.019   5.401 -0.0842  0.3578  0.5314
  141MOL   C18345263  10.354  -0.072   5.399  0.3051  0.1779 -0.1864
  141MOL   C18445264  10.246   0.158   5.361  0.4600  0.1670 -0.3553
  141MOL   C18545265  10.131   0.237   5.368  0.3567 -0.2392  0.1150
  141MOL   H18645266   9.848   0.256   5.514  1.4486 -1.7231  0.5091
  141MOL   H18745267   9.911   0.375   5.424  0.5289  0.4588  1.1602
  141MOL   H18845268   9.906   0.008   5.462 -1.0192  2.8382  2.4418
  141MOL   H18945269  10.105  -0.136   5.463  0.4082 -0.5341 -3.4685
  141MOL   H19045270  10.317  -0.162   5.351 -0.2025  0.5598 -0.5131
  141MOL   H19145271  10.443  -0.033   5.349  0.3773  0.4836  0.1865
  141MOL   H19245272  10.337   0.204   5.324 -0.2273  1.7358 -0.1420
  141MOL   H19345273  10.135   0.338   5.329 -0.1818 -1.4085 -3.0919
  141MOL   C19445274  10.388  -0.112   5.547  0.0145 -0.1780 -0.5992
  141MOL   C19545275  10.520  -0.183   5.551  0.7058  0.1845  0.0747
  141MOL   C19645276  10.637  -0.098   5.534 -0.0734 -0.0359  0.5416
  141MOL   C19745277  10.764  -0.160   5.534 -0.0736 -0.6355  0.1888
  141MOL   C19845278  10.784  -0.297   5.553  0.3700 -0.3762  0.0987
  141MOL   C19945279  10.920  -0.364   5.557 -0.2413 -1.1044  0.5712
  141MOL   C20045280  10.665  -0.380   5.571 -0.9343 -0.6550  0.6271
  141MOL   C20145281  10.535  -0.321   5.564  0.2038  0.0310 -0.2832
  141MOL   H20245282  10.326  -0.190   5.592 -1.4464  2.2186  1.6768
  141MOL   H20345283  10.385  -0.034   5.623 -2.6038 -0.6878 -0.1285
  141MOL   H20445284  10.621   0.006   5.511  0.1931  0.1246  1.0826
  141MOL   H20545285  10.846  -0.090   5.527 -1.3390  0.9611  0.9666
  141MOL   H20645286  10.991  -0.282   5.552 -1.5370  0.0019  0.0402
  141MOL   H20745287  10.936  -0.405   5.656 -0.9919 -2.3549  0.1860
  141MOL   H20845288  10.666  -0.488   5.573 -0.8933 -0.6450  1.1336
  141MOL   H20945289  10.451  -0.385   5.586 -0.9476  1.6721  0.1525
  141MOL   C21045290  10.932  -0.468   5.450 -0.3098  0.5034  0.0558
  141MOL   C21145291  11.073  -0.530   5.431  0.9845  0.1925  0.5817
  141MOL   C21245292  11.135  -0.608   5.530  0.3211  0.1752  0.5968
  141MOL   C21345293  11.259  -0.667   5.496  0.5454 -0.0602  0.1118
  141MOL   C21445294  11.326  -0.636   5.379 -0.1895 -0.2840 -0.5762
  141MOL   C21545295  11.476  -0.684   5.350 -1.1099 -1.4641 -0.2305
  141MOL   C21645296  11.271  -0.545   5.288  0.2359 -0.5087 -0.0085
  141MOL   C21745297  11.144  -0.499   5.312 -0.2841 -0.0570  0.1271
  141MOL   H21845298  10.904  -0.426   5.353 -0.7292 -1.7870 -0.8298
  141MOL   H21945299  10.857  -0.546   5.461  0.0619  0.3454  1.6994
  141MOL   H22045300  11.081  -0.635   5.619  1.9879 -0.6694  1.3749
  141MOL   H22145301  11.308  -0.733   5.566  2.6176  0.4452 -0.8169
  141MOL   H22245302  11.527  -0.609   5.290  0.5200  0.0641  2.9387
  141MOL   H22345303  11.538  -0.687   5.439  0.6811  0.9006 -1.3518
  141MOL   H22445304  11.316  -0.501   5.200  0.1060  0.1682  0.2597
  141MOL   H22545305  11.092  -0.446   5.233 -1.3175 -1.4636 -0.1699
  141MOL   C22645306  11.481  -0.806   5.261 -0.3015  0.1471 -0.3798
  141MOL   C22745307  11.619  -0.859   5.218 -0.0135 -0.2413 -0.6305
  141MOL   C22845308  11.653  -0.882   5.082  0.2705  0.2180  0.3154
  141MOL   C22945309  11.775  -0.948   5.047 -0.6968  0.1799 -0.1761
  141MOL   C23045310  11.863  -0.983   5.152 -0.5955 -0.1630 -0.2057
  141MOL   C23145311  11.995  -1.055   5.123  0.5228  0.4374  0.5933
  141MOL   C23245312  11.830  -0.957   5.286 -0.3081 -1.0664 -0.2636
  141MOL   C23345313  11.712  -0.887   5.317 -0.7253  0.5543 -0.4525
  141MOL   H23445314  11.442  -0.767   5.166  1.7403  2.3295 -0.3846
  141MOL   H23545315  11.417  -0.883   5.303  0.3951  0.1163  0.6385
  141MOL   H23645316  11.582  -0.858   5.004  0.9247 -0.8821 -0.6376
  141MOL   H23745317  11.802  -0.945   4.943  0.7119 -1.6685  0.1197
  141MOL   H23845318  11.996  -1.140   5.191  0.6301 -0.3013 -0.3284
  141MOL   H23945319  11.992  -1.086   5.019  1.0513 -1.3082  1.0804
  141MOL   H24045320  11.890  -0.992   5.368  0.7126  5.6337  2.1148
  141MOL   H24145321  11.676  -0.876   5.419 -2.4537 -2.2836 -0.7154
  141MOL   C24245322  12.118  -0.974   5.145  0.3587  0.1191 -0.5561
  141MOL   C24345323  12.240  -1.059   5.111  0.4311 -0.3451 -0.2305
  141MOL   C24445324  12.296  -1.164   5.184 -0.1142  0.4293 -0.1398
  141MOL   C24545325  12.393  -1.254   5.133  0.2909  0.1257  0.4445
  141MOL   C24645326  12.461  -1.215   5.020 -0.9742 -0.2865 -0.4468
  141MOL   C24745327  12.579  -1.294   4.969 -0.2009  0.1893 -0.2093
  141MOL   C24845328  12.416  -1.102   4.952  0.5473  0.1586  0.0178
  141MOL   C24945329  12.311  -1.022   5.001  0.4855  0.1948 -0.5952
  141MOL   H25045330  12.118  -0.878   5.095 -1.5635  0.5781  0.2835
  141MOL   H25145331  12.126  -0.935   5.247  0.5201  2.2159 -1.3676
  141MOL   H25245332  12.246  -1.192   5.275 -0.1753 -0.4007 -0.4211
  141MOL   H25345333  12.420  -1.336   5.199  0.5995 -0.3331 -0.2526
  141MOL   H25445334  12.587  -1.395   5.010  1.6335  0.6945  0.7337
  141MOL   H25545335  12.568  -1.296   4.861 -1.0206 -2.6983 -0.1268
  141MOL   H25645336  12.463  -1.089   4.855  0.5823 -1.5218 -0.2132
  141MOL   H25745337  12.264  -0.950   4.935  2.2624  3.6158  1.7494
  141MOL   C25845338  12.702  -1.208   4.998  0.6362 -0.0349  0.0013
  141MOL   C25945339  12.825  -1.273   4.946 -1.5121  0.2597  0.0521
  141MOL   C26045340  12.888  -1.223   4.829  0.4418 -0.1502 -0.4621
  141MOL   C26145341  13.015  -1.277   4.793 -1.0893 -0.6413 -0.4295
  141MOL   C26245342  13.075  -1.384   4.863  0.4880 -0.4679 -0.1562
  141MOL   C26345343  13.198  -1.441   4.810 -0.0910 -0.1197 -0.4821
  141MOL   C26445344  13.004  -1.437   4.974 -0.3515 -0.0524 -0.6053
  141MOL   C26545345  12.880  -1.381   5.015 -0.1013  0.1214  0.6870
  141MOL   H26645346  12.712  -1.187   5.104  1.7818 -1.0014  0.0926
  141MOL   H26745347  12.696  -1.104   4.966  0.0711  0.5466  1.9502
  141MOL   H26845348  12.836  -1.149   4.769  1.0069  0.0740 -0.6828
  141MOL   H26945349  13.066  -1.242   4.704  0.2825 -2.8550 -0.5436
  141MOL   H27045350  13.179  -1.522   4.740 -0.9609  0.2203 -0.6484
  141MOL   H27145351  13.245  -1.364   4.750  0.2451  0.4619  0.5172
  141MOL   H27245352  13.048  -1.522   5.022 -0.7177 -1.2578 -2.3484
  141MOL   H27345353  12.826  -1.430   5.095 -2.5492 -0.9849 -1.5641
  141MOL   C27445354  13.292  -1.490   4.921 -0.1550  0.1558  0.1139
  141MOL   C27545355  13.436  -1.490   4.885 -0.1793 -0.0422 -0.1210
  141MOL   C27645356  13.490  -1.595   4.806 -0.2785  0.2774 -0.0972
  141MOL   C27745357  13.627  -1.610   4.793  0.4777 -0.5784  0.1915
  141MOL   C27845358  13.717  -1.522   4.854 -0.1921 -0.7506 -0.3119
  141MOL   C27945359  13.866  -1.538   4.828 -0.0374  0.1063  0.3369
  141MOL   C28045360  13.659  -1.409   4.918 -0.8468 -0.0635 -1.1104
  141MOL   C28145361  13.523  -1.396   4.944  0.1166  0.1625 -0.5255
  141MOL   H28245362  13.284  -1.434   5.014  2.5340 -2.4838  2.0444
  141MOL   H28345363  13.254  -1.591   4.935  1.3282 -0.3953  0.2964
  141MOL   H28445364  13.435  -1.669   4.752  2.3479 -1.1629 -0.8836
  141MOL   H28545365  13.668  -1.689   4.732  1.0227  1.9096 -2.7809
  141MOL   H28645366  13.894  -1.594   4.739  0.1019 -0.0636  0.4857
  141MOL   H28745367  13.905  -1.442   4.795 -0.9578  1.4268  2.9717
  141MOL   H28845368  13.721  -1.333   4.962 -1.9087  1.1149 -1.6406
  141MOL   H28945369  13.500  -1.311   5.006 -1.8663  0.0486 -1.0975
  141MOL   C29045370  13.939  -1.596   4.950  0.1862 -0.1364  0.5273
  141MOL   C29145371  14.090  -1.606   4.923 -0.2099  0.0891  0.1190
  141MOL   C29245372  14.154  -1.731   4.897  0.6166  0.2552 -0.0422
  141MOL   C29345373  14.292  -1.741   4.875 -0.7892  0.1615  0.0696
  141MOL   C29445374  14.379  -1.626   4.891  0.3806  0.2675 -0.0960
  141MOL   C29545375  14.524  -1.641   4.864  0.3220  0.2436 -0.6771
  141MOL   C29645376  14.319  -1.505   4.940 -0.4149 -0.3467 -0.3940
  141MOL   C29745377  14.176  -1.494   4.940 -0.5246  0.0858  0.1047
  141MOL   H29845378  13.900  -1.695   4.975 -1.2568  0.5886  1.2159
  141MOL   H29945379  13.921  -1.529   5.034 -0.5124  0.4474 -0.0690
  141MOL   H30045380  14.092  -1.819   4.906 -0.8651  1.2221 -0.5933
  141MOL   H30145381  14.335  -1.835   4.844  0.8775  0.7736  0.4907
  141MOL   H30245382  14.580  -1.562   4.914 -1.2264  0.3177  0.9804
  141MOL   H30345383  14.551  -1.732   4.918  0.5756  1.8647  2.0356
  141MOL   H30445384  14.392  -1.426   4.949  0.5289 -1.3476  0.8852
  141MOL   H30545385  14.136  -1.397   4.967 -0.7598 -0.2696  1.0296
  141MOL   C30645386  14.557  -1.670   4.718  0.9394  1.0032 -0.5073
  141MOL   C30745387  14.710  -1.689   4.693 -0.0710  0.5291  0.0623
  141MOL   C30845388  14.760  -1.820   4.721 -0.2507 -0.8021  0.3732
  141MOL   C30945389  14.898  -1.851   4.693  0.0058  0.9281 -0.7464
  141MOL   C31045390  14.974  -1.752   4.630 -0.2218  0.0068 -0.1044
  141MOL   C31145391  15.122  -1.771   4.590  0.1464  0.5530  0.2064
  141MOL   C31245392  14.921  -1.623   4.603  0.5801 -0.2781  0.5033
  141MOL   C31345393  14.791  -1.592   4.630 -0.2784 -0.7536 -0.6378
  141MOL   H31445394  14.529  -1.586   4.655  0.4641  1.8273  0.7825
  141MOL   H31545395  14.511  -1.757   4.672 -0.5495  0.9212  1.0865
  141MOL   H31645396  14.700  -1.900   4.762  0.5737 -0.7973  1.6071
  141MOL   H31745397  14.940  -1.948   4.716 -2.5082 -0.4424 -1.6639
  141MOL   H31845398  15.177  -1.678   4.608  2.5878 -0.3289 -2.4364
  141MOL   H31945399  15.172  -1.843   4.654 -0.5911  0.7505  1.0228
  141MOL   H32045400  14.974  -1.552   4.540  1.8153 -0.9697  0.7583
  141MOL   H32145401  14.753  -1.493   4.610 -1.1243 -1.5266 -2.9872
  141MOL   H32245402  15.131  -1.797   4.485  2.4631 -0.3713  0.5963
  142MOL     C145403   1.761   3.556   3.338  0.9552 -0.6234 -0.4765
  142MOL     C245404   1.618   3.524   3.299  0.0119 -0.4699 -0.8764
  142MOL     C345405   1.526   3.531   3.404  0.3768  0.5420 -0.2453
  142MOL     C445406   1.391   3.517   3.366 -0.0499 -0.0974  0.1259
  142MOL     C545407   1.353   3.490   3.233  0.3917  0.4166 -0.7382
  142MOL     C645408   1.211   3.478   3.196 -0.2804 -0.6218 -0.2148
  142MOL     C745409   1.452   3.484   3.133 -0.8279  0.1127 -0.6073
  142MOL     C845410   1.588   3.492   3.166 -0.1195  0.1587 -0.0172
  142MOL     H945411   1.832   3.473   3.335 -0.9864 -2.2871 -1.3088
  142MOL    H1045412   1.799   3.638   3.277 -2.6827  2.9649  1.8244
  142MOL    H1145413   1.554   3.552   3.506 -2.1188  2.7671  0.0315
  142MOL    H1245414   1.311   3.516   3.439 -0.4773  1.8671 -0.2906
  142MOL    H1345415   1.187   3.390   3.136 -0.5612  0.5161 -1.7979
  142MOL    H1445416   1.157   3.494   3.290 -2.1145  2.0695 -1.6475
  142MOL    H1545417   1.417   3.451   3.036 -1.8611 -1.4006  0.2581
  142MOL    H1645418   1.664   3.471   3.092  0.6307  0.6495  0.6072
  142MOL    H1745419   1.759   3.602   3.437 -2.1519  1.0547 -1.2553
  142MOL    C1845420   1.171   3.591   3.102  0.5811  0.1051 -0.1057
  142MOL    C1945421   1.019   3.587   3.082  0.1756  0.1291 -0.7191
  142MOL    C2045422   0.933   3.637   3.182 -0.6362  0.0902  0.2465
  142MOL    C2145423   0.794   3.641   3.161 -0.0156  0.7235 -0.1358
  142MOL    C2245424   0.743   3.603   3.039 -0.8923 -0.3153 -0.1241
  142MOL    C2345425   0.597   3.622   3.012  0.0654  0.2001 -0.0203
  142MOL    C2445426   0.829   3.558   2.940  0.8410 -0.1166  0.6966
  142MOL    C2545427   0.962   3.546   2.966  0.4468  0.0959  0.5431
  142MOL    H2645428   1.190   3.687   3.151 -2.5998  1.2228 -0.8870
  142MOL    H2745429   1.207   3.580   3.000  0.0331  2.5577 -0.6137
  142MOL    H2845430   0.974   3.675   3.275  0.2966 -1.5065  0.5021
  142MOL    H2945431   0.730   3.694   3.231  0.8910  1.3808  0.2104
  142MOL    H3045432   0.548   3.639   3.108 -1.5488  0.7187 -0.9115
  142MOL    H3145433   0.553   3.529   2.974 -2.5540  2.5899 -3.1728
  142MOL    H3245434   0.789   3.540   2.842  1.0254  0.5152  0.5064
  142MOL    H3345435   1.024   3.511   2.885  0.7527 -0.4274  0.9949
  142MOL    C3445436   0.564   3.739   2.913 -0.1017  0.7872 -0.3141
  142MOL    C3545437   0.413   3.732   2.888  0.4025 -0.0447 -0.6568
  142MOL    C3645438   0.362   3.675   2.764  0.2154 -0.3526  0.1274
  142MOL    C3745439   0.224   3.677   2.739 -0.0358  0.1146  0.4327
  142MOL    C3845440   0.129   3.725   2.831  0.5915 -0.3343  0.0641
  142MOL    C3945441  -0.017   3.736   2.802 -0.3408  0.4580  0.6641
  142MOL    C4045442   0.177   3.772   2.961 -0.0579 -0.0545 -0.0862
  142MOL    C4145443   0.319   3.777   2.983 -0.2650  1.1703 -0.1998
  142MOL    H4245444   0.631   3.725   2.828 -0.5598  1.1776 -0.7415
  142MOL    H4345445   0.597   3.834   2.956 -1.1019  0.8201  0.3957
  142MOL    H4445446   0.432   3.629   2.695 -0.2120  0.2188 -0.7102
  142MOL    H4545447   0.189   3.628   2.649 -0.4764 -1.9203  1.6565
  142MOL    H4645448  -0.058   3.639   2.774  0.8828 -0.0197  0.4864
  142MOL    H4745449  -0.075   3.765   2.890  0.4843  1.1270  0.9902
  142MOL    H4845450   0.106   3.798   3.038 -1.4789 -1.7143 -0.7937
  142MOL    H4945451   0.352   3.817   3.077  3.4270  1.0894 -1.3817
  142MOL    C5045452  -0.035   3.846   2.695 -0.6792 -0.3593 -0.1957
  142MOL    C5145453  -0.182   3.855   2.661 -0.4162 -0.0740  0.1919
  142MOL    C5245454  -0.272   3.937   2.734 -0.2966 -0.1952 -0.7852
  142MOL    C5345455  -0.410   3.940   2.697  0.0268  0.9505 -1.3878
  142MOL    C5445456  -0.452   3.876   2.581  0.6944  0.0089 -0.5194
  142MOL    C5545457  -0.602   3.877   2.545 -0.5832 -0.6238  0.4212
  142MOL    C5645458  -0.362   3.799   2.503 -0.0284  0.5407 -0.6275
  142MOL    C5745459  -0.231   3.787   2.548  0.0027 -0.2600 -0.5517
  142MOL    H5845460   0.012   3.815   2.602  0.1883 -0.9294  0.4292
  142MOL    H5945461   0.000   3.940   2.737 -5.0947  1.0484  0.6444
  142MOL    H6045462  -0.239   3.989   2.823  0.2185 -2.4366  0.3658
  142MOL    H6145463  -0.469   4.004   2.761 -0.4009  2.5295 -3.3085
  142MOL    H6245464  -0.623   3.783   2.494 -1.3044 -1.9755  3.0759
  142MOL    H6345465  -0.670   3.890   2.630 -1.2791  3.4259 -0.6399
  142MOL    H6445466  -0.396   3.742   2.418  0.6627 -2.1816  0.8740
  142MOL    H6545467  -0.163   3.740   2.478  0.5739  0.0044 -0.1765
  142MOL    C6645468  -0.635   3.980   2.434 -0.5799 -0.1522 -0.6239
  142MOL    C6745469  -0.775   3.962   2.372 -0.0084 -0.0116  0.4785
  142MOL    C6845470  -0.884   4.037   2.424 -0.0419  0.4271 -0.0406
  142MOL    C6945471  -1.007   4.030   2.357 -0.3245 -0.4543  0.3185
  142MOL    C7045472  -1.029   3.941   2.255  0.2893  0.1506 -0.2167
  142MOL    C7145473  -1.169   3.942   2.185 -0.6772 -0.4394  0.5343
  142MOL    C7245474  -0.922   3.856   2.211 -0.2036  0.3615 -0.3746
  142MOL    C7345475  -0.794   3.867   2.270 -0.2043 -0.0910  0.2840
  142MOL    H7445476  -0.556   3.971   2.360  2.2973  0.7523  2.2084
  142MOL    H7545477  -0.632   4.081   2.474  0.5591 -0.6374  0.5685
  142MOL    H7645478  -0.862   4.113   2.497 -0.2180  1.8704 -1.4733
  142MOL    H7745479  -1.085   4.093   2.395  1.6775  0.3552  3.2374
  142MOL    H7845480  -1.255   3.941   2.251 -0.2128 -1.7477  1.1541
  142MOL    H7945481  -1.170   3.847   2.130 -1.9245 -0.8182  1.1996
  142MOL    H8045482  -0.942   3.783   2.134 -1.4221 -0.2981  0.5422
  142MOL    H8145483  -0.713   3.812   2.224 -0.1012  1.3091 -1.2712
  142MOL    C8245484  -1.200   4.074   2.111 -0.2842 -0.3816 -0.2654
  142MOL    C8345485  -1.343   4.061   2.062  0.1272 -0.3029  0.2718
  142MOL    C8445486  -1.450   4.127   2.124  0.8257  0.5981 -0.0829
  142MOL    C8545487  -1.586   4.107   2.086 -0.2990 -0.1953 -0.3122
  142MOL    C8645488  -1.611   4.016   1.979 -0.5670 -0.0760 -0.0897
  142MOL    C8745489  -1.752   3.971   1.938 -0.0453 -0.0983  0.3093
  142MOL    C8845490  -1.501   3.972   1.898  1.0738 -0.1567 -0.4562
  142MOL    C8945491  -1.370   3.986   1.944  0.4698  0.2605  1.1222
  142MOL    H9045492  -1.139   4.086   2.021 -2.6381 -2.5501 -2.2123
  142MOL    H9145493  -1.195   4.169   2.164 -0.5546 -0.8686  0.6425
  142MOL    H9245494  -1.428   4.192   2.207  2.2433  1.4316 -1.0971
  142MOL    H9345495  -1.665   4.163   2.135  0.9874  1.0098  0.4383
  142MOL    H9445496  -1.817   3.989   2.024 -1.2523 -0.0447 -0.6073
  142MOL    H9545497  -1.763   3.864   1.920  0.3950  0.3124 -2.6544
  142MOL    H9645498  -1.511   3.906   1.813  2.3051  0.3570 -1.0097
  142MOL    H9745499  -1.293   3.939   1.885  1.3659 -0.5326  2.8771
  142MOL    C9845500  -1.804   4.042   1.810 -0.0267  0.5943 -0.5258
  142MOL    C9945501  -1.932   3.992   1.753 -0.1251 -0.4445 -0.1900
  142MOL   C10045502  -1.930   3.862   1.694  0.3012  0.0764 -1.1784
  142MOL   C10145503  -2.044   3.812   1.632  0.1598  0.5641  0.3010
  142MOL   C10245504  -2.157   3.894   1.620  0.4312 -0.1776  0.3273
  142MOL   C10345505  -2.284   3.847   1.553  0.7218  0.2778 -0.4513
  142MOL   C10445506  -2.165   4.022   1.688  0.3369  0.0455 -0.2724
  142MOL   C10545507  -2.050   4.067   1.750  0.2537  0.3205 -0.7732
  142MOL   H10645508  -1.723   4.030   1.738 -0.6854 -3.0444 -0.7461
  142MOL   H10745509  -1.808   4.147   1.839  3.1021  1.2519 -2.2533
  142MOL   H10845510  -1.841   3.801   1.684  0.9324  0.9426 -0.8575
  142MOL   H10945511  -2.044   3.720   1.575 -1.1290  0.9436 -0.3159
  142MOL   H11045512  -2.297   3.743   1.586  1.7211  0.2663 -0.0748
  142MOL   H11145513  -2.370   3.904   1.588  0.1935 -0.9067  0.2384
  142MOL   H11245514  -2.254   4.083   1.688  0.5816  0.4204 -1.2836
  142MOL   H11345515  -2.051   4.167   1.792  1.8094  1.1246 -2.5368
  142MOL   C11445516  -2.283   3.841   1.395 -0.4795  0.5956 -1.2594
  142MOL   C11545517  -2.185   3.741   1.341  0.4255  0.0856  0.3747
  142MOL   C11645518  -2.194   3.609   1.389 -0.6866 -0.1470 -0.4444
  142MOL   C11745519  -2.082   3.523   1.358 -0.2895 -0.9136  0.1727
  142MOL   C11845520  -1.982   3.570   1.271 -0.1820  0.4423  0.2443
  142MOL   C11945521  -1.874   3.471   1.233  0.1125 -0.5753 -0.3591
  142MOL   C12045522  -1.977   3.698   1.216  0.7413  0.0989  0.8245
  142MOL   C12145523  -2.083   3.786   1.253  0.5412 -0.3006  0.1612
  142MOL   H12245524  -2.270   3.939   1.349  3.5906 -0.7449 -3.2041
  142MOL   H12345525  -2.381   3.803   1.367 -0.5593  0.1332 -0.3615
  142MOL   H12445526  -2.272   3.570   1.452  0.8053  1.5170  2.5653
  142MOL   H12545527  -2.089   3.421   1.393 -2.0556 -0.8306  0.1203
  142MOL   H12645528  -1.927   3.377   1.214 -1.7031  0.2665  0.4681
  142MOL   H12745529  -1.828   3.515   1.144  0.4614 -1.0161 -0.3965
  142MOL   H12845530  -1.895   3.730   1.153  0.5785 -2.2593 -0.6538
  142MOL   H12945531  -2.087   3.891   1.225  0.2715 -0.6152 -0.9997
  142MOL   C13045532  -1.772   3.464   1.340  0.1528 -0.1579 -0.4247
  142MOL   C13145533  -1.668   3.354   1.321  0.5612 -0.1246 -0.5195
  142MOL   C13245534  -1.535   3.386   1.281 -0.0070 -0.0373 -0.0080
  142MOL   C13345535  -1.440   3.279   1.278 -0.7732 -0.2989  0.7096
  142MOL   C13445536  -1.473   3.147   1.333 -0.2403 -0.4305  0.2780
  142MOL   C13545537  -1.360   3.051   1.365 -0.3464  0.0456  0.1141
  142MOL   C13645538  -1.600   3.115   1.371  0.2688 -0.1755  0.6539
  142MOL   C13745539  -1.700   3.222   1.363 -1.0956 -0.3004 -0.1685
  142MOL   H13845540  -1.826   3.439   1.431 -0.4486  0.3886 -0.6334
  142MOL   H13945541  -1.724   3.561   1.352  0.8684 -0.4901 -0.5587
  142MOL   H14045542  -1.511   3.490   1.262  0.1776  0.3600  2.2310
  142MOL   H14145543  -1.338   3.306   1.255 -1.1913  0.7082 -0.0476
  142MOL   H14245544  -1.388   2.958   1.315 -2.4381  0.7335 -0.0130
  142MOL   H14345545  -1.268   3.088   1.318 -0.2746  1.7479  1.5598
  142MOL   H14445546  -1.623   3.014   1.402  1.4527 -1.3428 -2.1241
  142MOL   H14545547  -1.800   3.197   1.394 -1.3093 -2.3058 -2.3382
  142MOL   C14645548  -1.356   3.030   1.517 -0.5301  0.1182 -0.0626
  142MOL   C14745549  -1.224   2.977   1.561  0.5573 -0.2679  0.3486
  142MOL   C14845550  -1.111   3.058   1.588  0.1440 -0.0002  0.1282
  142MOL   C14945551  -0.984   3.004   1.626  0.4521  0.9806  0.1686
  142MOL   C15045552  -0.977   2.867   1.651 -0.6911 -0.9352  0.2779
  142MOL   C15145553  -0.835   2.815   1.697 -0.1271  0.4296 -0.2649
  142MOL   C15245554  -1.082   2.784   1.618  0.7860  0.1848  0.0532
  142MOL   C15345555  -1.209   2.837   1.582  0.2293 -0.2693  0.1846
  142MOL   H15445556  -1.434   2.966   1.556  0.4157 -1.1136 -0.1599
  142MOL   H15545557  -1.361   3.121   1.577 -0.1904 -0.2129  0.4659
  142MOL   H15645558  -1.125   3.165   1.582  0.2833  0.0108 -0.0105
  142MOL   H15745559  -0.897   3.065   1.644  1.2942 -0.6613  1.8909
  142MOL   H15845560  -0.770   2.877   1.635  0.3936  0.3410  0.1958
  142MOL   H15945561  -0.817   2.844   1.800  1.6528  1.0756 -0.7390
  142MOL   H16045562  -1.068   2.680   1.643 -2.1667  0.1908  1.9883
  142MOL   H16145563  -1.296   2.773   1.580  1.5744 -2.1128 -0.7492
  142MOL   C16245564  -0.798   2.664   1.679 -0.6547 -0.5212 -0.6678
  142MOL   C16345565  -0.647   2.626   1.715 -0.5813 -0.0365 -0.1225
  142MOL   C16445566  -0.569   2.564   1.618 -0.0440  0.0008 -0.8775
  142MOL   C16545567  -0.445   2.516   1.647  0.2991 -0.1078 -0.0881
  142MOL   C16645568  -0.385   2.524   1.772  1.0364 -0.1867  0.2549
  142MOL   C16745569  -0.246   2.468   1.791  0.2148  0.5783  0.2508
  142MOL   C16845570  -0.462   2.586   1.873 -0.5876  0.2812  0.3760
  142MOL   C16945571  -0.591   2.639   1.843 -0.1459  0.4074 -0.1617
  142MOL   H17045572  -0.817   2.639   1.575 -1.8043 -0.5437 -0.4695
  142MOL   H17145573  -0.869   2.604   1.737  0.4614  1.9016  3.4351
  142MOL   H17245574  -0.620   2.535   1.527  0.6836  1.9875 -1.9642
  142MOL   H17345575  -0.402   2.470   1.559 -0.6623  0.0119 -0.6195
  142MOL   H17445576  -0.249   2.373   1.846  0.3703  0.0684 -0.6087
  142MOL   H17545577  -0.207   2.430   1.696  1.5159 -0.5628  1.2154
  142MOL   H17645578  -0.416   2.604   1.969  2.2991 -1.9742 -0.4907
  142MOL   H17745579  -0.656   2.685   1.915 -1.5241 -1.5222 -0.1694
  142MOL   C17845580  -0.145   2.565   1.854 -0.2141  0.3291 -0.7483
  142MOL   C17945581  -0.106   2.672   1.755  0.2832 -0.1413  0.8693
  142MOL   C18045582   0.008   2.647   1.668  0.7769 -0.5375 -0.2807
  142MOL   C18145583   0.036   2.730   1.559  0.3296  0.2035  0.0944
  142MOL   C18245584  -0.038   2.845   1.536 -0.4798 -0.1774  0.5878
  142MOL   C18345585   0.006   2.936   1.426 -0.0176  0.0994  0.8076
  142MOL   C18445586  -0.150   2.872   1.617  1.2290  0.2806  0.3581
  142MOL   C18545587  -0.178   2.790   1.729  0.2160  0.1898 -0.5730
  142MOL   H18645588  -0.051   2.513   1.875 -0.7365 -0.9908 -1.6401
  142MOL   H18745589  -0.171   2.605   1.952  1.2360  1.3551 -0.7543
  142MOL   H18845590   0.067   2.563   1.701  0.7491 -0.0404  1.0730
  142MOL   H18945591   0.134   2.715   1.515  0.5545  0.9701  0.3180
  142MOL   H19045592   0.026   2.897   1.326  2.2589 -0.1532  1.3238
  142MOL   H19145593  -0.072   3.007   1.398  0.5375  1.2832  2.2279
  142MOL   H19245594  -0.206   2.964   1.609  1.5691  0.2545 -3.2441
  142MOL   H19345595  -0.263   2.811   1.792 -0.2659 -1.5014 -0.6220
  142MOL   C19445596   0.127   3.026   1.455  0.2956 -0.2068  0.4324
  142MOL   C19545597   0.265   2.964   1.460  0.6961  0.0428 -0.9642
  142MOL   C19645598   0.302   2.892   1.345  0.1944  0.2415  0.2748
  142MOL   C19745599   0.426   2.831   1.344  0.1367  0.2824 -0.3253
  142MOL   C19845600   0.515   2.846   1.447 -0.5763 -0.1382 -0.1446
  142MOL   C19945601   0.647   2.768   1.434  0.4601  0.5853  0.5672
  142MOL   C20045602   0.480   2.917   1.560  0.8049 -0.7791  0.0732
  142MOL   C20145603   0.353   2.975   1.571 -0.4828  0.0541  0.1564
  142MOL   H20245604   0.107   3.094   1.537  0.9354 -0.4709  0.8050
  142MOL   H20345605   0.139   3.095   1.371  1.1813 -0.0330  0.6968
  142MOL   H20445606   0.235   2.874   1.262  0.3514  0.8027  0.0224
  142MOL   H20545607   0.459   2.781   1.254 -2.2170 -0.9264 -0.5616
  142MOL   H20645608   0.689   2.746   1.532  1.1068  0.1513  0.1960
  142MOL   H20745609   0.624   2.671   1.389 -0.0162  0.5469  0.8844
  142MOL   H20845610   0.546   2.917   1.646 -0.3629  0.1340  0.9758
  142MOL   H20945611   0.333   3.033   1.660  2.3060  1.5983 -0.1822
  142MOL   C21045612   0.744   2.842   1.340  0.4518 -0.8468  0.5704
  142MOL   C21145613   0.860   2.749   1.301  0.0689  0.3235  0.1569
  142MOL   C21245614   0.942   2.687   1.405 -0.3291  0.3218  0.0323
  142MOL   C21345615   1.049   2.603   1.362  0.2776 -0.6540 -0.2371
  142MOL   C21445616   1.089   2.593   1.227 -0.4069 -0.7171 -0.3791
  142MOL   C21545617   1.217   2.526   1.195  0.6398  0.1605 -0.2000
  142MOL   C21645618   1.007   2.654   1.132  0.2541  0.2633  0.5953
  142MOL   C21745619   0.900   2.734   1.170  0.6291  0.3034 -0.3910
  142MOL   H21845620   0.782   2.937   1.380 -0.7759 -0.0342 -0.1792
  142MOL   H21945621   0.696   2.864   1.245  0.5370 -0.8408  0.5284
  142MOL   H22045622   0.926   2.700   1.511 -0.5556 -0.6212  0.1191
  142MOL   H22145623   1.118   2.563   1.436  1.7559 -1.3033 -1.9263
  142MOL   H22245624   1.240   2.445   1.264 -1.5162 -1.4638 -1.3505
  142MOL   H22345625   1.198   2.481   1.098  0.0391  0.3444 -0.1706
  142MOL   H22445626   1.036   2.635   1.030  1.8673 -1.6817  1.3956
  142MOL   H22545627   0.855   2.786   1.087 -3.1735 -0.1532  1.2666
  142MOL   C22645628   1.337   2.619   1.181 -0.7693 -0.6580 -0.0578
  142MOL   C22745629   1.475   2.545   1.157  0.0707  0.2389  0.6666
  142MOL   C22845630   1.553   2.577   1.045  0.2830  0.5271  0.5387
  142MOL   C22945631   1.677   2.522   1.024  0.5930  0.2597 -0.2717
  142MOL   C23045632   1.722   2.421   1.110 -1.0983  0.2853 -0.6601
  142MOL   C23145633   1.849   2.345   1.070 -1.1154 -0.4237 -0.1786
  142MOL   C23245634   1.653   2.394   1.231  0.1608 -0.3881  0.6223
  142MOL   C23345635   1.528   2.450   1.247 -0.1415  0.2354  0.0465
  142MOL   H23445636   1.347   2.684   1.268  0.5225 -1.8102  0.6635
  142MOL   H23545637   1.310   2.685   1.098 -0.3557  1.0361  1.1446
  142MOL   H23645638   1.510   2.654   0.983  0.0581 -0.3100 -0.3695
  142MOL   H23745639   1.734   2.558   0.940 -0.6257 -0.4631 -1.4308
  142MOL   H23845640   1.838   2.240   1.098  1.7386 -0.6953  0.0715
  142MOL   H23945641   1.851   2.341   0.961 -0.0158 -0.6773 -0.1528
  142MOL   H24045642   1.701   2.329   1.302  1.2444  0.1955  0.4349
  142MOL   H24145643   1.478   2.439   1.342  0.7515  2.1076  0.7396
  142MOL   C24245644   1.981   2.405   1.123  0.0719  0.6984  0.1000
  142MOL   C24345645   2.105   2.319   1.089 -0.8917 -0.2012 -0.7497
  142MOL   C24445646   2.154   2.232   1.192 -0.5716  0.4024 -0.1895
  142MOL   C24545647   2.262   2.147   1.167  0.0452  0.4495  0.3191
  142MOL   C24645648   2.315   2.145   1.037  0.1058 -0.0160 -0.1352
  142MOL   C24745649   2.446   2.073   1.002  0.0355  0.8858  0.0042
  142MOL   C24845650   2.255   2.221   0.932 -0.4779 -0.4517 -0.6513
  142MOL   C24945651   2.157   2.311   0.956 -0.0618 -0.0925 -0.0987
  142MOL   H25045652   2.005   2.505   1.085  3.8630  0.1571  0.8817
  142MOL   H25145653   1.971   2.424   1.230 -0.6877  1.7218 -0.1438
  142MOL   H25245654   2.106   2.233   1.288 -0.5495 -3.8882  0.0030
  142MOL   H25345655   2.308   2.088   1.245 -1.7881  0.6576  1.5769
  142MOL   H25445656   2.431   1.969   1.031 -1.2840  1.3474  1.0075
  142MOL   H25545657   2.455   2.064   0.894 -2.1447 -1.2853 -0.0477
  142MOL   H25645658   2.304   2.226   0.836 -2.7536  3.3303 -1.7252
  142MOL   H25745659   2.106   2.366   0.878  0.4501  2.3312  1.2388
  142MOL   C25845660   2.574   2.137   1.064  0.1898  0.1484 -0.2129
  142MOL   C25945661   2.699   2.060   1.030 -0.3843  0.2120  0.6426
  142MOL   C26045662   2.758   1.982   1.129  0.6523  0.2484 -0.2629
  142MOL   C26145663   2.871   1.904   1.105 -0.5718 -0.1148 -0.1446
  142MOL   C26245664   2.930   1.907   0.977 -0.2055 -0.1235  0.1078
  142MOL   C26345665   3.053   1.830   0.937  0.2955 -0.2339  0.3087
  142MOL   C26445666   2.875   1.989   0.879  0.1421  0.3435  0.1806
  142MOL   C26545667   2.757   2.066   0.900 -0.0363  0.2434 -0.6798
  142MOL   H26645668   2.563   2.153   1.171  0.2071 -1.6195  0.0526
  142MOL   H26745669   2.587   2.238   1.023  0.2424 -0.0921 -0.7882
  142MOL   H26845670   2.718   1.971   1.229  2.4088 -1.5496  0.2560
  142MOL   H26945671   2.906   1.837   1.182  0.1181  0.7841  0.3372
  142MOL   H27045672   3.054   1.729   0.977  2.8401 -0.0190  0.9216
  142MOL   H27145673   3.047   1.809   0.831 -1.3728  0.0967  0.3335
  142MOL   H27245674   2.925   1.994   0.783  1.7654  1.0565  1.0342
  142MOL   H27345675   2.706   2.119   0.821 -0.7560  0.7112  0.0843
  142MOL   C27445676   3.179   1.909   0.985 -0.0089 -0.3749 -0.1340
  142MOL   C27545677   3.305   1.820   0.954  0.7435 -0.2063 -0.6491
  142MOL   C27645678   3.369   1.819   0.827  0.4883  0.3519  0.2502
  142MOL   C27745679   3.484   1.749   0.803  0.2596  0.4171  0.4280
  142MOL   C27845680   3.528   1.662   0.901 -0.1597 -0.4246 -0.0485
  142MOL   C27945681   3.649   1.573   0.866  0.6677  0.2677  0.1377
  142MOL   C28045682   3.463   1.653   1.026  0.5001  0.4030  0.3789
  142MOL   C28145683   3.351   1.732   1.053 -0.2035 -0.1388  0.0979
  142MOL   H28245684   3.197   2.003   0.934 -1.9870  1.0157  1.6619
  142MOL   H28345685   3.174   1.939   1.090 -1.8392 -0.1080 -0.2741
  142MOL   H28445686   3.339   1.884   0.746 -1.4524 -0.8403 -0.0361
  142MOL   H28545687   3.550   1.754   0.718  0.7117  0.9176  0.8041
  142MOL   H28645688   3.652   1.481   0.924 -1.3512  0.4264  0.5292
  142MOL   H28745689   3.647   1.540   0.762  1.0272  2.2976 -0.5467
  142MOL   H28845690   3.496   1.590   1.107 -0.6640 -2.4543 -1.2887
  142MOL   H28945691   3.311   1.729   1.153  2.4307 -0.6783  1.1790
  142MOL   C29045692   3.789   1.647   0.889 -0.2841 -0.4726 -0.3459
  142MOL   C29145693   3.903   1.557   0.859  0.2650  0.0051  0.0052
  142MOL   C29245694   3.955   1.471   0.954 -0.0784  0.6538 -0.4317
  142MOL   C29345695   4.065   1.395   0.923  0.1511 -0.4115 -0.1336
  142MOL   C29445696   4.113   1.400   0.788 -0.4742  0.3536 -0.3070
  142MOL   C29545697   4.231   1.314   0.747  0.3280  0.1285  0.3243
  142MOL   C29645698   4.058   1.480   0.694 -0.0592 -1.0017 -0.3862
  142MOL   C29745699   3.951   1.558   0.727 -0.3129  0.4479 -0.8028
  142MOL   H29845700   3.798   1.677   0.993  1.1824  0.3321 -0.6924
  142MOL   H29945701   3.808   1.731   0.822 -1.6157 -1.3609 -1.8569
  142MOL   H30045702   3.916   1.470   1.055  1.6425 -0.2700  0.2548
  142MOL   H30145703   4.109   1.329   0.997  0.2340  0.2890  0.4465
  142MOL   H30245704   4.207   1.211   0.774  1.3429 -0.7226 -1.9606
  142MOL   H30345705   4.226   1.313   0.638 -1.0245 -0.6275  0.3833
  142MOL   H30445706   4.095   1.471   0.593  1.6970  1.1821  0.0373
  142MOL   H30545707   3.914   1.623   0.649  1.0153  1.9301 -0.2460
  142MOL   C30645708   4.369   1.366   0.785  0.0902 -0.1768  0.7506
  142MOL   C30745709   4.481   1.282   0.727  0.9186  0.1469  0.4230
  142MOL   C30845710   4.563   1.201   0.801 -0.5251  0.2353  0.7091
  142MOL   C30945711   4.678   1.140   0.749  0.2758  0.9219  0.1519
  142MOL   C31045712   4.715   1.157   0.618  0.4827 -0.4679 -0.1001
  142MOL   C31145713   4.833   1.084   0.568 -0.0362 -0.6288 -0.1296
  142MOL   C31245714   4.630   1.236   0.537 -0.3239 -0.7670 -1.2008
  142MOL   C31345715   4.516   1.302   0.590  0.2114  0.5047  0.5344
  142MOL   H31445716   4.392   1.367   0.891 -1.0701 -0.6696  1.0157
  142MOL   H31545717   4.382   1.465   0.741  0.8142 -1.9286 -3.2280
  142MOL   H31645718   4.542   1.187   0.906  0.6469 -0.4855  0.8440
  142MOL   H31745719   4.735   1.075   0.813 -1.4010 -2.4209 -1.6028
  142MOL   H31845720   4.807   1.010   0.493  2.0538  0.4681 -2.0204
  142MOL   H31945721   4.903   1.153   0.520  0.7965 -1.0739  0.4475
  142MOL   H32045722   4.653   1.255   0.433  0.0236  1.1695 -0.7828
  142MOL   H32145723   4.466   1.373   0.526  0.2374 -0.5021 -0.6236
  142MOL   H32245724   4.889   1.028   0.642  1.3525  3.0705  1.7503
  143MOL     C145725   1.656   2.717   7.428 -1.2051  0.0672  0.0811
  143MOL     C245726   1.513   2.733   7.471 -0.0630  0.5340 -0.4032
  143MOL     C345727   1.452   2.855   7.439 -0.3293  0.5369  0.0494
  143MOL     C445728   1.322   2.880   7.495 -0.3085  0.0466 -0.3709
  143MOL     C545729   1.257   2.793   7.582  0.3172 -1.3853  0.4622
  143MOL     C645730   1.128   2.829   7.653  1.1160 -0.2687  0.0734
  143MOL     C745731   1.316   2.668   7.600 -0.5131 -0.6941 -0.4811
  143MOL     C845732   1.445   2.636   7.551 -0.2835 -0.0325 -0.4161
  143MOL     H945733   1.667   2.745   7.323 -0.1543 -2.5580 -0.5656
  143MOL    H1045734   1.718   2.779   7.493 -0.4497 -2.7512  2.1419
  143MOL    H1145735   1.503   2.918   7.367  0.2325 -1.0201 -0.9380
  143MOL    H1245736   1.265   2.964   7.460 -1.5114 -0.3554  0.5822
  143MOL    H1345737   1.117   2.767   7.741  0.1091 -0.8447 -0.4463
  143MOL    H1445738   1.132   2.931   7.691 -2.2906 -1.6482  4.4984
  143MOL    H1545739   1.272   2.600   7.672 -1.1004  0.0154 -0.1543
  143MOL    H1645740   1.481   2.536   7.574 -0.0631  0.0048 -0.5938
  143MOL    H1745741   1.698   2.616   7.430  1.8717  1.2761 -0.5534
  143MOL    C1845742   1.014   2.824   7.553 -0.2420 -0.3674 -0.5560
  143MOL    C1945743   0.881   2.869   7.619 -0.7036 -0.5099 -0.4524
  143MOL    C2045744   0.820   2.784   7.709  0.2431  0.0231  0.0639
  143MOL    C2145745   0.696   2.819   7.769 -0.9898  0.3065  0.5936
  143MOL    C2245746   0.642   2.948   7.741  0.6139  0.6344  0.1818
  143MOL    C2345747   0.506   2.984   7.812 -0.1431  0.6586  0.7134
  143MOL    C2445748   0.711   3.034   7.657 -0.1883 -0.9194 -0.0494
  143MOL    C2545749   0.833   2.999   7.596  0.3542  0.6832  0.1007
  143MOL    H2645750   1.045   2.884   7.467  1.0397 -1.4285 -0.8479
  143MOL    H2745751   1.010   2.725   7.508 -1.5194  0.5496 -2.5216
  143MOL    H2845752   0.874   2.691   7.723 -2.0427 -1.2549  0.5910
  143MOL    H2945753   0.653   2.746   7.836  1.7155 -3.6924 -1.8269
  143MOL    H3045754   0.511   3.071   7.877  3.3959  0.0151  1.3968
  143MOL    H3145755   0.484   2.893   7.869 -0.6519  0.0226 -0.4690
  143MOL    H3245756   0.677   3.135   7.640  2.2410 -0.1863 -0.7468
  143MOL    H3345757   0.873   3.061   7.517  1.1117  0.2496  0.1425
  143MOL    C3445758   0.392   3.022   7.719  0.2409 -0.3524  0.2058
  143MOL    C3545759   0.263   3.067   7.781 -0.1718  0.3245 -0.1656
  143MOL    C3645760   0.203   3.192   7.757 -0.7224  0.0376 -0.8570
  143MOL    C3745761   0.091   3.228   7.826 -0.4679  0.2673  0.0775
  143MOL    C3845762   0.027   3.144   7.920 -0.0396  0.4323  0.3730
  143MOL    C3945763  -0.105   3.194   7.981 -0.3397  0.3689 -0.0416
  143MOL    C4045764   0.079   3.020   7.944 -0.3006  0.3365 -0.1155
  143MOL    C4145765   0.194   2.981   7.872 -0.0568  0.1468  0.1230
  143MOL    H4245766   0.373   2.936   7.655  1.7172  1.6231 -3.0519
  143MOL    H4345767   0.426   3.102   7.653  2.2772 -1.9141 -0.7045
  143MOL    H4445768   0.255   3.259   7.690  1.2500  0.2624  0.8540
  143MOL    H4545769   0.048   3.326   7.810  0.3081  0.4051 -1.2446
  143MOL    H4645770  -0.111   3.159   8.084 -2.3924  0.3470 -0.1412
  143MOL    H4745771  -0.102   3.303   7.981  0.5754  0.3866  2.7452
  143MOL    H4845772   0.020   2.951   8.004 -0.7642  0.7648 -0.0773
  143MOL    H4945773   0.228   2.879   7.885 -1.0324 -0.6366 -3.0200
  143MOL    C5045774  -0.232   3.142   7.911 -0.3657  1.1660 -0.0887
  143MOL    C5145775  -0.360   3.201   7.959 -0.0837 -0.4629 -0.4257
  143MOL    C5245776  -0.407   3.316   7.901 -0.4665  0.0480 -0.1515
  143MOL    C5345777  -0.528   3.376   7.949  0.2397 -0.8456  0.2325
  143MOL    C5445778  -0.603   3.324   8.059  0.4655  0.0119  0.4039
  143MOL    C5545779  -0.729   3.398   8.114 -0.0970 -0.0328 -0.1886
  143MOL    C5645780  -0.549   3.206   8.122  0.1842  0.0909 -0.6484
  143MOL    C5745781  -0.431   3.143   8.070 -0.1572  0.4908  0.9001
  143MOL    H5845782  -0.256   3.036   7.910  2.1440  0.5485 -0.3720
  143MOL    H5945783  -0.224   3.156   7.803  2.0444 -2.1977 -0.4342
  143MOL    H6045784  -0.361   3.358   7.813  2.8411 -0.1579  1.4251
  143MOL    H6145785  -0.569   3.468   7.910 -0.4099 -0.5022  1.7180
  143MOL    H6245786  -0.734   3.398   8.223  1.3745 -0.5937 -0.1046
  143MOL    H6345787  -0.723   3.499   8.073  1.3416  0.6273  1.5946
  143MOL    H6445788  -0.602   3.164   8.206  2.4839 -1.1442  0.2582
  143MOL    H6545789  -0.395   3.053   8.118 -0.5943  0.6054  1.4510
  143MOL    C6645790  -0.856   3.329   8.079 -0.4258  0.0697  0.2783
  143MOL    C6745791  -0.978   3.393   8.142  0.0985 -0.1750 -0.0304
  143MOL    C6845792  -1.041   3.333   8.254  0.0409 -0.0550 -0.6583
  143MOL    C6945793  -1.157   3.394   8.302 -0.1105 -0.4933 -0.3932
  143MOL    C7045794  -1.219   3.503   8.238  0.2039  1.2290 -0.5087
  143MOL    C7145795  -1.345   3.565   8.295  0.0139 -0.2113  0.3299
  143MOL    C7245796  -1.161   3.558   8.129 -0.0390 -0.2136  1.2147
  143MOL    C7345797  -1.044   3.498   8.077 -0.6564 -0.3898  0.3229
  143MOL    H7445798  -0.848   3.228   8.119 -1.4821 -0.5286 -0.9688
  143MOL    H7545799  -0.859   3.326   7.970 -1.9690 -2.9268  0.3622
  143MOL    H7645800  -1.007   3.245   8.306  0.6210 -1.1357 -2.8299
  143MOL    H7745801  -1.214   3.349   8.382 -0.3536 -1.0208 -0.8639
  143MOL    H7845802  -1.328   3.672   8.303 -1.7148  0.1449 -0.6726
  143MOL    H7945803  -1.358   3.533   8.399 -1.2141  0.1657  0.3049
  143MOL    H8045804  -1.210   3.639   8.076  0.4697 -1.7448 -1.7263
  143MOL    H8145805  -1.001   3.543   7.989 -2.1824 -0.5974 -0.5365
  143MOL    C8245806  -1.476   3.533   8.219 -0.1278 -0.0428  0.5940
  143MOL    C8345807  -1.596   3.592   8.302  0.0609 -0.2027 -0.1194
  143MOL    C8445808  -1.675   3.694   8.243  0.2761 -0.5443  0.0604
  143MOL    C8545809  -1.794   3.738   8.309  0.0580 -0.1837  0.0229
  143MOL    C8645810  -1.830   3.688   8.438  0.1060  0.3789  0.0355
  143MOL    C8745811  -1.955   3.736   8.510 -0.5151 -0.7200 -0.0229
  143MOL    C8845812  -1.750   3.577   8.488  0.0209 -0.7245  0.5643
  143MOL    C8945813  -1.636   3.532   8.425 -0.1593  0.2599  0.5159
  143MOL    H9045814  -1.489   3.425   8.214 -0.5467 -0.0508  1.8918
  143MOL    H9145815  -1.470   3.578   8.120 -0.7226 -2.4273 -0.5760
  143MOL    H9245816  -1.642   3.738   8.150 -1.4050  0.7947  0.0670
  143MOL    H9345817  -1.856   3.815   8.266 -0.5150 -0.5558  0.1743
  143MOL    H9445818  -1.992   3.822   8.453  1.7458  0.1471 -0.2397
  143MOL    H9545819  -1.934   3.760   8.614  0.7630  1.3433 -0.7201
  143MOL    H9645820  -1.784   3.533   8.580  1.9912 -0.5780  1.3718
  143MOL    H9745821  -1.577   3.457   8.475 -0.8536 -0.8602 -0.2912
  143MOL    C9845822  -2.074   3.632   8.515  0.3201  0.7402  0.3960
  143MOL    C9945823  -2.179   3.666   8.607  0.3079  0.0633 -0.1856
  143MOL   C10045824  -2.147   3.662   8.741 -0.4355 -0.4409  0.0865
  143MOL   C10145825  -2.235   3.704   8.838 -0.1061  0.4250  0.4935
  143MOL   C10245826  -2.363   3.743   8.797 -0.4168  0.3860  0.0202
  143MOL   C10345827  -2.467   3.771   8.905  0.4791  0.1165 -0.7524
  143MOL   C10445828  -2.405   3.743   8.660  0.3098  0.2181 -0.3308
  143MOL   C10545829  -2.306   3.702   8.562 -0.0627  0.3797 -0.3993
  143MOL   H10645830  -2.036   3.533   8.543 -0.4337  0.2248 -0.3735
  143MOL   H10745831  -2.114   3.621   8.414  0.2310 -1.0452  0.6062
  143MOL   H10845832  -2.046   3.639   8.771 -0.5530 -2.1711 -0.7542
  143MOL   H10945833  -2.210   3.697   8.943  0.9411 -1.7516  0.1231
  143MOL   H11045834  -2.566   3.738   8.873  0.1149 -0.9836  1.4182
  143MOL   H11145835  -2.440   3.711   8.992  0.4158 -0.0753 -0.8652
  143MOL   H11245836  -2.506   3.764   8.629  0.0142 -1.8739 -0.8602
  143MOL   H11345837  -2.332   3.707   8.457  2.1070  0.8877 -0.9352
  143MOL   C11445838  -2.488   3.914   8.937 -0.2635 -0.4349 -0.1301
  143MOL   C11545839  -2.599   3.945   9.043  0.1403  0.2364  0.4343
  143MOL   C11645840  -2.558   4.004   9.161 -0.3800 -0.0234 -0.1070
  143MOL   C11745841  -2.657   4.042   9.257  0.1216 -0.2620  0.1409
  143MOL   C11845842  -2.796   4.021   9.224  0.4206 -0.4671  0.3106
  143MOL   C11945843  -2.897   4.076   9.322  0.9492  0.0953  0.2607
  143MOL   C12045844  -2.835   3.951   9.104 -0.3616 -0.4704 -0.2349
  143MOL   C12145845  -2.735   3.917   9.013 -0.0131  0.2348 -0.2226
  143MOL   H12245846  -2.519   3.977   8.854  0.8671  1.0218  0.5346
  143MOL   H12345847  -2.390   3.951   8.968 -1.4483  1.8289  1.0160
  143MOL   H12445848  -2.455   4.007   9.193 -0.4418 -2.1162  0.4049
  143MOL   H12545849  -2.634   4.074   9.357  3.8342 -0.4506 -0.5881
  143MOL   H12645850  -2.859   4.166   9.371 -0.9061  1.3416 -0.4971
  143MOL   H12745851  -2.983   4.112   9.265  1.4708 -0.5016 -0.9018
  143MOL   H12845852  -2.940   3.940   9.083 -0.6247 -0.2535  0.9283
  143MOL   H12945853  -2.755   3.858   8.925 -0.3019 -1.5089  0.9995
  143MOL   C13045854  -2.936   3.986   9.438  0.3007  0.4033 -1.4010
  143MOL   C13145855  -2.825   3.948   9.534 -0.9790 -0.4371  0.4955
  143MOL   C13245856  -2.775   4.035   9.634 -0.1241  0.0830  0.2866
  143MOL   C13345857  -2.670   4.000   9.722  0.2747 -0.1549  0.2122
  143MOL   C13445858  -2.604   3.870   9.704 -0.0643 -0.4354 -0.2161
  143MOL   C13545859  -2.486   3.822   9.800  0.0932 -0.1082 -0.1145
  143MOL   C13645860  -2.651   3.786   9.603  0.3811 -0.9523 -0.3654
  143MOL   C13745861  -2.762   3.824   9.523  0.4255 -0.0077 -0.2690
  143MOL   H13845862  -2.983   3.896   9.398  1.1950 -0.1198 -1.2869
  143MOL   H13945863  -3.017   4.030   9.496  0.1296 -1.2640 -0.3510
  143MOL   H14045864  -2.812   4.134   9.654  0.2072  0.4633 -0.9000
  143MOL   H14145865  -2.643   4.064   9.805 -0.3298  1.9979 -1.1946
  143MOL   H14245866  -2.490   3.714   9.817  1.0693 -0.2275 -0.6721
  143MOL   H14345867  -2.393   3.829   9.744 -0.5072  0.6597 -1.0189
  143MOL   H14445868  -2.600   3.690   9.596  2.0692 -0.1213  0.3180
  143MOL   H14545869  -2.791   3.745   9.456  2.2117  0.2851 -1.4209
  143MOL   C14645870  -2.465   3.889   9.943 -0.2898  0.2174  0.0549
  143MOL   C14745871  -2.332   3.837   9.992 -0.0739 -0.3120  0.4709
  143MOL   C14845872  -2.320   3.772  10.115  0.2454  0.5047 -0.1807
  143MOL   C14945873  -2.198   3.719  10.159 -0.2068 -0.1265  0.4859
  143MOL   C15045874  -2.077   3.741  10.088  0.1100 -0.2924 -0.1117
  143MOL   C15145875  -1.945   3.679  10.129  0.0036 -0.6175  0.2047
  143MOL   C15245876  -2.087   3.829   9.974 -0.5023 -0.1470 -1.0967
  143MOL   C15345877  -2.212   3.874   9.929 -0.2790  0.8128  0.0844
  143MOL   H15445878  -2.551   3.874  10.008 -0.6712 -0.4630 -0.5931
  143MOL   H15545879  -2.449   3.996   9.934  3.1214 -0.3346 -1.3946
  143MOL   H15645880  -2.405   3.758  10.180 -0.0415  0.6595 -0.5207
  143MOL   H15745881  -2.189   3.654  10.245 -1.2404 -0.6842  0.1929
  143MOL   H15845882  -1.885   3.754  10.181  1.4102 -0.5468 -1.4707
  143MOL   H15945883  -1.960   3.610  10.213 -1.5261 -1.6673 -0.8965
  143MOL   H16045884  -1.995   3.852   9.922 -0.5683  0.3736 -0.9943
  143MOL   H16145885  -2.211   3.933   9.838  0.1733 -0.4754 -0.7651
  143MOL   C16245886  -1.879   3.605  10.020  0.0319  0.8747  0.9424
  143MOL   C16345887  -1.750   3.534  10.058 -0.6110 -0.5630  0.3132
  143MOL   C16445888  -1.626   3.574  10.005  0.1232  0.0508  0.2190
  143MOL   C16545889  -1.506   3.504  10.037  1.0252  0.6503 -0.0947
  143MOL   C16645890  -1.507   3.408  10.140  0.2229  0.5002 -0.0134
  143MOL   C16745891  -1.374   3.348  10.177  0.3839 -0.0803  0.0189
  143MOL   C16845892  -1.628   3.377  10.204 -0.0904  0.0080 -0.0213
  143MOL   C16945893  -1.748   3.435  10.161  0.3785 -0.5696  0.0482
  143MOL   H17045894  -1.871   3.678   9.939 -2.3389  0.5615  0.3817
  143MOL   H17145895  -1.938   3.520   9.985  1.4751  0.3438 -0.2280
  143MOL   H17245896  -1.627   3.653   9.932 -0.0575  0.4940  0.6970
  143MOL   H17345897  -1.413   3.536   9.992 -0.2029  0.9440 -2.5281
  143MOL   H17445898  -1.359   3.251  10.130 -0.2480 -0.5988  0.8712
  143MOL   H17545899  -1.299   3.422  10.151 -0.2381  0.9189  1.0236
  143MOL   H17645900  -1.621   3.316  10.293  0.9101  0.3974  0.1760
  143MOL   H17745901  -1.840   3.407  10.211  0.9396 -0.5347  1.1277
  143MOL   C17845902  -1.366   3.316  10.329  0.1560  0.1564  0.5217
  143MOL   C17945903  -1.232   3.264  10.365  0.4505 -0.5014  0.2387
  143MOL   C18045904  -1.123   3.341  10.341 -0.0162  0.0316 -0.3565
  143MOL   C18145905  -0.992   3.296  10.366 -0.3253 -0.1495  0.2215
  143MOL   C18245906  -0.974   3.164  10.404  0.2773  0.1485 -0.3547
  143MOL   C18345907  -0.831   3.115  10.428  0.0416  0.2368 -0.5624
  143MOL   C18445908  -1.084   3.080  10.417  0.0001  0.4274 -0.0087
  143MOL   C18545909  -1.213   3.139  10.413  0.0488 -0.3655 -0.1230
  143MOL   H18645910  -1.433   3.234  10.355  1.4302 -0.3533  2.2793
  143MOL   H18745911  -1.389   3.409  10.381 -0.2182  0.5342 -0.3041
  143MOL   H18845912  -1.130   3.445  10.314  0.5734 -0.1138 -1.1003
  143MOL   H18945913  -0.912   3.366  10.344 -1.4700  1.0485 -0.1678
  143MOL   H19045914  -0.815   3.021  10.375 -0.1506 -1.3229  2.1003
  143MOL   H19145915  -0.770   3.191  10.380 -1.9660  2.0052 -0.4026
  143MOL   H19245916  -1.067   2.980  10.455 -1.4268  0.4989  0.8535
  143MOL   H19345917  -1.301   3.080  10.434 -0.6929  0.8051  0.0973
  143MOL   C19445918  -0.797   3.088  10.575  0.0157  0.7823 -0.0609
  143MOL   C19545919  -0.659   3.031  10.589 -0.3092 -0.2537 -0.0281
  143MOL   C19645920  -0.636   2.899  10.620 -0.4283 -1.2594 -0.2377
  143MOL   C19745921  -0.513   2.846  10.638  0.4002  0.5790  0.3195
  143MOL   C19845922  -0.400   2.930  10.628  0.2169 -0.0138  0.4091
  143MOL   C19945923  -0.256   2.878  10.646  0.7527  0.6745  0.3618
  143MOL   C20045924  -0.419   3.062  10.589 -0.1070 -0.1116  0.7807
  143MOL   C20145925  -0.548   3.110  10.569  0.2223  0.4313  0.2203
  143MOL   H20245926  -0.871   3.014  10.606  0.4653 -0.1562 -1.1593
  143MOL   H20345927  -0.809   3.175  10.640 -1.0109  0.7362 -0.1744
  143MOL   H20445928  -0.727   2.841  10.614 -1.8821  0.9010  0.2231
  143MOL   H20545929  -0.506   2.740  10.656 -0.4326  0.5389  0.4436
  143MOL   H20645930  -0.262   2.769  10.636  0.9872  0.5525  1.5715
  143MOL   H20745931  -0.185   2.924  10.578 -0.6975  0.5213 -1.2989
  143MOL   H20845932  -0.338   3.126  10.556 -0.1194  0.4098  1.7491
  143MOL   H20945933  -0.576   3.212  10.549 -1.7776 -0.0445  0.4412
  143MOL   C21045934  -0.203   2.915  10.777 -0.0445  0.2812 -0.0482
  143MOL   C21145935  -0.060   2.889  10.801 -0.1000  0.2921  0.2047
  143MOL   C21245936  -0.019   2.767  10.858 -0.7422  0.6020 -0.4438
  143MOL   C21345937   0.111   2.738  10.883  0.4116 -0.6373 -0.1049
  143MOL   C21445938   0.208   2.834  10.849  0.1409 -0.2304  0.1028
  143MOL   C21545939   0.353   2.814  10.887  0.0710  0.0761  0.9524
  143MOL   C21645940   0.172   2.958  10.786  0.1075 -0.2849  0.3748
  143MOL   C21745941   0.039   2.988  10.759 -0.1494  0.1568 -0.0458
  143MOL   H21845942  -0.271   2.868  10.848  1.3319 -0.6316  0.6845
  143MOL   H21945943  -0.238   3.012  10.811  2.9134  1.1369  0.7252
  143MOL   H22045944  -0.091   2.691  10.885  0.2200  0.1068  0.7605
  143MOL   H22145945   0.129   2.650  10.943  0.3785 -1.7440 -1.6890
  143MOL   H22245946   0.364   2.857  10.986 -0.0344 -0.2893  1.1233
  143MOL   H22345947   0.383   2.712  10.911  1.9095  0.5379  0.7066
  143MOL   H22445948   0.242   3.031  10.748 -0.2785  0.8980  1.8869
  143MOL   H22545949   0.004   3.081  10.715 -0.1733  0.5562  0.8005
  143MOL   C22645950   0.457   2.869  10.789 -1.0684 -0.0698 -0.2040
  143MOL   C22745951   0.602   2.834  10.832 -0.6883 -0.6115  0.4362
  143MOL   C22845952   0.680   2.742  10.754 -0.0235  0.5997  0.3170
  143MOL   C22945953   0.807   2.704  10.808 -0.0912 -0.4193  0.7412
  143MOL   C23045954   0.860   2.762  10.922 -0.1226  0.3264 -1.0626
  143MOL   C23145955   0.989   2.717  10.988 -0.1838  0.4501  0.7482
  143MOL   C23245956   0.783   2.855  10.997  0.1759  0.2336 -0.6158
  143MOL   C23345957   0.653   2.885  10.955  0.0170  0.4270  0.5165
  143MOL   H23445958   0.460   2.975  10.764 -0.9620 -0.0997 -0.3180
  143MOL   H23545959   0.443   2.824  10.691  2.2550 -1.3074 -0.1630
  143MOL   H23645960   0.643   2.690  10.666  0.2643  1.5181 -0.3512
  143MOL   H23745961   0.858   2.620  10.764 -1.1013 -1.0632  0.7945
  143MOL   H23845962   0.997   2.722  11.097  0.0445  1.1771  0.6954
  143MOL   H23945963   0.977   2.610  10.966  2.1122  0.3223 -0.0648
  143MOL   H24045964   0.810   2.895  11.093  0.8617  0.7188 -1.0074
  143MOL   H24145965   0.588   2.946  11.016  0.4747  1.6638 -0.2388
  143MOL   C24245966   1.107   2.759  10.909  0.6325 -0.7048 -0.0155
  143MOL   C24345967   1.228   2.674  10.923 -0.3883 -0.0121  0.1426
  143MOL   C24445968   1.292   2.619  10.810  0.3104 -0.5823  0.3292
  143MOL   C24545969   1.422   2.568  10.832 -0.0437  0.8009 -0.3217
  143MOL   C24645970   1.476   2.549  10.959  0.3858  0.4393  0.5753
  143MOL   C24745971   1.606   2.471  10.973 -0.5999 -0.1113 -0.5865
  143MOL   C24845972   1.406   2.590  11.073  0.1359  0.7772  0.2292
  143MOL   C24945973   1.278   2.650  11.056 -0.3716 -0.0822  0.0916
  143MOL   H25045974   1.097   2.760  10.800  2.5626 -0.3253 -0.2082
  143MOL   H25145975   1.129   2.860  10.941 -2.2957  0.1801 -0.6100
  143MOL   H25245976   1.257   2.621  10.708  0.0893  1.2075  0.4311
  143MOL   H25345977   1.494   2.538  10.758  1.1085  1.2983  0.5914
  143MOL   H25445978   1.615   2.435  11.076 -0.6424 -0.6495 -0.7719
  143MOL   H25545979   1.594   2.383  10.911  0.3746 -0.0892 -0.8128
  143MOL   H25645980   1.449   2.598  11.171 -3.0277 -2.8866  2.0739
  143MOL   H25745981   1.231   2.694  11.142 -1.5090 -1.0045 -0.0510
  143MOL   C25845982   1.734   2.543  10.935 -0.2141 -0.2953 -0.7717
  143MOL   C25945983   1.866   2.471  10.977 -0.0129  0.1825 -1.0474
  143MOL   C26045984   1.956   2.431  10.875 -0.5564  0.0939 -0.8026
  143MOL   C26145985   2.083   2.378  10.917  0.2913  0.0810 -0.5548
  143MOL   C26245986   2.106   2.348  11.058 -0.3539  0.5610 -0.1232
  143MOL   C26345987   2.244   2.305  11.109 -0.3983  0.3404  0.0578
  143MOL   C26445988   2.011   2.375  11.151 -0.1675  0.6112 -0.4327
  143MOL   C26545989   1.890   2.440  11.113  0.7613  0.8947 -0.6246
  143MOL   H26645990   1.735   2.637  10.990  0.1237 -0.0991 -1.1080
  143MOL   H26745991   1.737   2.568  10.829 -1.2420 -1.4855 -1.0935
  143MOL   H26845992   1.935   2.449  10.771 -0.2070  1.1430 -0.7016
  143MOL   H26945993   2.157   2.342  10.848 -1.3754 -1.0807 -1.7931
  143MOL   H27045994   2.302   2.350  11.029 -2.1964 -0.5044 -1.7634
  143MOL   H27145995   2.256   2.366  11.199  2.0619  1.4395 -0.9579
  143MOL   H27245996   2.030   2.352  11.254 -0.5862 -2.4606 -0.9812
  143MOL   H27345997   1.812   2.473  11.180  1.1514 -0.6055  0.6068
  143MOL   C27445998   2.254   2.159  11.132 -0.2056 -0.1274 -1.2346
  143MOL   C27545999   2.389   2.113  11.186  1.0783  0.1834  0.1453
  143MOL   C27646000   2.502   2.163  11.123  0.1834 -0.4468  0.0731
  143MOL   C27746001   2.633   2.114  11.152 -0.6225  0.1387 -0.8133
  143MOL   C27846002   2.647   2.010  11.245 -0.3324 -0.7628  0.3209
  143MOL   C27946003   2.782   1.959  11.283  0.7530  0.3042 -0.2175
  143MOL   C28046004   2.536   1.961  11.311 -0.4178 -0.0653 -0.4196
  143MOL   C28146005   2.407   2.007  11.285 -0.2479  0.2624 -0.2925
  143MOL   H28246006   2.176   2.119  11.197 -1.0730 -2.0221 -3.3252
  143MOL   H28346007   2.236   2.103  11.040 -2.9277 -0.2034 -0.6901
  143MOL   H28446008   2.488   2.234  11.042 -0.8892 -1.2892 -0.4881
  143MOL   H28546009   2.727   2.159  11.125 -0.5978 -0.1261 -1.1589
  143MOL   H28646010   2.855   2.026  11.237 -0.7386  0.9870 -1.6412
  143MOL   H28746011   2.783   1.957  11.392 -0.6612  0.2098 -0.1919
  143MOL   H28846012   2.547   1.877  11.378  0.4454  0.6418  0.3500
  143MOL   H28946013   2.327   1.963  11.344 -0.2649 -0.1186 -0.5936
  143MOL   C29046014   2.812   1.819  11.232  0.3693 -0.1193  0.0828
  143MOL   C29146015   2.956   1.773  11.250  0.1599 -0.1750  0.1222
  143MOL   C29246016   3.020   1.768  11.379 -0.2153  0.2158  1.1186
  143MOL   C29346017   3.147   1.711  11.388 -0.6614 -0.2646  0.1755
  143MOL   C29446018   3.216   1.659  11.275 -0.6332 -0.1854 -0.3492
  143MOL   C29546019   3.346   1.581  11.285 -0.1284 -0.5182 -0.5428
  143MOL   C29646020   3.155   1.675  11.148  0.0552 -0.1047 -0.2932
  143MOL   C29746021   3.028   1.735  11.137 -0.6446 -0.4168 -0.7163
  143MOL   H29846022   2.785   1.821  11.126  0.7283  0.9223  0.0037
  143MOL   H29946023   2.751   1.754  11.295 -0.1795  0.8805  0.5907
  143MOL   H30046024   2.977   1.807  11.470 -0.1044 -0.8344  1.6175
  143MOL   H30146025   3.203   1.697  11.479  1.1645 -1.3519 -1.0617
  143MOL   H30246026   3.362   1.608  11.390 -1.2077  1.3202 -0.8341
  143MOL   H30346027   3.325   1.475  11.279 -0.2462 -0.5269 -0.0604
  143MOL   H30446028   3.198   1.630  11.060  0.4154  1.0809 -0.7344
  143MOL   H30546029   2.978   1.743  11.042 -0.2851  0.2303 -0.8613
  143MOL   C30646030   3.459   1.632  11.202  0.4776  0.8621  0.4832
  143MOL   C30746031   3.585   1.577  11.251 -0.5550  0.4334  0.1991
  143MOL   C30846032   3.677   1.515  11.163 -0.4589  0.1259 -0.7438
  143MOL   C30946033   3.802   1.472  11.201 -0.0195  0.1024 -0.5409
  143MOL   C31046034   3.835   1.474  11.339  1.0599  0.2623 -0.1175
  143MOL   C31146035   3.975   1.436  11.382 -0.2408 -0.2477 -0.3023
  143MOL   C31246036   3.741   1.516  11.434 -0.2946 -0.7753 -0.6186
  143MOL   C31346037   3.622   1.578  11.389 -0.5097  0.5503 -0.1311
  143MOL   H31446038   3.462   1.741  11.209  1.6516  0.9561 -1.3408
  143MOL   H31546039   3.441   1.614  11.096 -0.3066 -0.3446  0.8159
  143MOL   H31646040   3.652   1.519  11.058  2.7119  2.2399 -1.5042
  143MOL   H31746041   3.872   1.457  11.119  1.1341 -1.3043  0.6556
  143MOL   H31846042   4.033   1.416  11.292  1.2741  1.7291  0.1816
  143MOL   H31946043   4.031   1.518  11.429 -0.5197 -0.6960  0.8272
  143MOL   H32046044   3.773   1.524  11.537  0.2487 -0.2971 -0.8182
  143MOL   H32146045   3.561   1.640  11.453  0.7905  1.1523  0.5490
  143MOL   H32246046   3.984   1.350  11.448 -1.0806  0.4491  0.7388
  144MOL     C146047   3.708   2.008   6.763  0.7944 -0.0677 -0.0108
  144MOL     C246048   3.560   2.043   6.758 -0.2661  0.9399 -0.4787
  144MOL     C346049   3.472   1.997   6.862 -0.1479 -0.1642  0.2664
  144MOL     C446050   3.339   2.035   6.853  0.3827 -0.0578  0.5574
  144MOL     C546051   3.294   2.113   6.744 -0.1371  0.5678  0.1397
  144MOL     C646052   3.149   2.150   6.734  0.3262  0.4459 -0.1783
  144MOL     C746053   3.383   2.155   6.647 -0.1969  0.0268 -0.3602
  144MOL     C846054   3.520   2.125   6.652  0.0580  0.8719 -0.0205
  144MOL     H946055   3.749   1.981   6.665  3.8057 -0.9900  1.4598
  144MOL    H1046056   3.768   2.090   6.803  1.6393 -0.6231 -0.1260
  144MOL    H1146057   3.507   1.932   6.940 -0.9094 -1.4186 -0.4313
  144MOL    H1246058   3.273   2.011   6.935 -0.8642  0.0566 -0.3971
  144MOL    H1346059   3.115   2.176   6.633 -1.4456 -0.0450  0.2706
  144MOL    H1446060   3.095   2.064   6.774  1.9552 -0.1768  0.7021
  144MOL    H1546061   3.355   2.212   6.560 -1.1944  1.7270  1.0424
  144MOL    H1646062   3.580   2.157   6.568  1.5172 -0.8986  0.3046
  144MOL    H1746063   3.728   1.932   6.838 -0.0394 -0.0104  0.2792
  144MOL    C1846064   3.117   2.272   6.822  0.0794 -0.1923 -0.0758
  144MOL    C1946065   2.981   2.325   6.804  0.1539  0.5379 -0.6561
  144MOL    C2046066   2.956   2.429   6.719 -0.2382 -0.2319  0.5396
  144MOL    C2146067   2.825   2.473   6.706 -0.1877 -0.6538 -0.2229
  144MOL    C2246068   2.716   2.397   6.763 -0.0479  0.1852 -0.1800
  144MOL    C2346069   2.567   2.441   6.737  0.2868 -0.0072  0.0074
  144MOL    C2446070   2.749   2.285   6.843  0.0539  0.9577 -0.0561
  144MOL    C2546071   2.883   2.249   6.862 -1.0997 -0.7715  0.5425
  144MOL    H2646072   3.130   2.246   6.927 -0.5128  1.5798  0.4527
  144MOL    H2746073   3.199   2.344   6.815 -0.6336  0.6236 -0.1829
  144MOL    H2846074   3.032   2.486   6.669 -0.3423 -0.0125  0.6333
  144MOL    H2946075   2.801   2.558   6.643 -0.4580  0.1857  0.9831
  144MOL    H3046076   2.502   2.363   6.697 -0.8836 -0.0654  1.9577
  144MOL    H3146077   2.566   2.530   6.674 -1.3771  1.4157  1.9993
  144MOL    H3246078   2.669   2.228   6.888  0.6937  1.0645  1.2271
  144MOL    H3346079   2.909   2.167   6.927  0.6287 -0.0078  0.8356
  144MOL    C3446080   2.516   2.516   6.868  0.2280  0.3616  0.1469
  144MOL    C3546081   2.366   2.537   6.866  0.0846  0.8870  0.1146
  144MOL    C3646082   2.313   2.667   6.842  0.3587  0.3505 -0.2688
  144MOL    C3746083   2.174   2.685   6.853 -0.0316  0.6931 -0.1645
  144MOL    C3846084   2.094   2.570   6.879 -0.4829 -0.5434  0.3265
  144MOL    C3946085   1.937   2.592   6.875 -0.1065  0.0594  0.6772
  144MOL    C4046086   2.150   2.447   6.911 -0.6575 -0.0656 -0.6879
  144MOL    C4146087   2.285   2.430   6.904 -0.9615 -0.8500 -0.2772
  144MOL    H4246088   2.565   2.613   6.872  3.1765 -1.1360  1.5413
  144MOL    H4346089   2.548   2.460   6.956 -2.9674  0.2206  1.2781
  144MOL    H4446090   2.377   2.752   6.824  0.6832 -0.2011 -1.8976
  144MOL    H4546091   2.127   2.781   6.837  0.9645  1.5679  1.9534
  144MOL    H4646092   1.917   2.661   6.792 -1.2378 -0.9831  0.0784
  144MOL    H4746093   1.883   2.498   6.867 -1.8352  0.9900  1.1997
  144MOL    H4846094   2.088   2.362   6.933 -0.6378  0.0056 -0.3544
  144MOL    H4946095   2.327   2.338   6.944  0.2572 -0.0023  0.4213
  144MOL    C5046096   1.902   2.669   6.999 -0.5745  0.2077  0.9452
  144MOL    C5146097   1.757   2.722   7.009  0.6178  1.0837  0.6580
  144MOL    C5246098   1.660   2.632   7.052 -0.7384  0.9275  0.0662
  144MOL    C5346099   1.524   2.663   7.056  0.2322  0.2853  0.5050
  144MOL    C5446100   1.491   2.794   7.019  0.5543  0.3796 -0.2374
  144MOL    C5546101   1.339   2.817   7.006 -0.2442 -0.1651  0.3536
  144MOL    C5646102   1.590   2.890   6.983 -0.4925 -0.1318  0.2550
  144MOL    C5746103   1.724   2.853   6.980  1.1918 -0.9335 -0.5074
  144MOL    H5846104   1.959   2.761   7.008 -1.1851  0.4580  2.5286
  144MOL    H5946105   1.940   2.615   7.086  1.9894  1.7844  0.8720
  144MOL    H6046106   1.691   2.532   7.080  0.2771  1.2391  0.0614
  144MOL    H6146107   1.449   2.591   7.086 -0.2060  0.3285 -0.4926
  144MOL    H6246108   1.314   2.907   6.949  0.0408  0.1290  0.6952
  144MOL    H6346109   1.305   2.724   6.960 -1.1862 -0.5026  1.6944
  144MOL    H6446110   1.568   2.995   6.971  2.3532  0.4368 -0.3717
  144MOL    H6546111   1.798   2.927   6.951 -1.1596  1.0236 -1.6431
  144MOL    C6646112   1.272   2.837   7.145 -0.9767  0.4437 -0.7998
  144MOL    C6746113   1.120   2.864   7.143 -0.2113  0.4009  0.4051
  144MOL    C6846114   1.027   2.762   7.177 -0.1286  0.0812  0.2190
  144MOL    C6946115   0.887   2.793   7.187  0.1266 -0.7357  0.3024
  144MOL    C7046116   0.847   2.924   7.160  0.1838 -0.7191  0.1318
  144MOL    C7146117   0.699   2.956   7.166 -0.6853 -0.5025 -0.2734
  144MOL    C7246118   0.937   3.021   7.116  0.3965 -0.0953 -0.2027
  144MOL    C7346119   1.072   2.991   7.106 -0.5278 -0.2058  0.3525
  144MOL    H7446120   1.319   2.922   7.195  0.4215 -0.1777 -1.0245
  144MOL    H7546121   1.279   2.747   7.206  0.5274  1.2072  0.1837
  144MOL    H7646122   1.058   2.663   7.206 -0.1026  0.0862  0.2076
  144MOL    H7746123   0.814   2.721   7.223  0.3624  0.0145  2.3756
  144MOL    H7846124   0.648   2.863   7.143 -2.5630  0.3436  0.3537
  144MOL    H7946125   0.674   3.024   7.085  0.0159  0.3530  0.2016
  144MOL    H8046126   0.899   3.117   7.084 -2.2143 -1.1180 -0.2573
  144MOL    H8146127   1.142   3.067   7.074 -1.3082  0.4568  0.1942
  144MOL    C8246128   0.649   3.030   7.290 -0.5077 -0.9744 -0.9383
  144MOL    C8346129   0.501   3.068   7.282 -0.6214 -0.5154  0.5938
  144MOL    C8446130   0.403   2.984   7.339  0.3935  0.1252 -0.5139
  144MOL    C8546131   0.265   3.023   7.344  0.5450 -0.7145 -0.4341
  144MOL    C8646132   0.231   3.153   7.302 -0.4851  0.7925 -0.1992
  144MOL    C8746133   0.084   3.189   7.308  0.4369  0.1312  0.1117
  144MOL    C8846134   0.333   3.238   7.250 -0.3718 -0.6440  0.0849
  144MOL    C8946135   0.464   3.195   7.239  0.6353  0.7801 -0.4160
  144MOL    H9046136   0.715   3.112   7.316 -0.7845 -1.8023  2.6047
  144MOL    H9146137   0.652   2.971   7.382 -0.7606  2.7087  1.5222
  144MOL    H9246138   0.438   2.890   7.378  0.9534  0.4210 -0.3061
  144MOL    H9346139   0.187   2.960   7.384 -0.2653  0.3101 -0.3783
  144MOL    H9446140   0.028   3.101   7.275  0.4796  0.0404  0.2827
  144MOL    H9546141   0.057   3.274   7.244  0.6372  1.6506  2.0033
  144MOL    H9646142   0.300   3.333   7.212 -0.8995 -0.2180  1.5971
  144MOL    H9746143   0.534   3.266   7.197  1.1079  1.4221  1.4049
  144MOL    C9846144   0.040   3.228   7.450  0.3281 -0.2515 -0.0361
  144MOL    C9946145  -0.111   3.259   7.449 -0.4614  0.5544  0.1414
  144MOL   C10046146  -0.164   3.385   7.428 -0.1691 -0.6223  0.3385
  144MOL   C10146147  -0.300   3.411   7.425  0.5562  0.0559  0.2000
  144MOL   C10246148  -0.392   3.303   7.441  0.3576 -0.3748  0.2779
  144MOL   C10346149  -0.542   3.332   7.439 -0.0261  0.3015  0.0168
  144MOL   C10446150  -0.342   3.175   7.463 -0.5433  0.0078 -0.4201
  144MOL   C10546151  -0.204   3.154   7.466 -1.2021  0.2093 -0.3589
  144MOL   H10646152   0.093   3.313   7.493 -0.2861 -0.0800  0.3845
  144MOL   H10746153   0.057   3.141   7.512  1.4203  0.5899  0.8593
  144MOL   H10846154  -0.095   3.464   7.403 -2.0546  1.4648  1.5428
  144MOL   H10946155  -0.339   3.510   7.409 -2.8411 -0.9083  2.1572
  144MOL   H11046156  -0.555   3.424   7.383 -0.1985 -0.2149 -0.7949
  144MOL   H11146157  -0.600   3.250   7.397 -0.1034  0.6358 -0.5229
  144MOL   H11246158  -0.412   3.093   7.467 -0.3284 -0.3346 -2.8122
  144MOL   H11346159  -0.161   3.056   7.483 -1.4850  0.2535  0.6397
  144MOL   C11446160  -0.590   3.350   7.584 -0.1038  0.0727 -0.0889
  144MOL   C11546161  -0.731   3.398   7.597  0.0532  0.3190 -0.1608
  144MOL   C11646162  -0.769   3.531   7.563 -0.6998  0.0404 -0.5942
  144MOL   C11746163  -0.907   3.570   7.569 -0.2527  0.2925  0.0686
  144MOL   C11846164  -1.003   3.469   7.603  0.3347 -0.4121  0.8665
  144MOL   C11946165  -1.146   3.507   7.612  0.6967 -0.2377 -0.2728
  144MOL   C12046166  -0.970   3.343   7.647  0.0899 -0.6585  0.0764
  144MOL   C12146167  -0.839   3.305   7.640  0.1412  0.0171  0.3371
  144MOL   H12246168  -0.525   3.422   7.635 -0.5549 -0.1241  0.7852
  144MOL   H12346169  -0.574   3.260   7.644  0.5899  0.5690  0.4923
  144MOL   H12446170  -0.685   3.597   7.551  1.0508 -1.5090  2.5315
  144MOL   H12546171  -0.929   3.675   7.562 -1.8153  0.0621  1.2606
  144MOL   H12646172  -1.176   3.587   7.544  1.1949  0.2624  0.0876
  144MOL   H12746173  -1.209   3.425   7.579  1.9679 -1.1907 -0.3861
  144MOL   H12846174  -1.047   3.272   7.676  1.9010 -2.0489  1.6028
  144MOL   H12946175  -0.817   3.205   7.675 -2.0064 -0.1632  1.2382
  144MOL   C13046176  -1.180   3.530   7.757 -0.0863 -0.5012 -0.2016
  144MOL   C13146177  -1.326   3.551   7.775 -0.0487  0.1184 -0.1993
  144MOL   C13246178  -1.411   3.442   7.777 -0.4092  0.8611  0.1012
  144MOL   C13346179  -1.551   3.466   7.811 -0.1651  0.6759 -0.2972
  144MOL   C13446180  -1.602   3.597   7.834 -0.1834  0.1108  0.1315
  144MOL   C13546181  -1.748   3.625   7.870 -0.1496  0.6146  0.1629
  144MOL   C13646182  -1.514   3.702   7.834 -1.2586 -0.6909  0.3805
  144MOL   C13746183  -1.375   3.681   7.802 -0.5009 -0.2417 -0.1265
  144MOL   H13846184  -1.129   3.618   7.795  1.3518 -0.3761 -2.3354
  144MOL   H13946185  -1.159   3.440   7.816 -2.2640 -1.3251 -0.6184
  144MOL   H14046186  -1.371   3.345   7.752  2.4722  2.0005  0.1251
  144MOL   H14146187  -1.602   3.371   7.809  1.1244 -0.0119 -1.3367
  144MOL   H14246188  -1.751   3.681   7.964 -0.6194 -1.3104  1.3309
  144MOL   H14346189  -1.791   3.684   7.789 -2.0930 -0.9155  0.0264
  144MOL   H14446190  -1.554   3.799   7.858  1.4564  0.9315 -1.3314
  144MOL   H14546191  -1.310   3.768   7.807  0.6713 -1.0366 -1.0984
  144MOL   C14646192  -1.838   3.503   7.884  0.0743 -0.0886 -0.2849
  144MOL   C14746193  -1.982   3.534   7.934  0.0788 -0.7950 -0.3675
  144MOL   C14846194  -1.998   3.589   8.062  0.3881  0.2969 -0.9699
  144MOL   C14946195  -2.129   3.620   8.110  0.3254  0.0091  0.1543
  144MOL   C15046196  -2.237   3.600   8.019 -0.0070  0.5071  0.1936
  144MOL   C15146197  -2.380   3.617   8.063  0.2204  0.9808  0.2594
  144MOL   C15246198  -2.218   3.552   7.885 -0.3912 -0.0439 -0.0909
  144MOL   C15346199  -2.090   3.519   7.845 -0.3033  0.7274 -0.4875
  144MOL   H15446200  -1.793   3.442   7.962 -0.5426  0.8256  0.7959
  144MOL   H15546201  -1.851   3.454   7.787 -1.6764  2.6741 -1.5370
  144MOL   H15646202  -1.924   3.600   8.140 -1.5201 -1.5706  1.1928
  144MOL   H15746203  -2.139   3.668   8.207  0.2826  1.0723 -0.3670
  144MOL   H15846204  -2.432   3.521   8.063  1.7362  0.1455  0.6662
  144MOL   H15946205  -2.384   3.643   8.169  0.5856  0.5806  0.3722
  144MOL   H16046206  -2.301   3.539   7.817 -0.1965 -0.0687 -0.3244
  144MOL   H16146207  -2.076   3.474   7.748 -1.7653 -1.3147  0.2117
  144MOL   C16246208  -2.466   3.716   7.981  0.4559 -0.2831 -0.4403
  144MOL   C16346209  -2.596   3.749   8.047 -0.9584  0.0688 -0.0234
  144MOL   C16446210  -2.603   3.861   8.126  0.1582  0.2471 -0.3502
  144MOL   C16546211  -2.729   3.899   8.179  0.1671  0.2560 -0.0585
  144MOL   C16646212  -2.840   3.830   8.139  0.4735  0.6336  0.1986
  144MOL   C16746213  -2.975   3.865   8.196 -0.0273 -0.1043 -0.2494
  144MOL   C16846214  -2.836   3.717   8.055 -0.7199  0.2333  0.0451
  144MOL   C16946215  -2.710   3.677   8.008 -0.0710  0.0363 -0.4440
  144MOL   H17046216  -2.476   3.685   7.877 -0.1984  1.6362 -0.9676
  144MOL   H17146217  -2.407   3.808   7.982 -1.0856  0.7040  1.4549
  144MOL   H17246218  -2.516   3.916   8.160  1.1813 -0.9893 -0.8987
  144MOL   H17346219  -2.736   3.982   8.248  1.6793 -1.2069  1.9076
  144MOL   H17446220  -3.035   3.774   8.198  0.4146 -0.4112 -0.8396
  144MOL   H17546221  -2.956   3.880   8.302  1.0993  0.6887 -0.5564
  144MOL   H17646222  -2.931   3.669   8.033 -0.5281 -1.2474  2.2407
  144MOL   H17746223  -2.705   3.594   7.939  0.2074 -0.7208  0.4721
  144MOL   C17846224  -3.036   3.989   8.129  0.4260  1.2443  0.2056
  144MOL   C17946225  -3.181   4.029   8.172  0.3549  0.0368  1.0571
  144MOL   C18046226  -3.286   3.934   8.165  0.1034 -0.1060 -0.0483
  144MOL   C18146227  -3.421   3.970   8.208 -0.5946  0.0069 -0.8843
  144MOL   C18246228  -3.445   4.096   8.256  0.0494 -0.0580 -1.1982
  144MOL   C18346229  -3.587   4.125   8.310 -0.3843 -0.5029 -0.1230
  144MOL   C18446230  -3.344   4.192   8.264 -0.0028  0.5308 -0.6333
  144MOL   C18546231  -3.212   4.159   8.225 -0.5639 -0.0259 -0.2338
  144MOL   H18646232  -3.034   3.976   8.021 -1.5166 -2.1271  0.5011
  144MOL   H18746233  -2.973   4.076   8.146  1.7745  0.3880 -0.3260
  144MOL   H18846234  -3.261   3.839   8.119  1.5053  0.7217 -1.0259
  144MOL   H18946235  -3.509   3.907   8.213 -0.4654 -0.2802 -2.2029
  144MOL   H19046236  -3.649   4.035   8.319 -0.8550 -0.2877 -1.0865
  144MOL   H19146237  -3.583   4.166   8.410 -2.1368  1.0802 -0.6617
  144MOL   H19246238  -3.366   4.288   8.309  1.7636  1.3441 -1.4378
  144MOL   H19346239  -3.129   4.227   8.233 -0.6620 -0.0616  1.4875
  144MOL   C19446240  -3.661   4.214   8.218  0.8802 -0.1028  0.2479
  144MOL   C19546241  -3.785   4.264   8.286  0.1652  0.8107 -0.9218
  144MOL   C19646242  -3.784   4.339   8.406 -0.7916  0.6404 -0.1928
  144MOL   C19746243  -3.904   4.388   8.470 -0.4977  0.4531  0.9767
  144MOL   C19846244  -4.024   4.376   8.397  0.2812 -0.5181  0.3424
  144MOL   C19946245  -4.152   4.439   8.450  0.5516  0.4378 -0.6024
  144MOL   C20046246  -4.026   4.296   8.282  0.0324 -0.4078  0.8206
  144MOL   C20146247  -3.908   4.236   8.229 -0.4358 -0.0530 -0.5442
  144MOL   H20246248  -3.692   4.157   8.130 -2.0308  0.4542  0.8508
  144MOL   H20346249  -3.597   4.295   8.184  0.9403  0.9180  2.6893
  144MOL   H20446250  -3.688   4.354   8.453 -2.2426 -0.4019  3.2337
  144MOL   H20546251  -3.909   4.434   8.568 -0.5414  1.9996  0.2490
  144MOL   H20646252  -4.124   4.516   8.523 -0.7016  2.6280 -2.3938
  144MOL   H20746253  -4.196   4.498   8.370  1.1159  0.7430 -0.6912
  144MOL   H20846254  -4.118   4.269   8.233  0.9222  0.7869 -1.5771
  144MOL   H20946255  -3.904   4.184   8.134 -1.8276  0.1860 -0.7515
  144MOL   C21046256  -4.253   4.331   8.496 -0.1835 -0.0655 -0.2413
  144MOL   C21146257  -4.387   4.386   8.542  0.6694 -0.2922  0.8840
  144MOL   C21246258  -4.417   4.445   8.666 -0.1938  0.3576  0.1245
  144MOL   C21346259  -4.536   4.505   8.686  0.2676 -1.2662  0.1470
  144MOL   C21446260  -4.638   4.507   8.591 -0.3188 -0.2386 -0.6927
  144MOL   C21546261  -4.759   4.586   8.626  1.1000 -0.6036  0.5345
  144MOL   C21646262  -4.626   4.432   8.474  0.1540  0.9899 -0.1647
  144MOL   C21746263  -4.495   4.379   8.448  0.6512 -0.4188 -0.6477
  144MOL   H21846264  -4.214   4.275   8.581  1.9439 -1.3034 -1.9609
  144MOL   H21946265  -4.278   4.261   8.415  0.4954  1.9293 -2.2221
  144MOL   H22046266  -4.337   4.444   8.738 -0.7830 -0.9277  0.7697
  144MOL   H22146267  -4.536   4.564   8.777  0.7314  0.1413 -0.7554
  144MOL   H22246268  -4.728   4.686   8.654  0.4636 -0.4994  0.8666
  144MOL   H22346269  -4.828   4.592   8.542  0.1430 -0.0967  1.3505
  144MOL   H22446270  -4.706   4.414   8.405  1.2486 -0.4496 -1.0738
  144MOL   H22546271  -4.472   4.339   8.351  0.6902 -2.3271  0.1236
  144MOL   C22646272  -4.841   4.516   8.735 -1.0317  0.4982 -0.3545
  144MOL   C22746273  -4.976   4.584   8.748  0.3701 -0.0888  0.7179
  144MOL   C22846274  -5.096   4.514   8.722 -0.1222 -0.7874 -1.1774
  144MOL   C22946275  -5.222   4.576   8.730  0.1568 -0.4854 -0.1670
  144MOL   C23046276  -5.228   4.706   8.784 -0.0360  0.1164  0.0245
  144MOL   C23146277  -5.356   4.767   8.813 -1.0389  0.5534  0.7813
  144MOL   C23246278  -5.102   4.767   8.826  0.3375  0.9538 -0.6117
  144MOL   C23346279  -4.979   4.712   8.799 -0.1292 -0.3242 -0.7131
  144MOL   H23446280  -4.796   4.518   8.833  1.3028  1.4575 -1.4159
  144MOL   H23546281  -4.860   4.412   8.707 -0.9990  0.2185  0.6680
  144MOL   H23646282  -5.087   4.408   8.702  0.7676 -0.4842 -2.4668
  144MOL   H23746283  -5.311   4.520   8.705 -0.0904 -0.1319 -0.0816
  144MOL   H23846284  -5.405   4.720   8.898  1.1384 -0.8468  1.3157
  144MOL   H23946285  -5.332   4.864   8.856  0.4498  0.0926  1.0156
  144MOL   H24046286  -5.111   4.870   8.857  0.1984  1.0988 -1.1189
  144MOL   H24146287  -4.889   4.771   8.808  1.5274 -2.6917 -1.3718
  144MOL   C24246288  -5.451   4.800   8.693  0.4169 -0.4092  0.3469
  144MOL   C24346289  -5.576   4.880   8.735 -0.3686 -0.2227  0.2620
  144MOL   C24446290  -5.641   4.859   8.852  0.0653 -0.3070  0.3209
  144MOL   C24546291  -5.761   4.928   8.885  0.0692  0.1517  0.6177
  144MOL   C24646292  -5.833   5.005   8.791  0.6081  0.0922  0.9591
  144MOL   C24746293  -5.972   5.056   8.814 -0.5636 -0.4474  0.5736
  144MOL   C24846294  -5.762   5.029   8.667  0.3343 -0.1286 -0.1416
  144MOL   C24946295  -5.641   4.965   8.640  0.2951 -0.4420  0.4330
  144MOL   H25046296  -5.396   4.864   8.625  0.5877 -0.9339 -0.0148
  144MOL   H25146297  -5.493   4.716   8.638  3.2316 -0.5669 -1.6538
  144MOL   H25246298  -5.601   4.796   8.930 -0.3330  0.3386  1.0600
  144MOL   H25346299  -5.809   4.905   8.980  0.6046  1.3703  1.1911
  144MOL   H25446300  -6.053   4.982   8.809  0.2106 -1.3028  0.5626
  144MOL   H25546301  -5.962   5.089   8.917 -2.0854 -0.5960  0.7837
  144MOL   H25646302  -5.803   5.088   8.587  0.9457  0.4380 -0.0401
  144MOL   H25746303  -5.597   4.993   8.545 -0.0157 -1.8189 -0.1189
  144MOL   C25846304  -5.994   5.185   8.732  0.2412 -0.2472  0.8697
  144MOL   C25946305  -6.125   5.250   8.763  0.1106 -0.1897  0.3892
  144MOL   C26046306  -6.225   5.242   8.671  0.4482 -0.3425 -0.2111
  144MOL   C26146307  -6.350   5.302   8.691 -0.2320  0.1835  0.1469
  144MOL   C26246308  -6.373   5.379   8.810 -0.1538  0.5954  0.5927
  144MOL   C26346309  -6.508   5.432   8.840 -0.2575 -0.2197 -0.0175
  144MOL   C26446310  -6.271   5.386   8.912  0.6475  0.2973  0.1270
  144MOL   C26546311  -6.147   5.327   8.885 -0.2924  0.1559  0.2476
  144MOL   H26646312  -5.990   5.169   8.624 -0.7127 -0.7114  0.9019
  144MOL   H26746313  -5.914   5.255   8.759  1.6994 -1.8801  0.8832
  144MOL   H26846314  -6.217   5.188   8.578  0.6677  0.0969 -0.4457
  144MOL   H26946315  -6.429   5.291   8.618  0.6843  0.9012 -0.9736
  144MOL   H27046316  -6.581   5.352   8.830 -1.6337  1.0709 -0.5290
  144MOL   H27146317  -6.505   5.466   8.943 -1.4642 -0.0433 -0.0326
  144MOL   H27246318  -6.286   5.428   9.010 -0.3113  0.1015  0.0660
  144MOL   H27346319  -6.068   5.320   8.959 -0.1722  0.5358  0.1550
  144MOL   C27446320  -6.545   5.549   8.753  0.3833  0.0776  0.1738
  144MOL   C27546321  -6.685   5.599   8.762 -0.0089  0.4954 -0.7748
  144MOL   C27646322  -6.796   5.520   8.713 -0.0125 -0.2421  0.0364
  144MOL   C27746323  -6.921   5.581   8.721  0.2367  0.0860  0.3215
  144MOL   C27846324  -6.946   5.711   8.759 -0.8405 -0.0667 -0.2283
  144MOL   C27946325  -7.089   5.767   8.778 -0.4434 -0.1210 -0.0163
  144MOL   C28046326  -6.842   5.789   8.805 -0.0167 -0.0147  0.7009
  144MOL   C28146327  -6.711   5.733   8.806 -0.2293  0.0854 -0.0600
  144MOL   H28246328  -6.463   5.619   8.773  0.6510 -0.0763 -0.3625
  144MOL   H28346329  -6.547   5.507   8.653 -1.4029  0.2976  0.1007
  144MOL   H28446330  -6.779   5.426   8.661  0.8816  0.0222 -0.1466
  144MOL   H28546331  -7.004   5.518   8.691 -1.1994  1.6343  0.9423
  144MOL   H28646332  -7.123   5.727   8.874  2.5241  1.1774  1.6199
  144MOL   H28746333  -7.074   5.874   8.788  0.8971 -0.2272 -0.8015
  144MOL   H28846334  -6.857   5.890   8.840  0.3421  1.0421 -2.1248
  144MOL   H28946335  -6.633   5.794   8.848  0.9019 -2.1139  1.0992
  144MOL   C29046336  -7.183   5.738   8.664  0.7065 -0.1929  0.2678
  144MOL   C29146337  -7.317   5.802   8.676  0.4538 -0.0088 -0.1061
  144MOL   C29246338  -7.336   5.940   8.660 -1.1021 -0.6214 -0.5221
  144MOL   C29346339  -7.461   6.000   8.696  0.0977 -0.4698  0.4723
  144MOL   C29446340  -7.573   5.919   8.732  0.7698  0.0195 -0.0668
  144MOL   C29546341  -7.713   5.975   8.770  0.4060  0.7693  0.1916
  144MOL   C29646342  -7.555   5.782   8.746  0.0653  0.3246 -0.2411
  144MOL   C29746343  -7.432   5.727   8.715 -0.5477 -0.3271 -0.1166
  144MOL   H29846344  -7.207   5.631   8.663  0.6317 -0.1737 -0.6658
  144MOL   H29946345  -7.133   5.768   8.572  0.6661  1.2377  0.7096
  144MOL   H30046346  -7.250   6.004   8.645 -1.7348 -0.0527 -1.7753
  144MOL   H30146347  -7.471   6.107   8.709 -1.5785 -0.7141  1.3074
  144MOL   H30246348  -7.748   5.932   8.864  0.5724  2.0298  0.8399
  144MOL   H30346349  -7.703   6.082   8.789 -1.3693  1.0555 -0.3257
  144MOL   H30446350  -7.644   5.728   8.775 -2.4001  2.9389 -2.5692
  144MOL   H30546351  -7.418   5.620   8.727  0.2297 -0.2695 -0.4920
  144MOL   C30646352  -7.816   5.947   8.656 -0.0838  0.3666  0.2489
  144MOL   C30746353  -7.948   6.027   8.669 -0.3164 -0.2293  0.1656
  144MOL   C30846354  -8.074   5.968   8.657  0.0768  0.5453  0.5468
  144MOL   C30946355  -8.194   6.047   8.674 -0.0285 -0.2504  0.2216
  144MOL   C31046356  -8.194   6.183   8.694  0.5042 -0.1349  0.3181
  144MOL   C31146357  -8.319   6.267   8.700 -0.2486  0.1852  0.3862
  144MOL   C31246358  -8.066   6.243   8.688  0.2109 -0.4117 -0.4102
  144MOL   C31346359  -7.946   6.167   8.676  0.0390  0.3728  0.6326
  144MOL   H31446360  -7.837   5.842   8.637  2.0970  0.2398 -1.7795
  144MOL   H31546361  -7.774   5.994   8.566 -0.5749 -0.4076 -0.3890
  144MOL   H31646362  -8.089   5.861   8.651 -2.3803  0.9292 -0.9513
  144MOL   H31746363  -8.284   5.987   8.675 -0.7332  0.7277 -1.4499
  144MOL   H31846364  -8.319   6.333   8.614  0.9106 -1.6346 -1.0534
  144MOL   H31946365  -8.416   6.218   8.693 -0.5622  1.1509 -2.2620
  144MOL   H32046366  -8.063   6.350   8.700 -2.3585 -0.4957  1.6946
  144MOL   H32146367  -7.850   6.215   8.693  0.8619 -0.6549 -0.9985
  144MOL   H32246368  -8.312   6.333   8.787  0.2807 -1.5170  1.6811
  145MOL     C146369   2.540   4.426   1.751 -0.6048 -0.1506 -0.3625
  145MOL     C246370   2.685   4.377   1.786  0.3488 -0.1633 -0.9216
  145MOL     C346371   2.731   4.376   1.923  0.0639 -0.5650  0.4039
  145MOL     C446372   2.848   4.315   1.962  0.1594 -0.1257 -0.6128
  145MOL     C546373   2.935   4.274   1.858 -0.5566  0.7585 -0.1006
  145MOL     C646374   3.071   4.235   1.899 -0.5255  0.0228  0.1312
  145MOL     C746375   2.901   4.284   1.720 -0.8206 -0.1472 -0.2448
  145MOL     C846376   2.775   4.335   1.690  0.5687  0.6668  0.1935
  145MOL     H946377   2.511   4.383   1.655  0.6483 -2.5144  0.2731
  145MOL    H1046378   2.458   4.422   1.823  0.8406  1.8695  1.4939
  145MOL    H1146379   2.660   4.428   1.985 -1.2026 -1.6106 -0.1228
  145MOL    H1246380   2.862   4.295   2.068 -1.5775 -1.3543 -0.5918
  145MOL    H1346381   3.143   4.252   1.819  0.3844 -1.1337  0.6795
  145MOL    H1446382   3.107   4.291   1.985  0.1852 -1.6390  0.9335
  145MOL    H1546383   2.969   4.258   1.639  0.6878 -0.6336  1.1371
  145MOL    H1646384   2.754   4.342   1.584  0.3625  1.4597  0.2794
  145MOL    H1746385   2.555   4.533   1.740 -1.6306  0.1927  1.3199
  145MOL    C1846386   3.086   4.085   1.926  0.1410 -0.0971  0.3183
  145MOL    C1946387   3.234   4.042   1.936 -0.0842 -0.3889  1.0449
  145MOL    C2046388   3.322   4.053   1.821  0.2420 -0.4603  0.2196
  145MOL    C2146389   3.457   4.019   1.826 -0.2307  0.2391 -0.3030
  145MOL    C2246390   3.511   3.965   1.944 -0.0305 -0.0964 -0.0427
  145MOL    C2346391   3.654   3.908   1.942 -0.0997 -0.0686  0.5311
  145MOL    C2446392   3.429   3.946   2.052 -0.0108  0.6359  0.2374
  145MOL    C2546393   3.296   3.991   2.051 -0.5165 -0.2794 -0.6305
  145MOL    H2646394   3.032   4.062   2.017 -0.5881  0.7166  0.0924
  145MOL    H2746395   3.038   4.035   1.842  0.6023 -0.9444  0.5476
  145MOL    H2846396   3.277   4.067   1.724  0.3519 -1.1019  0.0761
  145MOL    H2946397   3.520   4.014   1.738  1.5072 -0.4585  0.9402
  145MOL    H3046398   3.710   3.962   2.018  0.0622  2.1431 -1.1404
  145MOL    H3146399   3.692   3.925   1.842  1.6710  0.2795  1.2525
  145MOL    H3246400   3.465   3.907   2.146  2.1231  0.2200 -0.7237
  145MOL    H3346401   3.243   3.996   2.145  1.6626  0.4771  0.5770
  145MOL    C3446402   3.656   3.760   1.987  0.8984 -0.0839  0.4152
  145MOL    C3546403   3.796   3.719   2.032  0.0653  0.7055 -0.4023
  145MOL    C3646404   3.891   3.706   1.932 -0.7149  0.0196  0.7831
  145MOL    C3746405   4.027   3.694   1.953 -0.0536  0.5199 -0.6289
  145MOL    C3846406   4.073   3.679   2.091 -0.3276  0.4221  0.8614
  145MOL    C3946407   4.214   3.637   2.124  0.5206  0.2111  0.0064
  145MOL    C4046408   3.983   3.697   2.200 -0.5139  0.1558 -0.3445
  145MOL    C4146409   3.840   3.711   2.169  0.0632  0.0781 -0.3448
  145MOL    H4246410   3.609   3.693   1.914 -0.0854  1.5002 -0.4284
  145MOL    H4346411   3.592   3.759   2.075 -1.3992  0.1504 -1.1772
  145MOL    H4446412   3.864   3.691   1.829  2.6828 -0.0119 -0.1641
  145MOL    H4546413   4.090   3.675   1.867 -0.0142 -0.6333 -0.3425
  145MOL    H4646414   4.290   3.707   2.090  0.7888  1.8897  3.8604
  145MOL    H4746415   4.224   3.639   2.233  0.6441  1.3394 -0.0233
  145MOL    H4846416   4.022   3.703   2.300  2.4091  1.9033 -1.5188
  145MOL    H4946417   3.771   3.742   2.246  1.1680  0.9240  0.3256
  145MOL    C5046418   4.242   3.495   2.066 -0.1685  0.9055  0.2969
  145MOL    C5146419   4.380   3.447   2.107  0.5472 -0.7047  0.3756
  145MOL    C5246420   4.390   3.386   2.234 -0.5136  0.2006 -0.1277
  145MOL    C5346421   4.517   3.341   2.266 -0.1836 -0.2380 -0.7715
  145MOL    C5446422   4.626   3.347   2.183 -0.7883 -0.0837  0.4014
  145MOL    C5546423   4.757   3.287   2.236 -0.1228 -0.3490  0.4492
  145MOL    C5646424   4.617   3.422   2.062  0.1211  0.0134  0.1626
  145MOL    C5746425   4.489   3.475   2.024  0.0162 -0.0264  0.0933
  145MOL    H5846426   4.230   3.495   1.958  0.4567  3.4499  0.1963
  145MOL    H5946427   4.166   3.421   2.094 -1.7613  3.2268  2.3282
  145MOL    H6046428   4.301   3.379   2.293 -0.4088 -0.9431 -0.1012
  145MOL    H6146429   4.530   3.290   2.360  1.4414 -0.1332 -0.9263
  145MOL    H6246430   4.831   3.361   2.207 -0.8519 -1.0698 -3.4922
  145MOL    H6346431   4.752   3.304   2.343 -1.8243 -3.7238  0.9728
  145MOL    H6446432   4.705   3.422   1.999  2.0933  0.4091  2.8391
  145MOL    H6546433   4.468   3.514   1.925  1.2810 -2.5890 -1.2335
  145MOL    C6646434   4.787   3.148   2.187  0.0071  0.0933  0.3701
  145MOL    C6746435   4.923   3.098   2.243  0.0745 -0.0706  0.2531
  145MOL    C6846436   5.040   3.103   2.163 -0.3741  0.1685 -0.2923
  145MOL    C6946437   5.159   3.046   2.203 -0.4690  0.1977 -0.5325
  145MOL    C7046438   5.172   3.009   2.335  0.0098  0.1891  0.5272
  145MOL    C7146439   5.310   2.994   2.389  0.6432 -0.7688 -0.1849
  145MOL    C7246440   5.064   3.008   2.422  0.0890 -0.6061 -0.2279
  145MOL    C7346441   4.936   3.048   2.371  0.1256  0.1378 -0.2170
  145MOL    H7446442   4.787   3.132   2.079 -0.5038 -0.0478  0.3927
  145MOL    H7546443   4.714   3.077   2.224 -1.5202  0.3247 -2.0988
  145MOL    H7646444   5.038   3.152   2.066  2.2148  0.3438 -0.2902
  145MOL    H7746445   5.247   3.065   2.142 -0.0675  0.9424  0.2800
  145MOL    H7846446   5.325   3.064   2.471 -0.3954 -1.7158  0.8350
  145MOL    H7946447   5.384   3.015   2.312 -1.9855  2.8832 -1.8649
  145MOL    H8046448   5.074   2.982   2.526 -0.9540 -1.1605 -0.2592
  145MOL    H8146449   4.859   3.050   2.447 -0.4030  1.3927 -0.7700
  145MOL    C8246450   5.347   2.850   2.441 -0.3805 -0.1074 -0.5943
  145MOL    C8346451   5.494   2.832   2.465 -0.0311  0.6419 -0.5129
  145MOL    C8446452   5.554   2.846   2.592  0.2842 -0.2722 -0.2356
  145MOL    C8546453   5.691   2.815   2.610 -0.1495  0.0358 -0.0372
  145MOL    C8646454   5.767   2.795   2.493 -0.0703 -0.3636  0.1355
  145MOL    C8746455   5.916   2.762   2.503 -0.0996  0.0220 -0.5321
  145MOL    C8846456   5.712   2.790   2.368 -0.3799  0.2585  0.0600
  145MOL    C8946457   5.575   2.809   2.350 -0.0357  0.2374  0.2494
  145MOL    H9046458   5.323   2.781   2.360 -3.3105  1.5850 -1.2772
  145MOL    H9146459   5.294   2.835   2.535  1.5811 -0.9793  0.3880
  145MOL    H9246460   5.486   2.878   2.671 -0.3652  0.0055 -0.9031
  145MOL    H9346461   5.739   2.806   2.707 -0.3752  0.8043  0.1503
  145MOL    H9446462   5.955   2.830   2.579  0.0905  0.5269 -1.0752
  145MOL    H9546463   5.977   2.783   2.415 -0.2270 -0.7918 -0.8200
  145MOL    H9646464   5.774   2.762   2.285  1.8484  0.7112  1.5383
  145MOL    H9746465   5.537   2.789   2.251 -0.0557  0.7329  0.1585
  145MOL    C9846466   5.937   2.615   2.547 -0.3007  0.4327 -0.0267
  145MOL    C9946467   6.078   2.552   2.534 -0.2081 -0.1836  0.3509
  145MOL   C10046468   6.139   2.535   2.415 -0.4937 -0.1631  0.2190
  145MOL   C10146469   6.274   2.496   2.405 -0.2586 -0.3663  0.0690
  145MOL   C10246470   6.353   2.475   2.523 -0.3734  0.0769 -0.8147
  145MOL   C10346471   6.500   2.431   2.515 -0.1364  0.2973  0.2232
  145MOL   C10446472   6.283   2.483   2.645 -0.9054 -0.3103 -0.0885
  145MOL   C10546473   6.149   2.522   2.647 -0.1504 -0.0364  0.2431
  145MOL   H10646474   5.873   2.549   2.489  1.4720  0.0621 -1.5907
  145MOL   H10746475   5.914   2.608   2.654  0.8205 -0.7731  0.1445
  145MOL   H10846476   6.080   2.549   2.325 -0.0053  0.4202 -0.0214
  145MOL   H10946477   6.316   2.490   2.306 -0.7913 -1.8775 -0.0892
  145MOL   H11046478   6.542   2.453   2.417  2.1192 -1.4505  0.7398
  145MOL   H11146479   6.565   2.487   2.582 -2.0536  1.9362  0.7465
  145MOL   H11246480   6.334   2.451   2.734  0.8608 -2.1105 -1.7200
  145MOL   H11346481   6.102   2.521   2.745  0.8341 -1.4557  0.7081
  145MOL   C11446482   6.526   2.286   2.543 -0.2773  0.8217 -0.3880
  145MOL   C11546483   6.671   2.247   2.512  0.4395  0.2416 -0.3084
  145MOL   C11646484   6.773   2.268   2.607 -0.4402  0.2155  1.1068
  145MOL   C11746485   6.899   2.221   2.586  0.0742  0.0845  0.1312
  145MOL   C11846486   6.926   2.146   2.470  0.0678  0.6871  0.4370
  145MOL   C11946487   7.064   2.077   2.466 -0.2663  0.5688  0.7609
  145MOL   C12046488   6.831   2.135   2.370 -0.2937  0.4067  0.1156
  145MOL   C12146489   6.706   2.191   2.388  0.0209  0.0463  0.1087
  145MOL   H12246490   6.470   2.227   2.470 -1.9347  1.1403  0.6010
  145MOL   H12346491   6.495   2.259   2.644  1.3207  1.6293  0.3284
  145MOL   H12446492   6.755   2.328   2.695 -1.0066  0.7589  0.6273
  145MOL   H12546493   6.969   2.239   2.667  0.8463 -2.0050 -0.0402
  145MOL   H12646494   7.083   2.035   2.565  1.6140 -0.4199  0.0041
  145MOL   H12746495   7.049   1.986   2.407  1.5539  0.3642  0.5731
  145MOL   H12846496   6.848   2.077   2.281 -0.5496 -0.8401  0.8758
  145MOL   H12946497   6.626   2.164   2.321 -0.1805 -0.6342  0.6191
  145MOL   C13046498   7.183   2.160   2.409 -0.4275  0.3949 -0.4536
  145MOL   C13146499   7.318   2.087   2.407 -0.5091  0.3381  0.6600
  145MOL   C13246500   7.354   2.005   2.302  0.3015 -0.0428  0.1005
  145MOL   C13346501   7.474   1.934   2.313 -0.3614 -0.8471  0.1899
  145MOL   C13446502   7.568   1.960   2.412 -0.6378  0.6203  0.4740
  145MOL   C13546503   7.704   1.896   2.406 -0.3517  0.0780 -0.3246
  145MOL   C13646504   7.526   2.045   2.513  0.1420 -0.6281  0.3796
  145MOL   C13746505   7.404   2.108   2.516  0.2349 -0.3264 -1.0102
  145MOL   H13846506   7.195   2.251   2.469  3.2859 -0.4707  0.2232
  145MOL   H13946507   7.157   2.211   2.316  1.7267  3.0919  0.3422
  145MOL   H14046508   7.280   1.990   2.224  0.8141 -1.4667 -0.1296
  145MOL   H14146509   7.499   1.854   2.245  0.7206 -0.0937 -0.3108
  145MOL   H14246510   7.745   1.894   2.507  0.4733  0.6430 -0.6504
  145MOL   H14346511   7.693   1.792   2.375  0.5693 -0.8322  2.2281
  145MOL   H14446512   7.596   2.057   2.595  0.3465 -1.3261  0.3077
  145MOL   H14546513   7.363   2.166   2.598 -1.4859 -0.0888 -1.9979
  145MOL   C14646514   7.786   1.977   2.307 -0.1804 -0.0016 -0.7355
  145MOL   C14746515   7.930   1.929   2.301 -0.9180  0.2434 -0.1081
  145MOL   C14846516   7.964   1.823   2.217 -0.0894  0.2851  0.1497
  145MOL   C14946517   8.091   1.771   2.217 -0.3182 -0.1883 -0.1681
  145MOL   C15046518   8.193   1.829   2.297  0.3246 -0.0147  0.7695
  145MOL   C15146519   8.342   1.788   2.286  0.0566  0.5641  0.0437
  145MOL   C15246520   8.157   1.933   2.381 -0.1126 -0.2157  0.1201
  145MOL   C15346521   8.027   1.988   2.384  0.9037  0.9134 -0.7254
  145MOL   H15446522   7.785   2.075   2.354  3.5185 -1.2941  2.2926
  145MOL   H15546523   7.750   1.983   2.204 -1.1216 -1.7728 -0.5175
  145MOL   H15646524   7.895   1.773   2.151  0.5259 -0.4242  0.0423
  145MOL   H15746525   8.118   1.681   2.164 -1.3647 -0.9337  0.5380
  145MOL   H15846526   8.389   1.870   2.341 -0.9042  0.5646  0.8900
  145MOL   H15946527   8.352   1.703   2.354 -1.0477  0.6157  0.2750
  145MOL   H16046528   8.237   1.981   2.435  0.9928  0.2730 -1.8944
  145MOL   H16146529   8.007   2.069   2.452 -2.0393  0.2707 -0.7953
  145MOL   C16246530   8.400   1.770   2.142  0.2141 -0.6153 -0.0281
  145MOL   C16346531   8.539   1.716   2.131 -0.4276 -0.5481 -0.0140
  145MOL   C16446532   8.565   1.602   2.057  0.1053  0.4826 -0.4940
  145MOL   C16546533   8.692   1.551   2.046 -0.9160  0.8261 -1.1613
  145MOL   C16646534   8.801   1.612   2.101  0.1295 -0.6165 -0.4805
  145MOL   C16746535   8.944   1.569   2.082  0.5426 -0.0927  0.0891
  145MOL   C16846536   8.780   1.738   2.164  0.0475  0.1640  1.0621
  145MOL   C16946537   8.650   1.784   2.186 -0.3814 -0.0807 -0.4637
  145MOL   H17046538   8.398   1.872   2.104 -0.5772 -0.2541  0.9666
  145MOL   H17146539   8.332   1.715   2.076 -1.6278  0.7452  0.6968
  145MOL   H17246540   8.486   1.553   2.003 -0.1449  0.2411  0.0881
  145MOL   H17346541   8.705   1.453   2.003 -0.6987 -0.4408  1.6436
  145MOL   H17446542   8.932   1.497   2.001 -1.0252 -0.3148  0.4959
  145MOL   H17546543   8.996   1.658   2.046  0.6641  1.3292  3.5086
  145MOL   H17646544   8.857   1.804   2.202  0.3598 -0.0416  0.7907
  145MOL   H17746545   8.636   1.887   2.217 -1.2367  0.2368 -1.8200
  145MOL   C17846546   9.004   1.509   2.213  0.0305 -0.4449 -0.0838
  145MOL   C17946547   9.151   1.468   2.201  0.0096 -0.0680  0.0649
  145MOL   C18046548   9.197   1.338   2.236  1.4535 -0.0827  0.2304
  145MOL   C18146549   9.334   1.305   2.231 -0.7060 -0.7552 -1.2402
  145MOL   C18246550   9.429   1.399   2.181 -0.3682  0.1167  0.1961
  145MOL   C18346551   9.578   1.363   2.153 -0.4859 -0.3890 -0.1007
  145MOL   C18446552   9.385   1.525   2.154 -0.7012  0.8015  0.0782
  145MOL   C18546553   9.249   1.564   2.165 -0.7915 -0.8737 -0.2905
  145MOL   H18646554   8.942   1.430   2.257  1.4567 -1.8244 -0.5159
  145MOL   H18746555   9.017   1.585   2.290  3.1863 -1.1417  0.1392
  145MOL   H18846556   9.125   1.267   2.272 -0.8106  2.6574  1.2707
  145MOL   H18946557   9.376   1.206   2.245  2.3417  0.5492 -0.6265
  145MOL   H19046558   9.593   1.256   2.140  0.5473 -0.4229  1.3807
  145MOL   H19146559   9.593   1.402   2.052 -0.2938 -3.4897 -1.2996
  145MOL   H19246560   9.468   1.588   2.125 -0.1688 -0.2222 -0.6449
  145MOL   H19346561   9.220   1.665   2.141 -0.3708 -0.4181  1.0071
  145MOL   C19446562   9.675   1.419   2.258  0.5285  0.6287  0.1125
  145MOL   C19546563   9.814   1.366   2.216  0.2410 -0.1588 -0.2581
  145MOL   C19646564   9.908   1.458   2.159 -0.6690  0.0641  0.2254
  145MOL   C19746565  10.041   1.421   2.133  0.3474 -0.3558 -0.6416
  145MOL   C19846566  10.074   1.283   2.149 -0.4533 -0.1229  0.2441
  145MOL   C19946567  10.212   1.237   2.136 -0.0331 -0.1666  0.0134
  145MOL   C20046568   9.978   1.189   2.201  0.1572  0.5937  0.0672
  145MOL   C20146569   9.847   1.230   2.231 -1.0992  0.0336  0.1125
  145MOL   H20246570   9.649   1.375   2.354 -1.9681  0.1016 -0.7613
  145MOL   H20346571   9.663   1.527   2.258  1.0534  0.7578 -3.9443
  145MOL   H20446572   9.884   1.564   2.157  0.7472  0.4715  2.6492
  145MOL   H20546573  10.118   1.494   2.112 -0.3260 -0.4073 -3.5438
  145MOL   H20646574  10.228   1.146   2.078 -0.9846 -1.5352  1.8581
  145MOL   H20746575  10.257   1.313   2.073 -1.2914  0.3466 -0.2590
  145MOL   H20846576  10.016   1.090   2.224 -0.3725  0.3309 -0.1746
  145MOL   H20946577   9.790   1.154   2.283  0.2598 -0.6885  0.5834
  145MOL   C21046578  10.283   1.240   2.267 -0.5925 -0.9506  0.0801
  145MOL   C21146579  10.431   1.207   2.263  0.1254  0.7098  0.2520
  145MOL   C21246580  10.494   1.119   2.356 -0.0601  0.0996 -0.3462
  145MOL   C21346581  10.630   1.080   2.345  0.0274 -0.6081  0.3546
  145MOL   C21446582  10.704   1.131   2.245 -0.4739 -0.6032  0.1694
  145MOL   C21546583  10.851   1.090   2.234  0.9836 -0.5059  0.1957
  145MOL   C21646584  10.655   1.225   2.159  0.1577  0.2225  0.5649
  145MOL   C21746585  10.518   1.253   2.157 -0.2974 -0.5661  0.5242
  145MOL   H21846586  10.241   1.188   2.353  0.5391  0.8014  1.7546
  145MOL   H21946587  10.290   1.344   2.300 -0.0514 -0.9985  0.1232
  145MOL   H22046588  10.441   1.077   2.440 -0.0086  0.3686 -0.1810
  145MOL   H22146589  10.669   0.998   2.403  0.0854 -1.4945 -0.9370
  145MOL   H22246590  10.904   1.185   2.241  1.4351 -0.8040  0.8889
  145MOL   H22346591  10.876   1.039   2.327  1.5776  1.0421  0.8957
  145MOL   H22446592  10.716   1.264   2.080  1.2421 -0.4698  1.0467
  145MOL   H22546593  10.485   1.306   2.069  2.3011 -1.2236 -0.9388
  145MOL   C22646594  10.891   1.013   2.107 -0.6072 -1.2164 -0.7185
  145MOL   C22746595  11.044   0.978   2.121  0.3151 -0.1537  0.5940
  145MOL   C22846596  11.080   0.878   2.211 -0.6906  0.3461 -0.3659
  145MOL   C22946597  11.214   0.835   2.216  0.2671  0.2901 -0.1081
  145MOL   C23046598  11.316   0.903   2.139 -0.0412 -0.1465  0.1171
  145MOL   C23146599  11.464   0.857   2.143 -0.3874  0.0343  0.4033
  145MOL   C23246600  11.275   1.002   2.043  0.7825  0.1958 -0.2031
  145MOL   C23346601  11.137   1.039   2.034  0.0419 -0.6938  0.0945
  145MOL   H23446602  10.854   1.076   2.025 -0.7208 -1.1340 -0.6053
  145MOL   H23546603  10.843   0.915   2.103 -0.0728 -1.4386 -1.7422
  145MOL   H23646604  11.015   0.825   2.279 -1.0985 -0.3846 -1.3242
  145MOL   H23746605  11.233   0.749   2.279 -2.6253 -0.4023 -0.0871
  145MOL   H23846606  11.523   0.941   2.104 -1.5146 -0.4134 -2.3843
  145MOL   H23946607  11.499   0.832   2.243 -2.7338 -0.4585  1.1186
  145MOL   H24046608  11.346   1.060   1.986  0.7296 -0.6442 -1.1412
  145MOL   H24146609  11.104   1.115   1.965  1.4049  1.0612  1.3277
  145MOL   C24246610  11.488   0.742   2.046  0.6731 -0.2636  0.1836
  145MOL   C24346611  11.636   0.704   2.042 -0.0528  0.3944  0.0969
  145MOL   C24446612  11.688   0.623   2.146  0.2425  0.7296 -0.2376
  145MOL   C24546613  11.829   0.594   2.152  0.6065 -0.4139 -0.4675
  145MOL   C24646614  11.913   0.639   2.049 -0.1579 -0.3985  0.1159
  145MOL   C24746615  12.062   0.615   2.064  0.5684 -0.1629 -0.1464
  145MOL   C24846616  11.864   0.713   1.940 -0.1239 -0.0279  0.0255
  145MOL   C24946617  11.726   0.747   1.942  0.1440  0.7268  0.5534
  145MOL   H25046618  11.424   0.658   2.074  1.3613 -1.5963 -2.0614
  145MOL   H25146619  11.460   0.785   1.950  0.2578 -0.4172  0.2378
  145MOL   H25246620  11.622   0.578   2.219  0.3590  0.5308 -0.2549
  145MOL   H25346621  11.863   0.527   2.231 -1.3418  0.6733  1.3309
  145MOL   H25446622  12.118   0.706   2.041 -0.1324  0.2893 -0.0602
  145MOL   H25546623  12.082   0.590   2.168 -0.1955  2.1392  0.5761
  145MOL   H25646624  11.941   0.743   1.870  2.7709 -1.0501  2.6529
  145MOL   H25746625  11.687   0.804   1.859 -0.7375 -1.3269 -0.5017
  145MOL   C25846626  12.107   0.504   1.969  0.0934  0.1638  0.1220
  145MOL   C25946627  12.257   0.481   1.973 -0.5488 -0.1385  0.8579
  145MOL   C26046628  12.329   0.527   1.859 -0.6605  0.2804  0.0641
  145MOL   C26146629  12.469   0.519   1.860  0.8526  0.0238 -0.1132
  145MOL   C26246630  12.542   0.468   1.971 -0.7651  0.7156 -0.2148
  145MOL   C26346631  12.694   0.453   1.980  0.1435  0.1220 -0.3572
  145MOL   C26446632  12.467   0.416   2.081 -0.0060 -0.6296  0.0099
  145MOL   C26546633  12.326   0.426   2.083 -0.2838  0.1956  0.4796
  145MOL   H26646634  12.080   0.530   1.866 -1.3391 -0.2405  0.3865
  145MOL   H26746635  12.051   0.413   1.989 -0.1439  0.7325  2.0963
  145MOL   H26846636  12.281   0.574   1.775  2.9408 -0.7919 -2.7238
  145MOL   H26946637  12.519   0.556   1.772 -1.7990 -1.0483 -2.1459
  145MOL   H27046638  12.750   0.498   1.899  0.1898  0.2272 -0.2664
  145MOL   H27146639  12.726   0.511   2.067 -2.8134  3.0588 -1.1247
  145MOL   H27246640  12.527   0.375   2.162  0.5449  0.8541  0.3546
  145MOL   H27346641  12.274   0.396   2.173 -0.0833 -3.5434 -0.5549
  145MOL   C27446642  12.725   0.303   1.966 -0.8239  0.2748  0.1202
  145MOL   C27546643  12.874   0.273   1.965 -0.2407 -0.7459  0.2437
  145MOL   C27646644  12.950   0.255   2.081  0.4973 -0.0138  0.2797
  145MOL   C27746645  13.089   0.231   2.075  0.6800  0.3164 -0.3349
  145MOL   C27846646  13.145   0.223   1.947  0.1507  0.8721  0.2704
  145MOL   C27946647  13.290   0.186   1.927 -0.1715 -0.0861  0.1582
  145MOL   C28046648  13.071   0.248   1.831  0.9644 -0.2875 -0.0992
  145MOL   C28146649  12.936   0.274   1.841 -0.0367  0.1722  0.6131
  145MOL   H28246650  12.685   0.240   2.046  0.2353 -2.1908 -1.2227
  145MOL   H28346651  12.686   0.265   1.872  3.0226  0.4173 -1.6514
  145MOL   H28446652  12.904   0.255   2.178  0.1838  1.1163  0.1318
  145MOL   H28546653  13.135   0.211   2.171 -1.5950 -0.4024  0.6274
  145MOL   H28646654  13.301   0.126   1.836  2.2259  2.3139 -1.2068
  145MOL   H28746655  13.339   0.282   1.910  2.0824 -1.1820  0.2786
  145MOL   H28846656  13.130   0.254   1.741 -0.6389 -0.9542 -1.2123
  145MOL   H28946657  12.886   0.291   1.746 -0.0393  0.8439  0.7384
  145MOL   C29046658  13.351   0.117   2.047 -0.1253 -0.2963 -0.0488
  145MOL   C29146659  13.490   0.056   2.022  0.1923 -0.1383  0.0042
  145MOL   C29246660  13.504  -0.078   1.990 -0.0641 -0.7727  0.6234
  145MOL   C29346661  13.628  -0.140   1.963  0.5945  0.1785 -0.0216
  145MOL   C29446662  13.745  -0.064   1.987  0.1271 -0.2288  0.7525
  145MOL   C29546663  13.885  -0.115   1.963  0.2328  0.4036  0.3542
  145MOL   C29646664  13.729   0.072   2.030  0.1635 -0.0811 -0.7272
  145MOL   C29746665  13.604   0.130   2.049 -0.4985  0.2121 -0.7354
  145MOL   H29846666  13.288   0.039   2.089 -0.6152  1.6204  2.9475
  145MOL   H29946667  13.350   0.178   2.137 -2.6012 -0.9163  0.3796
  145MOL   H30046668  13.422  -0.147   1.981  0.7073 -1.4671 -1.4937
  145MOL   H30146669  13.646  -0.239   1.923 -1.3843 -0.5579  0.8424
  145MOL   H30246670  13.887  -0.167   1.867 -0.3935 -2.0740  1.6442
  145MOL   H30346671  13.947  -0.025   1.962  2.5382 -1.1492  0.2620
  145MOL   H30446672  13.819   0.129   2.045  1.9831 -2.4028 -2.5319
  145MOL   H30546673  13.600   0.236   2.071 -3.3380 -0.0287  0.0587
  145MOL   C30646674  13.937  -0.194   2.085 -0.0917  0.0453  0.3493
  145MOL   C30746675  14.075  -0.253   2.070 -0.5927  0.2515  0.1071
  145MOL   C30846676  14.096  -0.387   2.103 -0.1457  0.5574  0.0224
  145MOL   C30946677  14.235  -0.430   2.092 -0.1941  0.3955 -0.5443
  145MOL   C31046678  14.339  -0.339   2.066 -0.1496 -0.0560  0.1997
  145MOL   C31146679  14.478  -0.392   2.070 -0.2456  0.0182 -0.1251
  145MOL   C31246680  14.309  -0.205   2.034  0.4687  0.1630 -0.2277
  145MOL   C31346681  14.177  -0.170   2.027 -0.7712 -0.3208  0.0914
  145MOL   H31446682  13.867  -0.275   2.106  1.2129 -1.0831  0.4248
  145MOL   H31546683  13.940  -0.129   2.172  0.7256  1.5538 -0.7931
  145MOL   H31646684  14.019  -0.457   2.131  0.1091 -0.7260 -2.4182
  145MOL   H31746685  14.252  -0.535   2.116 -1.8862  0.1316 -0.4259
  145MOL   H31846686  14.494  -0.462   2.152  2.2180  1.3475  0.6054
  145MOL   H31946687  14.504  -0.440   1.976  1.1803  0.0932  0.2125
  145MOL   H32046688  14.391  -0.148   1.994 -0.8153  0.3404 -2.7252
  145MOL   H32146689  14.152  -0.072   1.991 -0.4255  0.2402  1.3553
  145MOL   H32246690  14.545  -0.306   2.081  0.4822 -0.4604 -0.7736
  146MOL     C146691   7.859   7.760   6.647  0.4786  0.5256  0.1915
  146MOL     C246692   8.013   7.767   6.625  0.4422  0.3090 -0.9709
  146MOL     C346693   8.072   7.645   6.577 -0.2383 -0.5104  0.5234
  146MOL     C446694   8.207   7.624   6.567  0.0727  0.2945 -0.7777
  146MOL     C546695   8.292   7.733   6.605  0.0322  0.3099 -0.5665
  146MOL     C646696   8.443   7.727   6.586 -0.2754 -0.5266  0.5152
  146MOL     C746697   8.235   7.843   6.666  0.5850 -0.4359 -0.5058
  146MOL     C846698   8.097   7.868   6.678 -0.4471  1.1236  0.1492
  146MOL     H946699   7.829   7.805   6.741 -1.6244 -0.1079 -0.1411
  146MOL    H1046700   7.804   7.797   6.560 -2.2455 -1.3622  1.0290
  146MOL    H1146701   8.002   7.568   6.548 -0.0037 -0.0904 -1.1683
  146MOL    H1246702   8.253   7.543   6.513  2.1988  1.7258 -1.1472
  146MOL    H1346703   8.458   7.705   6.480 -1.3530 -2.8630  0.8430
  146MOL    H1446704   8.486   7.824   6.613 -0.1564 -1.1322  2.5837
  146MOL    H1546705   8.309   7.909   6.708  0.8933 -0.3499 -1.1741
  146MOL    H1646706   8.062   7.956   6.728  0.1959  1.6015 -0.2376
  146MOL    H1746707   7.834   7.655   6.666 -2.8847  0.7797 -2.2586
  146MOL    C1846708   8.501   7.601   6.655 -0.6689 -0.1880  0.5496
  146MOL    C1946709   8.643   7.569   6.599  0.2784 -0.5412  0.8692
  146MOL    C2046710   8.673   7.455   6.513  0.1033 -0.4384  0.2120
  146MOL    C2146711   8.808   7.422   6.486  0.4470 -0.0749  0.2607
  146MOL    C2246712   8.909   7.514   6.516  0.4844 -0.4547 -0.7058
  146MOL    C2346713   9.053   7.500   6.474 -0.3295  0.2314  0.3460
  146MOL    C2446714   8.877   7.635   6.580  0.5225  0.3960  0.0932
  146MOL    C2546715   8.748   7.662   6.629  0.6642  1.2196 -0.5735
  146MOL    H2646716   8.500   7.606   6.764 -1.5990  0.2752  0.5273
  146MOL    H2746717   8.442   7.513   6.629  1.9175 -1.8318 -0.0441
  146MOL    H2846718   8.599   7.381   6.487 -0.7582  1.9094 -4.5598
  146MOL    H2946719   8.829   7.325   6.443 -2.1600 -0.3836 -0.3675
  146MOL    H3046720   9.115   7.586   6.498 -0.8323 -0.0742  2.8081
  146MOL    H3146721   9.048   7.495   6.365 -2.1673 -0.3316  0.4306
  146MOL    H3246722   8.958   7.705   6.589  0.7135  0.0371  1.2896
  146MOL    H3346723   8.723   7.757   6.674 -1.9810  0.7629 -1.0080
  146MOL    C3446724   9.125   7.371   6.522  0.7172 -0.2855 -0.2232
  146MOL    C3546725   9.259   7.372   6.455  0.3550 -0.6271  0.7034
  146MOL    C3646726   9.366   7.445   6.505 -0.2923 -0.2622 -0.4733
  146MOL    C3746727   9.501   7.432   6.461 -0.6187  0.0641 -0.4842
  146MOL    C3846728   9.531   7.341   6.361  0.4384  0.0076 -0.1565
  146MOL    C3946729   9.682   7.319   6.317  0.7573 -0.2586  0.6664
  146MOL    C4046730   9.432   7.258   6.310 -0.2707  0.0011  0.4897
  146MOL    C4146731   9.297   7.270   6.360 -0.2486 -0.5676  0.5535
  146MOL    H4246732   9.070   7.280   6.498 -1.0349  0.8817 -0.7431
  146MOL    H4346733   9.128   7.381   6.630  1.0117  1.8460 -0.4106
  146MOL    H4446734   9.338   7.508   6.587 -0.6332 -2.4835  1.1650
  146MOL    H4546735   9.577   7.489   6.512 -0.0271 -0.1567 -1.1096
  146MOL    H4646736   9.683   7.351   6.213 -1.4778 -2.3578 -0.0731
  146MOL    H4746737   9.748   7.385   6.373  0.7247 -0.3751  0.8430
  146MOL    H4846738   9.457   7.195   6.226 -2.0221 -0.4065  0.2648
  146MOL    H4946739   9.225   7.198   6.324  0.6207 -1.3871  0.4425
  146MOL    C5046740   9.735   7.181   6.352 -0.3325  0.2288  0.0378
  146MOL    C5146741   9.884   7.158   6.324 -0.0737  0.0608 -0.1902
  146MOL    C5246742   9.930   7.062   6.223  0.4948 -0.2838  0.7182
  146MOL    C5346743  10.068   7.066   6.188  0.5825  0.5208  0.6803
  146MOL    C5446744  10.161   7.147   6.248 -0.2692 -0.1441  0.4165
  146MOL    C5546745  10.310   7.141   6.224 -0.1457  0.0724 -0.0127
  146MOL    C5646746  10.114   7.226   6.356 -0.6414 -0.4136  0.3676
  146MOL    C5746747   9.974   7.239   6.390 -0.2243 -0.2553 -0.5338
  146MOL    H5846748   9.690   7.115   6.278  0.8497 -0.5575  0.0248
  146MOL    H5946749   9.698   7.159   6.452  0.9390  0.4346  0.5512
  146MOL    H6046750   9.855   7.007   6.168  1.1682 -2.7445  2.2195
  146MOL    H6146751  10.114   7.001   6.114  2.2746  0.0869  2.0950
  146MOL    H6246752  10.339   7.160   6.121 -0.1345 -0.9218 -0.2016
  146MOL    H6346753  10.360   7.224   6.274 -1.6450  0.7140  0.4706
  146MOL    H6446754  10.181   7.291   6.412  2.2649 -1.8082 -1.3701
  146MOL    H6546755   9.936   7.307   6.464 -0.6944  0.8605 -1.7895
  146MOL    C6646756  10.370   7.016   6.276  0.6630 -0.0187 -0.2670
  146MOL    C6746757  10.521   7.008   6.256  0.8993 -0.0822  0.0194
  146MOL    C6846758  10.607   7.041   6.366 -0.5156  0.2140  0.2947
  146MOL    C6946759  10.751   7.045   6.332  0.3727  0.2123 -0.2801
  146MOL    C7046760  10.802   7.003   6.207 -0.0857 -0.2924 -0.8681
  146MOL    C7146761  10.957   6.995   6.187  0.0209  0.1171  0.9861
  146MOL    C7246762  10.711   6.973   6.108  0.5998  0.0545 -0.5646
  146MOL    C7346763  10.575   6.976   6.126  0.0755  0.1225 -0.3791
  146MOL    H7446764  10.332   6.927   6.226 -0.0950  0.5132 -0.6457
  146MOL    H7546765  10.356   7.003   6.383 -0.5270 -0.5911 -0.4832
  146MOL    H7646766  10.571   7.074   6.462 -0.7426  0.2872  0.1845
  146MOL    H7746767  10.822   7.078   6.406  1.5870  2.6376 -2.4462
  146MOL    H7846768  11.005   7.087   6.219 -2.4930  1.8838 -0.1548
  146MOL    H7946769  10.972   6.983   6.080 -2.5489 -1.2131  0.7325
  146MOL    H8046770  10.756   6.929   6.021 -0.9782 -1.7257 -0.5184
  146MOL    H8146771  10.502   6.940   6.055 -1.8996  0.0915  1.6481
  146MOL    C8246772  11.021   6.877   6.247  0.1681 -0.7453  0.3606
  146MOL    C8346773  11.163   6.858   6.193  0.3751 -0.5493  0.4911
  146MOL    C8446774  11.277   6.889   6.270  0.5834  0.2335  0.4802
  146MOL    C8546775  11.409   6.879   6.215  0.3296  0.3059  0.1489
  146MOL    C8646776  11.423   6.842   6.087 -0.2391 -0.6559 -0.1124
  146MOL    C8746777  11.558   6.832   6.026  0.0242  0.2097 -0.2215
  146MOL    C8846778  11.309   6.809   6.008 -0.8603 -0.2698 -0.0426
  146MOL    C8946779  11.181   6.812   6.065  0.6566 -0.1537 -0.0852
  146MOL    H9046780  10.962   6.797   6.201  0.1173 -0.5833  0.1420
  146MOL    H9146781  11.005   6.870   6.354  1.6811 -0.0712  0.6422
  146MOL    H9246782  11.257   6.924   6.371 -1.3023  1.8215 -0.4095
  146MOL    H9346783  11.500   6.894   6.271  2.6020  1.7467 -3.7009
  146MOL    H9446784  11.617   6.918   6.058 -2.2098  1.1620  1.3987
  146MOL    H9546785  11.551   6.826   5.918  0.8946 -1.6199 -0.1958
  146MOL    H9646786  11.317   6.766   5.909  3.3213  0.5331 -0.1633
  146MOL    H9746787  11.094   6.783   6.007 -0.0553  1.1362  0.3072
  146MOL    C9846788  11.630   6.706   6.084 -0.4321  0.5205  0.2549
  146MOL    C9946789  11.763   6.667   6.027  0.0398 -1.0676 -0.4191
  146MOL   C10046790  11.876   6.713   6.093  0.3271  0.4260  0.4022
  146MOL   C10146791  12.002   6.688   6.037  0.0425  0.0468 -0.0355
  146MOL   C10246792  12.014   6.608   5.916  0.2086  0.3130  0.2173
  146MOL   C10346793  12.152   6.576   5.857  0.0285 -0.4488  0.0523
  146MOL   C10446794  11.894   6.556   5.857 -0.4095 -0.3518 -0.0303
  146MOL   C10546795  11.767   6.591   5.906 -0.5133  0.2209  0.6706
  146MOL   H10646796  11.563   6.623   6.061  1.0154 -0.4266 -0.6566
  146MOL   H10746797  11.644   6.710   6.192  1.7790  1.4159 -0.0326
  146MOL   H10846798  11.871   6.768   6.186 -1.0379 -2.3066  1.9947
  146MOL   H10946799  12.085   6.719   6.099  0.5338 -1.4479  0.0679
  146MOL   H11046800  12.151   6.602   5.751  2.7991 -3.2724 -0.7444
  146MOL   H11146801  12.221   6.646   5.904  1.3250 -0.2601 -2.0387
  146MOL   H11246802  11.904   6.488   5.774  1.2068 -1.9258  1.4330
  146MOL   H11346803  11.677   6.566   5.852  0.6042  0.8533 -1.5538
  146MOL   C11446804  12.203   6.436   5.892 -0.2505  0.4958  1.1449
  146MOL   C11546805  12.351   6.413   5.858  0.3781  0.4189 -0.3255
  146MOL   C11646806  12.452   6.494   5.912  0.1312 -0.1892 -0.0460
  146MOL   C11746807  12.583   6.487   5.862 -0.6987 -0.7488  0.3881
  146MOL   C11846808  12.614   6.378   5.778  0.3238  0.3252  0.3105
  146MOL   C11946809  12.759   6.369   5.733 -0.6965  0.4176 -0.2189
  146MOL   C12046810  12.517   6.283   5.748 -0.5612 -0.1934  0.0684
  146MOL   C12146811  12.387   6.306   5.782 -0.6401 -0.4847  0.3336
  146MOL   H12246812  12.143   6.364   5.836  1.9113  0.6662 -1.4824
  146MOL   H12346813  12.199   6.419   5.999  1.3265 -0.0184  1.1169
  146MOL   H12446814  12.432   6.577   5.978  0.3123  0.0887 -0.3392
  146MOL   H12546815  12.649   6.567   5.893 -0.4275 -0.0200 -1.9540
  146MOL   H12646816  12.763   6.340   5.628  1.9884 -0.2312  0.0416
  146MOL   H12746817  12.813   6.463   5.739 -0.9428  0.5247  0.3871
  146MOL   H12846818  12.533   6.192   5.692 -0.4828 -0.8234  1.0869
  146MOL   H12946819  12.313   6.233   5.751 -0.5551 -0.7277  0.7020
  146MOL   C13046820  12.826   6.263   5.815 -0.3306 -0.2141  0.2932
  146MOL   C13146821  12.975   6.264   5.784 -0.6932  0.2518 -0.9045
  146MOL   C13246822  13.030   6.198   5.676 -0.2855  0.2482 -0.0841
  146MOL   C13346823  13.166   6.207   5.645  0.3850 -0.0777  0.1261
  146MOL   C13446824  13.254   6.271   5.730  0.2033  0.2845 -0.1937
  146MOL   C13546825  13.401   6.270   5.701 -0.1386  0.0488  0.1874
  146MOL   C13646826  13.196   6.352   5.837  0.2684  0.0415 -0.4577
  146MOL   C13746827  13.055   6.345   5.870  0.1278  0.1488  0.8006
  146MOL   H13846828  12.779   6.166   5.798 -0.4563  0.2033 -1.8498
  146MOL   H13946829  12.810   6.282   5.921 -0.7527 -0.0493  0.2005
  146MOL   H14046830  12.967   6.138   5.612  0.5204 -0.2235 -0.4433
  146MOL   H14146831  13.208   6.152   5.563 -1.9876 -1.5573 -0.1501
  146MOL   H14246832  13.425   6.209   5.614  4.4481  2.4052 -0.3517
  146MOL   H14346833  13.417   6.376   5.680  0.9867 -0.3930 -1.2832
  146MOL   H14446834  13.262   6.412   5.897 -1.0224  0.0388  1.0010
  146MOL   H14546835  13.010   6.393   5.955  0.3468 -0.8142  1.4739
  146MOL   C14646836  13.479   6.213   5.823  0.1370  0.2872  0.1662
  146MOL   C14746837  13.625   6.187   5.784  0.1184  0.0921 -0.2243
  146MOL   C14846838  13.656   6.104   5.676 -0.6224  0.0686  0.0047
  146MOL   C14946839  13.791   6.095   5.644 -0.0774  0.0357  0.4436
  146MOL   C15046840  13.893   6.169   5.712  0.2898  0.1455  0.1147
  146MOL   C15146841  14.036   6.155   5.670 -0.0238 -1.1020  0.3031
  146MOL   C15246842  13.861   6.239   5.833  0.8762  0.2249 -0.3274
  146MOL   C15346843  13.723   6.248   5.865 -0.0744 -0.2819  0.3166
  146MOL   H15446844  13.424   6.130   5.866 -0.7742 -0.6956 -2.7689
  146MOL   H15546845  13.467   6.281   5.907  3.4292  0.5980  0.4579
  146MOL   H15646846  13.581   6.051   5.620 -0.1564 -0.9453  0.3206
  146MOL   H15746847  13.826   6.030   5.564 -0.0869 -2.0552  2.0949
  146MOL   H15846848  14.039   6.129   5.564 -1.4493 -1.3635  0.3078
  146MOL   H15946849  14.075   6.256   5.671 -1.7345 -0.4193  0.1435
  146MOL   H16046850  13.942   6.276   5.895  1.3950 -1.8628  0.2612
  146MOL   H16146851  13.704   6.306   5.953 -0.4545 -0.2243  0.1970
  146MOL   C16246852  14.106   6.038   5.746 -0.5009  0.0346 -0.0138
  146MOL   C16346853  14.247   6.028   5.705 -0.3941 -0.2902  0.3434
  146MOL   C16446854  14.311   5.901   5.692  0.2708  0.6304 -0.2563
  146MOL   C16546855  14.453   5.900   5.664  0.4596  0.4952 -0.1310
  146MOL   C16646856  14.518   6.020   5.623  0.1462 -0.0040 -0.6017
  146MOL   C16746857  14.659   6.013   5.576 -0.1943  0.2632  0.3268
  146MOL   C16846858  14.451   6.142   5.642  0.7201 -0.6603  0.8598
  146MOL   C16946859  14.322   6.143   5.689 -0.2719  0.0158 -0.1054
  146MOL   H17046860  14.052   5.943   5.753 -1.2840  0.5850  1.6550
  146MOL   H17146861  14.103   6.077   5.848 -1.4934 -0.9457  0.3471
  146MOL   H17246862  14.257   5.812   5.720 -1.4265  1.3466 -1.1780
  146MOL   H17346863  14.511   5.809   5.672 -0.3812 -0.2366 -2.0938
  146MOL   H17446864  14.684   5.909   5.557 -1.4285 -0.0250  0.2432
  146MOL   H17546865  14.680   6.065   5.483  0.1681 -1.9690 -0.8645
  146MOL   H17646866  14.512   6.231   5.645  1.1599 -0.9409  0.3266
  146MOL   H17746867  14.281   6.240   5.712 -0.1470  0.2537 -0.8693
  146MOL   C17846868  14.747   6.064   5.688  0.0105 -0.4169  0.0326
  146MOL   C17946869  14.891   6.081   5.644 -0.3283  0.0486 -0.1295
  146MOL   C18046870  14.938   6.188   5.567  0.4492  0.0129 -0.4283
  146MOL   C18146871  15.074   6.196   5.530 -0.4595  0.2794  0.1678
  146MOL   C18246872  15.168   6.105   5.585  0.4975  0.2281 -0.1436
  146MOL   C18346873  15.316   6.123   5.563  0.4969  0.1223 -0.0331
  146MOL   C18446874  15.122   5.990   5.654 -0.7229  0.5938  0.3364
  146MOL   C18546875  14.980   5.980   5.676  0.3027  0.2683 -0.5578
  146MOL   H18646876  14.731   6.003   5.777 -0.9838  1.0449  0.8932
  146MOL   H18746877  14.710   6.164   5.711  0.5159 -0.4215  0.8850
  146MOL   H18846878  14.861   6.260   5.542  1.2736  0.3615 -2.0727
  146MOL   H18946879  15.111   6.276   5.468  0.0726  0.0487  0.1872
  146MOL   H19046880  15.342   6.226   5.590  0.9859  0.0351 -0.1690
  146MOL   H19146881  15.385   6.066   5.626 -0.9037 -1.9983 -0.3840
  146MOL   H19246882  15.191   5.912   5.685 -1.5693 -0.5482 -0.5877
  146MOL   H19346883  14.946   5.893   5.729  0.5231  0.6879  0.2758
  146MOL   C19446884  15.341   6.111   5.415 -0.0626  0.5411  0.4651
  146MOL   C19546885  15.484   6.127   5.362  0.3952  0.0882  0.5531
  146MOL   C19646886  15.577   6.020   5.341  0.5111  0.1132  0.3984
  146MOL   C19746887  15.708   6.047   5.291  0.6520  0.7051  0.0221
  146MOL   C19846888  15.751   6.180   5.274 -0.6894  0.3264  0.2617
  146MOL   C19946889  15.899   6.205   5.248  0.4744 -0.5424  1.6302
  146MOL   C20046890  15.656   6.281   5.302 -0.4581 -0.5816  0.0033
  146MOL   C20146891  15.524   6.259   5.341 -0.4233 -0.3856  0.0584
  146MOL   H20246892  15.294   6.192   5.359  0.1251 -0.5498 -1.3023
  146MOL   H20346893  15.304   6.018   5.372  0.3715  1.3011 -1.5757
  146MOL   H20446894  15.532   5.922   5.347 -0.1123  0.4728  2.0991
  146MOL   H20546895  15.776   5.964   5.282 -0.6524 -0.3091 -0.5543
  146MOL   H20646896  15.921   6.292   5.310 -0.9482  0.6510  0.5029
  146MOL   H20746897  15.954   6.119   5.283  0.4632 -1.3674 -0.3237
  146MOL   H20846898  15.682   6.385   5.289  0.9731 -1.1731 -2.1858
  146MOL   H20946899  15.461   6.346   5.344 -1.3491 -1.0492 -0.1253
  146MOL   C21046900  15.942   6.233   5.104 -0.3144  0.0377 -0.5250
  146MOL   C21146901  16.091   6.253   5.101 -1.0488  0.0349  0.1680
  146MOL   C21246902  16.177   6.148   5.071  0.3850 -0.4889  0.1425
  146MOL   C21346903  16.316   6.170   5.064 -0.3077 -0.3804  0.1107
  146MOL   C21446904  16.370   6.295   5.095 -0.6430 -1.5822 -0.4246
  146MOL   C21546905  16.519   6.323   5.102  0.3164  0.4506 -0.1341
  146MOL   C21646906  16.282   6.396   5.140 -0.4494  0.1310  0.2683
  146MOL   C21746907  16.143   6.375   5.132  0.1890 -0.1809 -1.3943
  146MOL   H21846908  15.899   6.325   5.067  0.2756 -0.2935 -2.0384
  146MOL   H21946909  15.903   6.154   5.039  1.4948  0.9606 -2.7925
  146MOL   H22046910  16.145   6.048   5.043  1.1325 -1.1949  1.7443
  146MOL   H22146911  16.387   6.091   5.046  0.3922  0.5752 -1.4533
  146MOL   H22246912  16.545   6.382   5.190  1.4573  1.8563 -1.3836
  146MOL   H22346913  16.564   6.229   5.135 -2.3826 -1.4728 -1.7161
  146MOL   H22446914  16.320   6.496   5.156  0.0918  1.0779 -5.5900
  146MOL   H22546915  16.078   6.454   5.164  1.1600 -0.3848  1.1693
  146MOL   C22646916  16.580   6.376   4.969 -0.6165 -0.0460  0.0964
  146MOL   C22746917  16.726   6.422   4.971 -0.3025  0.2253  0.1868
  146MOL   C22846918  16.765   6.554   4.942 -0.1114 -0.4442 -0.1314
  146MOL   C22946919  16.892   6.604   4.972  0.0862  0.1095 -0.3881
  146MOL   C23046920  16.995   6.514   5.016 -0.2507  0.3857 -0.5518
  146MOL   C23146921  17.134   6.555   5.044  0.1060 -0.1210  0.0202
  146MOL   C23246922  16.961   6.381   5.028  0.3844 -0.3174 -0.4179
  146MOL   C23346923  16.830   6.332   5.003  0.2956 -0.1643  0.0226
  146MOL   H23446924  16.522   6.455   4.924 -0.0432 -0.4264 -1.3509
  146MOL   H23546925  16.560   6.294   4.900 -0.5994 -0.5717  0.7048
  146MOL   H23646926  16.695   6.633   4.921  0.2527  0.2020  1.0660
  146MOL   H23746927  16.922   6.707   4.961 -0.4090  0.3199  0.2197
  146MOL   H23846928  17.143   6.662   5.059 -2.3503 -0.0489  1.0612
  146MOL   H23946929  17.164   6.496   5.131 -1.5286 -0.7703  0.1535
  146MOL   H24046930  17.036   6.310   5.058  0.9368 -0.9435 -3.1229
  146MOL   H24146931  16.808   6.227   5.013 -0.1996  0.0073  0.7269
  146MOL   C24246932  17.214   6.524   4.918  0.0776  0.2411  0.3447
  146MOL   C24346933  17.352   6.574   4.954 -0.4538  0.2955 -0.2636
  146MOL   C24446934  17.445   6.492   5.024 -0.1548  0.0821  0.2184
  146MOL   C24546935  17.568   6.542   5.054 -0.5177 -0.5937  0.1767
  146MOL   C24646936  17.601   6.674   5.018  0.4137 -0.0190 -0.1701
  146MOL   C24746937  17.742   6.725   5.048  0.6847 -0.2804  0.0638
  146MOL   C24846938  17.509   6.763   4.958  0.2183 -0.5502 -0.4285
  146MOL   C24946939  17.382   6.710   4.924 -0.3702  0.3732 -0.2521
  146MOL   H25046940  17.207   6.417   4.898 -0.7576  0.3670 -0.0784
  146MOL   H25146941  17.178   6.589   4.838  1.4334 -0.3412 -0.7497
  146MOL   H25246942  17.430   6.387   5.041  0.2494 -0.5176 -2.8482
  146MOL   H25346943  17.640   6.480   5.105  0.0688 -1.7508 -1.9577
  146MOL   H25446944  17.743   6.807   5.120 -2.6592 -0.9755  0.9801
  146MOL   H25546945  17.797   6.643   5.095  1.2297  1.4843  2.6058
  146MOL   H25646946  17.540   6.865   4.939  2.4285 -1.0981  0.1118
  146MOL   H25746947  17.310   6.781   4.887  0.2424  1.7423  1.1307
  146MOL   C25846948  17.816   6.753   4.919  0.0127 -1.0346  0.1745
  146MOL   C25946949  17.968   6.725   4.921  0.4488  0.6084  0.2078
  146MOL   C26046950  18.042   6.717   4.802 -0.0619 -0.5710  0.6248
  146MOL   C26146951  18.181   6.693   4.805  0.2092 -0.5405  0.4229
  146MOL   C26246952  18.248   6.670   4.924  0.5797 -0.2723 -0.0690
  146MOL   C26346953  18.388   6.604   4.925 -0.2649  0.4937  0.0181
  146MOL   C26446954  18.177   6.679   5.044 -0.2439  0.6871 -0.1271
  146MOL   C26546955  18.043   6.715   5.045  0.5108 -0.5604 -0.0545
  146MOL   H26646956  17.792   6.847   4.869  0.8419 -1.4465 -1.0250
  146MOL   H26746957  17.792   6.673   4.849  0.9347  1.0863 -2.6225
  146MOL   H26846958  17.989   6.716   4.708 -0.3684 -2.1973  0.8018
  146MOL   H26946959  18.240   6.673   4.717 -1.2483  0.9444 -0.9307
  146MOL   H27046960  18.416   6.630   5.027  2.4774 -0.7117 -0.3980
  146MOL   H27146961  18.383   6.497   4.907  1.0082  0.2511  1.0273
  146MOL   H27246962  18.236   6.692   5.134  0.2511  0.5284 -0.4278
  146MOL   H27346963  17.985   6.726   5.135  0.2303 -0.9384 -0.1909
  146MOL   C27446964  18.485   6.672   4.824 -0.0168 -0.1928  0.0329
  146MOL   C27546965  18.635   6.617   4.835  0.0886  0.2635  0.1883
  146MOL   C27646966  18.737   6.684   4.756 -0.4331  0.8438  0.0770
  146MOL   C27746967  18.871   6.644   4.774 -0.2994  0.5985 -0.4949
  146MOL   C27846968  18.903   6.544   4.859  0.1803  0.2861  0.2334
  146MOL   C27946969  19.046   6.514   4.890 -0.1084  0.0140  0.4463
  146MOL   C28046970  18.804   6.472   4.929 -0.2149  0.1302  0.1077
  146MOL   C28146971  18.672   6.511   4.920 -0.0212  0.5214  0.2556
  146MOL   H28246972  18.449   6.652   4.723 -0.2092  1.1246 -0.1621
  146MOL   H28346973  18.478   6.780   4.838 -0.5485 -0.1199 -0.7638
  146MOL   H28446974  18.719   6.767   4.689 -0.1361 -0.3863 -1.5677
  146MOL   H28546975  18.941   6.703   4.716 -0.8214  1.5124 -0.2155
  146MOL   H28646976  19.041   6.458   4.983  1.5557  0.3100  0.7326
  146MOL   H28746977  19.095   6.436   4.831  1.9254  1.0414  0.7539
  146MOL   H28846978  18.836   6.409   5.012  2.1183  1.6549  0.4171
  146MOL   H28946979  18.598   6.468   4.986  1.1293 -0.8349  0.6778
  146MOL   C29046980  19.134   6.633   4.896 -0.2093 -0.3296  0.1650
  146MOL   C29146981  19.288   6.625   4.885 -0.0724  0.5184  0.1014
  146MOL   C29246982  19.349   6.537   4.789 -0.1391  0.5595 -0.0732
  146MOL   C29346983  19.490   6.531   4.777 -0.0938  0.5672  0.1954
  146MOL   C29446984  19.569   6.598   4.869  0.4845 -0.1128  0.1431
  146MOL   C29546985  19.720   6.596   4.847 -0.1765 -0.3140  0.8241
  146MOL   C29646986  19.514   6.691   4.961  0.3179 -0.3710 -0.0439
  146MOL   C29746987  19.375   6.690   4.978  0.0389  0.1023 -0.2802
  146MOL   H29846988  19.104   6.682   4.988  2.3546  0.2746  0.7275
  146MOL   H29946989  19.103   6.713   4.829 -3.4166 -0.5370  1.3309
  146MOL   H30046990  19.290   6.480   4.719  0.8037  0.7903 -1.0877
  146MOL   H30146991  19.536   6.471   4.700  0.4329  0.0499  0.9011
  146MOL   H30246992  19.773   6.630   4.935  0.9442 -0.7117  0.3109
  146MOL   H30346993  19.755   6.494   4.836  0.3011 -0.0538 -0.1894
  146MOL   H30446994  19.572   6.751   5.030 -0.8295  0.1854  0.4502
  146MOL   H30546995  19.339   6.755   5.057 -0.6226  1.2917 -1.5294
  146MOL   C30646996  19.767   6.673   4.725 -0.2784 -0.1795 -0.1993
  146MOL   C30746997  19.910   6.639   4.689  0.3948 -0.6837  0.2146
  146MOL   C30846998  20.011   6.644   4.787 -0.5188  0.2267 -0.3954
  146MOL   C30946999  20.150   6.621   4.756  0.0559 -0.8818  0.0742
  146MOL   C31047000  20.192   6.604   4.624 -0.6354  0.1053 -1.0680
  146MOL   C31147001  20.336   6.594   4.578 -0.2055  0.0071  0.8474
  146MOL   C31247002  20.087   6.591   4.531 -0.8458  0.2211  0.6866
  146MOL   C31347003  19.953   6.618   4.558  0.6762 -0.3203 -0.0441
  146MOL   H31447004  19.767   6.781   4.745 -0.2544 -0.6145  2.4189
  146MOL   H31547005  19.707   6.652   4.637  2.1568  0.3881 -2.0412
  146MOL   H31647006  19.987   6.655   4.892  1.1873 -0.4684  0.0939
  146MOL   H31747007  20.223   6.617   4.836  0.3278 -0.5630 -0.1598
  146MOL   H31847008  20.383   6.496   4.571  1.1716  0.6561  0.7337
  146MOL   H31947009  20.341   6.644   4.481 -1.1674 -0.1551  0.7208
  146MOL   H32047010  20.108   6.569   4.427 -0.6024  1.7334  0.4069
  146MOL   H32147011  19.886   6.625   4.473  0.2726  0.9716  0.3735
  146MOL   H32247012  20.397   6.657   4.643  1.9210  0.3667 -1.3936
  147MOL     C147013   4.173   1.205   3.227 -0.2823  0.5337 -0.3092
  147MOL     C247014   4.324   1.189   3.234  0.1873  0.0744  0.2131
  147MOL     C347015   4.389   1.236   3.346  0.1621 -0.7975  0.5474
  147MOL     C447016   4.531   1.236   3.352 -0.0465 -0.3245 -0.1075
  147MOL     C547017   4.604   1.170   3.252 -0.5355 -0.0974  0.3347
  147MOL     C647018   4.758   1.167   3.257  0.4563 -0.3436  0.0756
  147MOL     C747019   4.536   1.113   3.137  0.7746 -0.5675 -0.1284
  147MOL     C847020   4.392   1.130   3.129  0.6280 -0.0725 -0.0893
  147MOL     H947021   4.145   1.147   3.139 -0.7931  1.5812 -0.8379
  147MOL    H1047022   4.131   1.149   3.310  1.6777  0.7806  0.8798
  147MOL    H1147023   4.336   1.294   3.420 -0.6322  1.4483 -1.7198
  147MOL    H1247024   4.588   1.285   3.429 -1.6164  0.5657  0.4939
  147MOL    H1347025   4.783   1.221   3.166 -0.6313 -0.1337 -0.1073
  147MOL    H1447026   4.799   1.214   3.347  0.9068  0.9716 -0.8001
  147MOL    H1547027   4.586   1.072   3.050 -0.7412 -0.8718 -0.8885
  147MOL    H1647028   4.339   1.079   3.050  0.1554 -1.8563  1.3334
  147MOL    H1747029   4.147   1.311   3.221  1.9020  1.1467  0.4802
  147MOL    C1847030   4.813   1.019   3.247  0.3041 -0.5978  0.1119
  147MOL    C1947031   4.961   1.007   3.224  0.1294  0.0471 -0.1213
  147MOL    C2047032   5.052   1.035   3.325  0.1108 -0.0088  0.0282
  147MOL    C2147033   5.189   1.009   3.312 -0.2462  0.3675 -0.3675
  147MOL    C2247034   5.241   0.948   3.204 -0.0189 -0.5989  0.2542
  147MOL    C2347035   5.388   0.922   3.209  0.7896 -0.4603  0.6065
  147MOL    C2447036   5.163   0.932   3.090  0.5069  1.0285  0.0047
  147MOL    C2547037   5.024   0.960   3.107  0.0778  0.4078  0.4310
  147MOL    H2647038   4.780   0.960   3.332  0.4514  0.6391  1.0399
  147MOL    H2747039   4.766   0.972   3.161 -2.1615  0.5500  0.7855
  147MOL    H2847040   5.010   1.064   3.420  0.6871  1.3769 -0.1237
  147MOL    H2947041   5.254   1.038   3.394 -1.6282  3.3087 -0.2353
  147MOL    H3047042   5.437   0.962   3.297  0.4681 -0.7534  0.9196
  147MOL    H3147043   5.431   0.967   3.120  0.7903  1.0376  1.3562
  147MOL    H3247044   5.204   0.896   2.997 -2.9009  0.7264 -1.4179
  147MOL    H3347045   4.956   0.940   3.025  0.9644 -1.4577  0.1344
  147MOL    C3447046   5.425   0.776   3.197  0.8704  1.2291  0.4551
  147MOL    C3547047   5.569   0.756   3.182 -0.5342 -0.2733  0.2621
  147MOL    C3647048   5.630   0.696   3.069  0.2268  0.5063  0.4289
  147MOL    C3747049   5.764   0.679   3.063  0.2894  0.0523 -0.4006
  147MOL    C3847050   5.848   0.725   3.166  0.3954  0.3422  0.4358
  147MOL    C3947051   5.997   0.706   3.164  0.0756  0.2634  0.5156
  147MOL    C4047052   5.800   0.795   3.276 -0.4449 -0.3981  0.4084
  147MOL    C4147053   5.659   0.815   3.280  0.4373 -0.4039 -0.1885
  147MOL    H4247054   5.374   0.736   3.110  1.6380 -0.0235  0.5663
  147MOL    H4347055   5.388   0.725   3.286 -0.8312  1.1072 -0.3123
  147MOL    H4447056   5.569   0.660   2.987  2.0873  0.9332 -1.1763
  147MOL    H4547057   5.805   0.638   2.972 -0.4094  0.7215 -1.0150
  147MOL    H4647058   6.051   0.756   3.084 -1.2994 -1.4080 -1.5109
  147MOL    H4747059   6.037   0.756   3.252  2.3278 -0.3841 -0.1052
  147MOL    H4847060   5.866   0.831   3.353  0.2975 -4.0401  1.5587
  147MOL    H4947061   5.621   0.863   3.368  0.0036 -1.4516  0.2051
  147MOL    C5047062   6.035   0.560   3.180  0.2891  0.6557 -0.1049
  147MOL    C5147063   6.182   0.531   3.151 -0.1362 -0.9581  0.6576
  147MOL    C5247064   6.278   0.568   3.248  0.7385  0.4678  0.0192
  147MOL    C5347065   6.413   0.546   3.237  0.4983  0.7456 -0.2858
  147MOL    C5447066   6.452   0.477   3.118 -0.1732 -0.4998 -0.0196
  147MOL    C5547067   6.600   0.445   3.099  0.6953 -0.6305 -0.4543
  147MOL    C5647068   6.359   0.449   3.011  0.4203 -0.4151  0.0836
  147MOL    C5747069   6.222   0.472   3.030  0.1626 -0.3004 -0.4198
  147MOL    H5847070   5.966   0.498   3.122  1.5568 -1.5301  0.6825
  147MOL    H5947071   6.006   0.542   3.283 -0.0491  1.5270 -0.0417
  147MOL    H6047072   6.247   0.617   3.339 -0.1348  0.2068 -0.1271
  147MOL    H6147073   6.482   0.560   3.318 -0.4113 -1.4897  0.9093
  147MOL    H6247074   6.620   0.437   2.992 -0.8954  0.0372 -0.8189
  147MOL    H6347075   6.665   0.513   3.154  0.7768 -1.7991  0.9132
  147MOL    H6447076   6.389   0.394   2.923 -0.6651 -1.2433  0.2201
  147MOL    H6547077   6.153   0.456   2.948 -1.9131  1.8110  0.8562
  147MOL    C6647078   6.624   0.303   3.157  0.6901 -0.5856 -0.0012
  147MOL    C6747079   6.771   0.256   3.132  1.1485  0.3781  0.6522
  147MOL    C6847080   6.874   0.289   3.224 -0.3572 -0.3020 -0.4875
  147MOL    C6947081   7.010   0.267   3.183  0.9082 -0.0008  0.2700
  147MOL    C7047082   7.047   0.201   3.070  0.0389  0.3371  0.2229
  147MOL    C7147083   7.189   0.163   3.030 -0.2189  0.2866 -0.1890
  147MOL    C7247084   6.941   0.166   2.978  0.1362  0.2197 -0.0188
  147MOL    C7347085   6.809   0.196   3.009 -0.3546  0.2714  0.1351
  147MOL    H7447086   6.563   0.224   3.114  1.1850 -1.5469  1.0625
  147MOL    H7547087   6.609   0.301   3.265  0.2419  1.4398  0.0058
  147MOL    H7647088   6.853   0.337   3.318  0.1618  0.2936 -0.6726
  147MOL    H7747089   7.089   0.298   3.250  1.4285  0.3124 -0.4839
  147MOL    H7847090   7.263   0.241   3.042  0.3655 -0.1952 -0.6261
  147MOL    H7947091   7.175   0.164   2.922 -1.2031  0.5826 -0.0610
  147MOL    H8047092   6.966   0.125   2.882  2.2951  0.2929  0.4934
  147MOL    H8147093   6.734   0.179   2.933 -0.2685  0.3630  0.0290
  147MOL    C8247094   7.240   0.028   3.079  0.2335  0.0192  0.5709
  147MOL    C8347095   7.335   0.043   3.202  0.2368  0.5613  0.5314
  147MOL    C8447096   7.273   0.087   3.317 -0.1313  0.2328 -0.0923
  147MOL    C8547097   7.351   0.107   3.437 -0.6534  0.3065  0.0320
  147MOL    C8647098   7.496   0.097   3.432  0.3642  0.1048 -0.0801
  147MOL    C8747099   7.578   0.146   3.549  0.8856  0.2402 -0.1753
  147MOL    C8847100   7.550   0.045   3.314  0.0691 -0.1059 -0.1489
  147MOL    C8947101   7.470   0.012   3.201 -0.4959 -0.3755  0.4163
  147MOL    H9047102   7.307  -0.020   3.007  1.0518  1.2492  0.4908
  147MOL    H9147103   7.159  -0.044   3.092  0.3558  0.0114  1.3242
  147MOL    H9247104   7.167   0.105   3.312 -0.7979 -3.4870 -1.1721
  147MOL    H9347105   7.299   0.145   3.523 -1.2062 -1.0250  0.3077
  147MOL    H9447106   7.671   0.095   3.572  1.0945  0.7429  0.1278
  147MOL    H9547107   7.512   0.123   3.632  1.7753 -2.9289 -0.2861
  147MOL    H9647108   7.657   0.033   3.309  0.0109  0.0400 -2.2118
  147MOL    H9747109   7.507  -0.028   3.108 -0.2982 -0.4670  0.5351
  147MOL    C9847110   7.603   0.302   3.549 -0.2408 -0.3371  0.2776
  147MOL    C9947111   7.478   0.393   3.553  0.9531 -0.2617  0.0257
  147MOL   C10047112   7.374   0.377   3.650  0.4281 -0.0193 -0.4548
  147MOL   C10147113   7.265   0.465   3.653 -0.1911  0.6584 -0.5265
  147MOL   C10247114   7.254   0.566   3.561 -0.1883  0.2466  0.0721
  147MOL   C10347115   7.136   0.657   3.554  0.1979 -0.4570 -0.1415
  147MOL   C10447116   7.361   0.592   3.474  0.2901 -0.7416  0.4093
  147MOL   C10547117   7.468   0.508   3.470 -0.5682 -0.0036  0.4413
  147MOL   H10647118   7.659   0.342   3.466 -0.5225  1.4138  0.9199
  147MOL   H10747119   7.665   0.329   3.635 -1.7862 -1.8539  1.9369
  147MOL   H10847120   7.376   0.300   3.726  2.4282 -0.2638 -0.7369
  147MOL   H10947121   7.189   0.438   3.725  0.1649 -1.6806 -0.9946
  147MOL   H11047122   7.101   0.662   3.657  3.4915 -0.1542  1.0444
  147MOL   H11147123   7.160   0.760   3.526 -0.1061 -1.0321 -2.6513
  147MOL   H11247124   7.357   0.679   3.411  0.6133 -0.3087  0.9827
  147MOL   H11347125   7.554   0.539   3.413 -0.7967  0.3453  0.2828
  147MOL   C11447126   7.024   0.601   3.466 -0.0077  1.0859 -0.0293
  147MOL   C11547127   6.895   0.671   3.497  0.7855  0.0571 -0.1860
  147MOL   C11647128   6.877   0.807   3.463 -0.6010 -0.0754 -0.3277
  147MOL   C11747129   6.754   0.869   3.493  0.9287 -0.0996 -0.4961
  147MOL   C11847130   6.642   0.798   3.540 -0.3075  1.1499 -0.0260
  147MOL   C11947131   6.515   0.863   3.580  0.4897 -0.5563 -0.1088
  147MOL   C12047132   6.665   0.663   3.577  0.1595 -0.1328  0.1797
  147MOL   C12147133   6.789   0.600   3.557 -0.2273 -0.0116  0.0846
  147MOL   H12247134   7.027   0.492   3.476  1.0020  1.0870 -0.2662
  147MOL   H12347135   7.047   0.625   3.362 -0.8970 -0.4541 -0.5994
  147MOL   H12447136   6.950   0.870   3.414 -0.0764 -0.4992 -0.0937
  147MOL   H12547137   6.737   0.976   3.487  0.0553 -0.0669  2.0480
  147MOL   H12647138   6.462   0.805   3.656  1.2140 -0.6480  0.3326
  147MOL   H12747139   6.543   0.954   3.633 -2.4920  1.5360 -1.9881
  147MOL   H12847140   6.586   0.603   3.620  1.9144 -0.6112  2.8811
  147MOL   H12947141   6.794   0.493   3.571 -2.0890 -0.1371 -0.1483
  147MOL   C13047142   6.429   0.891   3.458  0.0612  0.7441  0.6527
  147MOL   C13147143   6.296   0.949   3.491  0.0298  0.3698  0.3355
  147MOL   C13247144   6.282   1.090   3.490  0.7019  0.0809 -0.2441
  147MOL   C13347145   6.159   1.141   3.529 -0.1075  1.4087 -0.1601
  147MOL   C13447146   6.055   1.057   3.577 -0.8051  0.2416  0.1694
  147MOL   C13547147   5.933   1.133   3.617 -0.0741  0.1388 -1.0474
  147MOL   C13647148   6.070   0.920   3.582 -0.6058 -0.0407 -0.1168
  147MOL   C13747149   6.196   0.866   3.545  0.3237  0.0484  0.2168
  147MOL   H13847150   6.414   0.796   3.407  0.6614  0.3035  1.2827
  147MOL   H13947151   6.472   0.951   3.377 -0.4447  0.4926  0.1961
  147MOL   H14047152   6.360   1.158   3.458  0.6954  0.4832  0.5724
  147MOL   H14147153   6.146   1.248   3.525  1.9382  1.6891  0.0833
  147MOL   H14247154   5.910   1.113   3.721  0.9782 -1.2516 -1.0662
  147MOL   H14347155   5.956   1.240   3.620 -1.3253  0.3754  0.5483
  147MOL   H14447156   5.989   0.851   3.601 -1.3711  1.3016  1.6464
  147MOL   H14547157   6.209   0.759   3.557  1.9418  0.3462  1.2884
  147MOL   C14647158   5.810   1.097   3.527 -0.4318  0.1658  0.6030
  147MOL   C14747159   5.676   1.159   3.569  0.3044 -0.3947 -0.0054
  147MOL   C14847160   5.565   1.081   3.589 -0.2666 -0.3893 -0.6558
  147MOL   C14947161   5.438   1.138   3.613  0.8071 -0.7321  0.2989
  147MOL   C15047162   5.427   1.276   3.624 -0.4165 -0.0162  0.3371
  147MOL   C15147163   5.291   1.345   3.659  0.5726 -0.5234 -0.9583
  147MOL   C15247164   5.545   1.352   3.593 -0.3303 -0.7155  0.6268
  147MOL   C15347165   5.663   1.295   3.572 -0.7923 -0.3546  0.1819
  147MOL   H15447166   5.793   0.990   3.512 -0.7725  0.2576  0.3396
  147MOL   H15547167   5.819   1.137   3.426  0.9097  0.9641  1.0148
  147MOL   H15647168   5.569   0.973   3.585  0.0454 -0.3940 -0.2434
  147MOL   H15747169   5.352   1.075   3.628  1.1823 -1.4821 -0.6166
  147MOL   H15847170   5.251   1.292   3.745  1.4113  0.6401  0.1656
  147MOL   H15947171   5.313   1.443   3.701 -2.3260 -0.3186  0.2021
  147MOL   H16047172   5.538   1.459   3.599 -0.0413 -0.6835  0.4238
  147MOL   H16147173   5.758   1.342   3.555 -0.8273 -0.2837  0.1805
  147MOL   C16247174   5.202   1.350   3.541 -0.3026 -1.0660  0.4638
  147MOL   C16347175   5.065   1.384   3.585 -0.0317  0.2083  0.3752
  147MOL   C16447176   4.964   1.285   3.609  0.1422 -0.2488  0.4042
  147MOL   C16547177   4.839   1.329   3.649 -0.6746  0.7295  0.2955
  147MOL   C16647178   4.808   1.466   3.657 -0.3167  0.0715  0.0328
  147MOL   C16747179   4.678   1.524   3.712 -0.6158  0.1478 -0.1294
  147MOL   C16847180   4.904   1.559   3.625 -0.7292 -0.0059  0.2152
  147MOL   C16947181   5.035   1.516   3.593  0.1812 -0.1797 -0.7866
  147MOL   H17047182   5.203   1.252   3.492  3.1611 -0.6487 -0.3849
  147MOL   H17147183   5.235   1.414   3.460 -1.2420 -0.0554  0.8724
  147MOL   H17247184   4.975   1.178   3.618  2.3931  0.0396  1.3753
  147MOL   H17347185   4.766   1.254   3.675  0.2533 -0.6539 -0.9688
  147MOL   H17447186   4.634   1.457   3.787 -2.5562  1.6731  0.1327
  147MOL   H17547187   4.693   1.611   3.775 -0.6061 -0.2193  0.3822
  147MOL   H17647188   4.881   1.665   3.628  2.2833  0.6919  0.3562
  147MOL   H17747189   5.113   1.590   3.581 -0.8126  0.8978 -0.7347
  147MOL   C17847190   4.585   1.555   3.596  0.0971 -0.2615 -0.3377
  147MOL   C17947191   4.454   1.613   3.617  0.6741  0.2913 -0.0149
  147MOL   C18047192   4.438   1.747   3.567  0.7052  0.0980 -0.1455
  147MOL   C18147193   4.332   1.820   3.616 -0.1892 -0.4340 -0.6151
  147MOL   C18247194   4.233   1.757   3.693  0.3556 -0.6245  0.7285
  147MOL   C18347195   4.110   1.838   3.738  0.3189 -0.3436  0.4468
  147MOL   C18447196   4.243   1.618   3.735 -0.6617 -0.3097 -0.1435
  147MOL   C18547197   4.350   1.539   3.687 -0.7725  0.5113 -0.6250
  147MOL   H18647198   4.562   1.459   3.549  3.2916 -0.7487 -1.0403
  147MOL   H18747199   4.642   1.600   3.515  0.5864 -0.9937 -0.4050
  147MOL   H18847200   4.523   1.795   3.521  0.2390 -0.9169 -2.0727
  147MOL   H18947201   4.327   1.924   3.588  1.4520  0.3179  1.7654
  147MOL   H19047202   4.109   1.848   3.846 -1.7825  1.1422  0.3145
  147MOL   H19147203   4.105   1.941   3.703 -0.9089  0.1419  2.0175
  147MOL   H19247204   4.162   1.574   3.790 -0.6196  0.2233  0.3501
  147MOL   H19347205   4.365   1.437   3.719 -2.1821  1.0147  1.7836
  147MOL   C19447206   3.986   1.764   3.685  0.1155 -0.9761  0.1621
  147MOL   C19547207   3.849   1.836   3.712 -0.1898  0.7311 -0.2735
  147MOL   C19647208   3.750   1.769   3.781  0.6186 -0.7155  0.1430
  147MOL   C19747209   3.627   1.828   3.810 -0.2126  0.2381  0.2865
  147MOL   C19847210   3.607   1.958   3.756 -0.0529 -1.3551 -0.5014
  147MOL   C19947211   3.471   2.021   3.787 -0.0752  0.0053  0.0851
  147MOL   C20047212   3.709   2.029   3.689  0.4291  0.2211 -0.2558
  147MOL   C20147213   3.831   1.965   3.669 -0.1641  0.4874 -0.4559
  147MOL   H20247214   3.978   1.658   3.711  0.6729 -1.6617 -2.3201
  147MOL   H20347215   4.009   1.751   3.580  1.2401 -2.3313  0.5486
  147MOL   H20447216   3.776   1.667   3.807  1.1286 -0.3960  0.9166
  147MOL   H20547217   3.560   1.772   3.874 -0.3952  0.3745  0.2158
  147MOL   H20647218   3.454   2.003   3.893 -1.5153 -2.0780 -0.4686
  147MOL   H20747219   3.472   2.129   3.773 -4.1761  0.1069 -0.2180
  147MOL   H20847220   3.693   2.131   3.660 -2.3793  0.3416  1.4695
  147MOL   H20947221   3.914   2.025   3.635  0.7234 -0.0685  0.7164
  147MOL   C21047222   3.357   1.982   3.702  0.0124  0.5268 -0.2676
  147MOL   C21147223   3.229   2.060   3.729  0.5560 -0.3981  0.1820
  147MOL   C21247224   3.129   1.996   3.807  0.0818  0.0142  0.0645
  147MOL   C21347225   3.005   2.058   3.829 -0.0145  0.5071  0.0940
  147MOL   C21447226   2.988   2.188   3.773 -0.4030 -0.6087  0.1905
  147MOL   C21547227   2.852   2.246   3.797 -0.1887  0.7634 -0.4863
  147MOL   C21647228   3.093   2.248   3.704 -0.5214 -0.9762 -0.2200
  147MOL   C21747229   3.214   2.188   3.677 -0.8711  0.8932 -0.1693
  147MOL   H21847230   3.334   1.878   3.726 -0.0510  1.0102  1.8310
  147MOL   H21947231   3.388   1.996   3.598  2.5191 -0.7787  0.2521
  147MOL   H22047232   3.160   1.898   3.844  1.8266  0.8710  0.9535
  147MOL   H22147233   2.920   2.002   3.865 -0.0023 -0.6202 -1.5815
  147MOL   H22247234   2.832   2.230   3.903  0.5513  1.5934 -0.2135
  147MOL   H22347235   2.868   2.353   3.787  1.1438  0.5739 -0.4740
  147MOL   H22447236   3.082   2.351   3.674  1.6457 -0.5348  0.4129
  147MOL   H22547237   3.293   2.239   3.624 -0.8133 -1.9351 -2.9621
  147MOL   C22647238   2.764   2.183   3.689 -0.8526  0.2456 -0.3682
  147MOL   C22747239   2.622   2.225   3.691  0.9777  0.0739 -0.2782
  147MOL   C22847240   2.553   2.267   3.578  0.0083  0.4119  0.2022
  147MOL   C22947241   2.424   2.315   3.586 -0.5278 -0.5260 -0.2140
  147MOL   C23047242   2.350   2.305   3.710  0.3002  0.1233  0.5796
  147MOL   C23147243   2.213   2.361   3.726 -0.1292  0.3194  0.6991
  147MOL   C23247244   2.415   2.257   3.821 -0.5055  0.0215 -0.0713
  147MOL   C23347245   2.551   2.218   3.816 -0.0255  0.1842 -0.0871
  147MOL   H23447246   2.773   2.074   3.689  0.2578  0.3225  1.2667
  147MOL   H23547247   2.801   2.215   3.591  1.6480 -1.2122  0.0533
  147MOL   H23647248   2.597   2.264   3.479 -1.6265  2.2098 -0.6150
  147MOL   H23747249   2.371   2.357   3.502  0.6562  0.7113 -0.3467
  147MOL   H23847250   2.153   2.322   3.644 -1.0416  0.6728  1.1942
  147MOL   H23947251   2.183   2.322   3.823 -0.0963 -0.3065  0.4581
  147MOL   H24047252   2.360   2.248   3.914 -2.6394 -1.0587 -1.3874
  147MOL   H24147253   2.592   2.191   3.912 -4.0186 -0.8487  1.4429
  147MOL   C24247254   2.216   2.515   3.733  0.3027 -0.2979  0.2469
  147MOL   C24347255   2.076   2.549   3.771 -0.5885  0.2362 -0.4859
  147MOL   C24447256   2.039   2.565   3.900  0.3216 -0.2460  0.2768
  147MOL   C24547257   1.905   2.586   3.930  0.1324  0.5141 -0.4437
  147MOL   C24647258   1.812   2.612   3.828 -0.2131 -0.6183  0.2073
  147MOL   C24747259   1.664   2.628   3.867 -0.5376  0.5360  0.6513
  147MOL   C24847260   1.855   2.607   3.691  0.5231  0.0400 -0.5816
  147MOL   C24947261   1.988   2.573   3.662  0.4238 -0.0714 -0.0556
  147MOL   H25047262   2.271   2.557   3.817 -2.2410  0.2378  1.6972
  147MOL   H25147263   2.255   2.564   3.644  0.0348  0.0175  0.3040
  147MOL   H25247264   2.112   2.537   3.973  2.5936  0.7628 -1.5485
  147MOL   H25347265   1.867   2.575   4.030 -1.6054 -0.3747 -1.1664
  147MOL   H25447266   1.660   2.729   3.908  2.0359  1.4422 -1.2051
  147MOL   H25547267   1.607   2.621   3.774  0.0391  1.0261  0.2580
  147MOL   H25647268   1.781   2.631   3.616 -0.4061 -1.2305 -0.0907
  147MOL   H25747269   2.026   2.573   3.561  2.3906  0.9432  0.6643
  147MOL   C25847270   1.619   2.522   3.969  0.3455 -0.6214  0.4035
  147MOL   C25947271   1.473   2.530   4.014 -0.4108  0.0725  0.3838
  147MOL   C26047272   1.387   2.417   4.031 -0.6038 -0.6973 -0.1956
  147MOL   C26147273   1.254   2.436   4.065  0.4124 -0.3971  0.3859
  147MOL   C26247274   1.212   2.564   4.095 -0.0127 -0.3650 -0.5738
  147MOL   C26347275   1.072   2.582   4.149 -0.5420  0.2796 -0.3307
  147MOL   C26447276   1.296   2.676   4.085  0.4329 -0.8677  0.0168
  147MOL   C26547277   1.425   2.657   4.045  0.3966 -0.2330 -0.2473
  147MOL   H26647278   1.662   2.525   4.069 -1.7041 -3.3848  1.4325
  147MOL   H26747279   1.639   2.424   3.926 -2.3397 -1.5562  1.2064
  147MOL   H26847280   1.432   2.320   4.017  0.8425 -0.1738  0.7977
  147MOL   H26947281   1.183   2.356   4.082 -1.2081  0.5693 -1.6146
  147MOL   H27047282   1.053   2.686   4.173 -1.6942  0.1802 -0.7925
  147MOL   H27147283   1.003   2.563   4.066 -1.2469 -2.2318  0.7707
  147MOL   H27247284   1.248   2.767   4.119  0.1605 -1.4779  1.2549
  147MOL   H27347285   1.489   2.745   4.046 -1.8107  1.4125  1.5321
  147MOL   C27447286   1.037   2.509   4.275 -0.0701 -0.5348  0.4745
  147MOL   C27547287   0.902   2.551   4.335 -0.3335  0.5905  0.5583
  147MOL   C27647288   0.783   2.507   4.275 -0.1023  0.0345 -0.7452
  147MOL   C27747289   0.655   2.554   4.311  0.8602 -0.6020 -0.5363
  147MOL   C27847290   0.645   2.651   4.415 -0.3418  0.1132 -0.6030
  147MOL   C27947291   0.509   2.705   4.442 -0.3195  0.3846 -0.7221
  147MOL   C28047292   0.766   2.699   4.478  0.1862 -0.0233  0.3745
  147MOL   C28147293   0.895   2.641   4.443  0.3391 -0.4706 -0.6841
  147MOL   H28247294   1.034   2.402   4.253  1.5698 -0.0598 -2.3778
  147MOL   H28347295   1.119   2.524   4.345  2.0110  2.5451 -2.4668
  147MOL   H28447296   0.789   2.440   4.191 -0.9915 -0.6258 -0.2871
  147MOL   H28547297   0.570   2.504   4.267 -0.1973  0.2709  0.4939
  147MOL   H28647298   0.440   2.626   4.412  0.3834 -0.3585 -0.4073
  147MOL   H28747299   0.493   2.720   4.549 -0.3496 -0.3984 -0.6128
  147MOL   H28847300   0.764   2.780   4.549 -0.2525  0.9360 -0.7133
  147MOL   H28947301   0.989   2.680   4.479  0.0891 -0.4529 -0.0265
  147MOL   C29047302   0.475   2.835   4.371 -0.6437 -0.0184  0.4690
  147MOL   C29147303   0.326   2.869   4.382 -0.7690 -0.0128  0.0408
  147MOL   C29247304   0.273   2.983   4.445 -0.0314 -0.2595 -0.3140
  147MOL   C29347305   0.133   2.995   4.455 -0.3712 -0.1473 -0.0140
  147MOL   C29447306   0.041   2.902   4.393  1.8399  0.0830 -0.1522
  147MOL   C29547307  -0.098   2.932   4.394  0.0843  0.1099  0.1975
  147MOL   C29647308   0.092   2.798   4.317  0.3385 -0.2666 -0.2136
  147MOL   C29747309   0.235   2.787   4.310 -0.0430  0.0309 -1.0975
  147MOL   H29847310   0.494   2.822   4.265  0.2662 -1.3614  0.7866
  147MOL   H29947311   0.538   2.916   4.407 -2.3376  0.2726  2.8910
  147MOL   H30047312   0.330   3.056   4.500  1.1193 -0.1167 -1.6715
  147MOL   H30147313   0.099   3.082   4.510  0.9243 -0.3475  1.1158
  147MOL   H30247314  -0.151   2.844   4.359 -0.5503  0.7682 -0.5129
  147MOL   H30347315  -0.128   2.953   4.497  2.4644 -0.7929  1.1139
  147MOL   H30447316   0.041   2.726   4.255 -1.0448  0.1320  0.4474
  147MOL   H30547317   0.278   2.718   4.238  0.5015  0.4258 -1.1602
  147MOL   C30647318  -0.118   3.057   4.299 -0.1610 -0.0316  0.2110
  147MOL   C30747319  -0.259   3.084   4.276 -0.1126  0.4053 -0.7028
  147MOL   C30847320  -0.309   3.089   4.144 -0.5780 -0.1808  0.1377
  147MOL   C30947321  -0.447   3.106   4.117 -0.5100 -0.4174 -0.3633
  147MOL   C31047322  -0.537   3.126   4.226  0.0413  0.2265  0.1526
  147MOL   C31147323  -0.685   3.142   4.209 -0.3213  0.1144  0.3557
  147MOL   C31247324  -0.483   3.133   4.356 -0.1701  0.1962  0.1836
  147MOL   C31347325  -0.345   3.108   4.384 -0.2181  0.3262 -0.3017
  147MOL   H31447326  -0.070   3.020   4.209 -0.8145  0.1098 -0.1977
  147MOL   H31547327  -0.065   3.147   4.330 -1.1973  0.8727 -0.5997
  147MOL   H31647328  -0.232   3.089   4.068 -3.2643  1.1401 -2.7107
  147MOL   H31747329  -0.478   3.096   4.015  0.0123 -0.2526 -0.5413
  147MOL   H31847330  -0.703   3.200   4.118 -0.3727  0.2722  0.4647
  147MOL   H31947331  -0.725   3.042   4.196  0.2021  0.0983 -1.2755
  147MOL   H32047332  -0.533   3.151   4.450  3.4671  0.2386  2.1916
  147MOL   H32147333  -0.320   3.106   4.489 -0.4893 -0.4304 -0.2512
  147MOL   H32247334  -0.748   3.180   4.289  1.1847  0.8916  1.1998
  148MOL     C147335   4.635   5.771   4.000  0.2335 -0.3599 -0.3674
  148MOL     C247336   4.485   5.788   3.972 -0.7257 -0.1443  0.5513
  148MOL     C347337   4.447   5.874   3.868  0.3309 -0.0176  0.3693
  148MOL     C447338   4.310   5.896   3.841  0.2278 -0.1610 -0.7472
  148MOL     C547339   4.216   5.815   3.908  0.1405 -0.3637 -0.2745
  148MOL     C647340   4.072   5.829   3.873 -0.3149 -0.0033 -0.4931
  148MOL     C747341   4.261   5.717   4.004  0.3337  0.1034 -0.2088
  148MOL     C847342   4.393   5.717   4.047  0.2089  0.1871 -0.5203
  148MOL     H947343   4.679   5.734   3.908  1.9098 -1.0588  0.7032
  148MOL    H1047344   4.670   5.873   4.018 -1.8714  0.3970 -0.3697
  148MOL    H1147345   4.516   5.931   3.807  1.4743 -2.4812 -0.7101
  148MOL    H1247346   4.279   5.963   3.762 -1.8393  0.9241  0.9209
  148MOL    H1347347   4.053   5.840   3.766  0.1937  3.4091 -0.2877
  148MOL    H1447348   4.027   5.732   3.894 -0.0965  0.0028  0.0084
  148MOL    H1547349   4.187   5.664   4.062 -0.1763  3.2211  2.1345
  148MOL    H1647350   4.427   5.649   4.124  1.1121 -0.2197 -1.2684
  148MOL    H1747351   4.645   5.703   4.084  2.9007  0.2735 -0.1510
  148MOL    C1847352   4.011   5.950   3.946  0.4700  0.6596  0.2511
  148MOL    C1947353   3.866   5.972   3.899 -0.4869  0.3462 -0.1284
  148MOL    C2047354   3.833   6.081   3.816  0.5173 -0.4433  0.5490
  148MOL    C2147355   3.708   6.104   3.768 -0.0744  0.1656  0.9150
  148MOL    C2247356   3.599   6.031   3.823 -0.1422 -0.5384 -0.2426
  148MOL    C2347357   3.456   6.047   3.778 -0.9225 -0.1983  0.0186
  148MOL    C2447358   3.629   5.927   3.908  0.5489  0.1406 -0.4949
  148MOL    C2547359   3.761   5.888   3.943  0.8320 -0.3041  0.5032
  148MOL    H2647360   4.009   5.940   4.054 -0.8929  0.7453  0.2446
  148MOL    H2747361   4.072   6.037   3.922  1.2093  0.8807  2.8064
  148MOL    H2847362   3.900   6.154   3.775 -1.8188  2.1825  1.2540
  148MOL    H2947363   3.695   6.182   3.693 -0.7352 -1.0664 -0.2783
  148MOL    H3047364   3.420   5.948   3.750  0.2058 -0.4712 -0.4732
  148MOL    H3147365   3.443   6.109   3.689 -2.6550 -1.5701 -0.7177
  148MOL    H3247366   3.556   5.863   3.955 -0.8078  2.4634  0.6847
  148MOL    H3347367   3.778   5.793   3.990  1.7164 -0.7371 -0.6759
  148MOL    C3447368   3.380   6.121   3.885  0.3719  0.0843  0.1804
  148MOL    C3547369   3.235   6.156   3.844 -0.1715  0.2269 -0.3950
  148MOL    C3647370   3.136   6.063   3.843 -0.4602  0.0175 -0.3274
  148MOL    C3747371   3.009   6.100   3.786 -0.1804 -0.0007 -0.5230
  148MOL    C3847372   2.988   6.226   3.729 -0.0347 -0.0175  0.0906
  148MOL    C3947373   2.849   6.264   3.671 -0.0827  0.8976 -0.2247
  148MOL    C4047374   3.093   6.321   3.736  0.2616 -0.1148 -0.7561
  148MOL    C4147375   3.220   6.287   3.789 -0.0040  0.4225 -0.7863
  148MOL    H4247376   3.434   6.213   3.910 -0.8497  0.5740  1.0389
  148MOL    H4347377   3.357   6.066   3.975  0.1698  0.4744  0.3705
  148MOL    H4447378   3.159   5.962   3.875 -0.1233  0.0065 -0.6009
  148MOL    H4547379   2.936   6.020   3.786  0.5239 -0.6512 -0.3260
  148MOL    H4647380   2.856   6.372   3.659 -0.7967  1.0438  0.6298
  148MOL    H4747381   2.854   6.224   3.569 -0.8334  0.3535 -0.0598
  148MOL    H4847382   3.084   6.424   3.706 -1.2323  0.1468  0.5427
  148MOL    H4947383   3.300   6.359   3.797  0.7669 -0.6919  2.0416
  148MOL    C5047384   2.736   6.211   3.763 -0.1874  0.0686  0.1232
  148MOL    C5147385   2.601   6.268   3.743  0.1733 -0.7077 -0.1332
  148MOL    C5247386   2.585   6.405   3.709 -0.4553  0.5717  0.3863
  148MOL    C5347387   2.455   6.452   3.690 -1.1416 -0.0286  0.1755
  148MOL    C5447388   2.342   6.369   3.688 -0.2874 -0.1485  0.6501
  148MOL    C5547389   2.204   6.425   3.672 -0.2644  0.2869 -0.1742
  148MOL    C5647390   2.360   6.234   3.709 -0.3413 -0.4731  0.4085
  148MOL    C5747391   2.487   6.179   3.731  0.2760 -0.1416 -0.1088
  148MOL    H5847392   2.762   6.231   3.867  0.8597 -0.1073 -0.0959
  148MOL    H5947393   2.727   6.102   3.763  0.6425 -0.0078  1.4014
  148MOL    H6047394   2.670   6.471   3.696 -0.0690  0.4250  2.0347
  148MOL    H6147395   2.442   6.557   3.665 -2.6787 -0.5704 -1.3088
  148MOL    H6247396   2.217   6.522   3.624  0.3046  0.4555  0.3254
  148MOL    H6347397   2.145   6.359   3.609 -1.5149 -0.8447  2.0970
  148MOL    H6447398   2.275   6.168   3.714  0.3008 -1.5145 -1.6834
  148MOL    H6547399   2.500   6.072   3.725 -0.1106 -0.1767 -0.3098
  148MOL    C6647400   2.117   6.444   3.798  0.0553 -0.2688  0.1720
  148MOL    C6747401   1.973   6.484   3.770 -0.4488 -0.5695 -0.1345
  148MOL    C6847402   1.871   6.384   3.758 -0.8450  0.7845 -0.8701
  148MOL    C6947403   1.733   6.420   3.738  0.4230 -0.4370 -2.1633
  148MOL    C7047404   1.699   6.553   3.714  0.0241 -0.3539 -0.0871
  148MOL    C7147405   1.553   6.598   3.703  0.4359 -0.2029 -0.1674
  148MOL    C7247406   1.803   6.650   3.719 -0.4551 -0.2205  0.5270
  148MOL    C7347407   1.935   6.616   3.746 -0.5516 -0.3856 -0.2542
  148MOL    H7447408   2.163   6.520   3.861 -0.3023 -0.5138  0.7290
  148MOL    H7547409   2.117   6.354   3.860 -1.2220 -0.0388  0.5013
  148MOL    H7647410   1.885   6.278   3.772 -0.4079  0.9943  0.3549
  148MOL    H7747411   1.656   6.345   3.737 -0.1787  0.0356  1.4940
  148MOL    H7847412   1.534   6.666   3.787  0.7924 -0.2071 -0.0841
  148MOL    H7947413   1.483   6.517   3.723 -0.0938  0.1279 -0.6554
  148MOL    H8047414   1.777   6.754   3.702  0.6699  0.1384  0.9871
  148MOL    H8147415   2.007   6.696   3.758 -0.9256  0.0895 -1.1445
  148MOL    C8247416   1.526   6.675   3.576  0.7597 -0.2229  0.8156
  148MOL    C8347417   1.385   6.722   3.566  0.6990 -0.0323 -0.3906
  148MOL    C8447418   1.292   6.657   3.476  0.6835  0.0274  0.2759
  148MOL    C8547419   1.157   6.687   3.482  0.6938 -0.2464 -0.1923
  148MOL    C8647420   1.107   6.786   3.564  0.3170  0.1512  0.0657
  148MOL    C8747421   0.958   6.798   3.583  1.0978  0.6391 -0.2951
  148MOL    C8847422   1.197   6.855   3.643 -0.1731  0.2081 -0.0905
  148MOL    C8947423   1.335   6.825   3.646  0.2300 -0.2589  0.4267
  148MOL    H9047424   1.555   6.614   3.490  0.6127  0.2861  0.3969
  148MOL    H9147425   1.591   6.762   3.572  0.6595 -0.0904  1.9433
  148MOL    H9247426   1.311   6.575   3.409  1.8032 -1.3988  2.2675
  148MOL    H9347427   1.089   6.638   3.415 -1.0326  1.9399 -0.0825
  148MOL    H9447428   0.935   6.864   3.667 -2.9914 -1.1819  0.1465
  148MOL    H9547429   0.908   6.704   3.607 -0.1594  1.2428 -0.4979
  148MOL    H9647430   1.150   6.925   3.710 -0.6224 -1.0795  0.9602
  148MOL    H9747431   1.398   6.875   3.718 -0.9350  0.5851  0.8676
  148MOL    C9847432   0.893   6.848   3.451 -0.5058  0.0290  0.6358
  148MOL    C9947433   0.750   6.901   3.466  0.1556 -0.5269 -0.8843
  148MOL   C10047434   0.642   6.813   3.455  0.1745  0.3108  0.3664
  148MOL   C10147435   0.507   6.852   3.453 -0.4613 -0.0901  0.4671
  148MOL   C10247436   0.485   6.987   3.481  0.2566 -0.7959  0.7024
  148MOL   C10347437   0.342   7.046   3.500 -0.2561 -0.3687 -0.3807
  148MOL   C10447438   0.596   7.075   3.495  0.0589 -0.3005  0.0003
  148MOL   C10547439   0.723   7.036   3.492 -1.1357  0.3830 -0.3377
  148MOL   H10647440   0.890   6.771   3.374 -0.7519  2.0553 -1.4249
  148MOL   H10747441   0.956   6.927   3.410 -0.5331  1.1159  2.5848
  148MOL   H10847442   0.663   6.710   3.432 -2.0799  0.0177 -0.4537
  148MOL   H10947443   0.418   6.791   3.441 -0.2397 -0.9406  2.8045
  148MOL   H11047444   0.288   6.971   3.559  0.2894 -0.5684 -0.1219
  148MOL   H11147445   0.341   7.130   3.569 -2.7762 -0.5148 -0.1820
  148MOL   H11247446   0.590   7.182   3.511  0.1217  0.1355 -2.7878
  148MOL   H11347447   0.802   7.110   3.505 -1.8458  0.8787  1.1945
  148MOL   C11447448   0.274   7.086   3.371 -0.1704 -0.6014  0.4081
  148MOL   C11547449   0.132   7.132   3.390  0.2704 -0.5700  0.5914
  148MOL   C11647450   0.023   7.050   3.358  1.2768  0.1341  1.7424
  148MOL   C11747451  -0.108   7.102   3.375  0.1752 -0.2040  0.0984
  148MOL   C11847452  -0.135   7.227   3.435 -0.0443 -0.6263 -0.0435
  148MOL   C11947453  -0.283   7.277   3.451  0.6120  0.0625  0.4437
  148MOL   C12047454  -0.027   7.305   3.472 -0.1240 -0.0064 -0.1671
  148MOL   C12147455   0.105   7.259   3.446  0.1806  0.8015 -0.6165
  148MOL   H12247456   0.276   6.995   3.311 -0.7931 -1.1914  1.2776
  148MOL   H12347457   0.347   7.154   3.328 -1.0348  0.2154  0.2135
  148MOL   H12447458   0.043   6.952   3.318 -1.5514  1.0032 -2.0526
  148MOL   H12547459  -0.190   7.042   3.340  0.2752 -1.0598  1.3122
  148MOL   H12647460  -0.343   7.206   3.509 -0.9689 -0.7929 -2.1735
  148MOL   H12747461  -0.289   7.370   3.508  0.8868  0.5118 -0.2528
  148MOL   H12847462  -0.043   7.408   3.499 -1.1041 -0.3415  0.5636
  148MOL   H12947463   0.186   7.325   3.475 -1.0604  2.2286 -0.2859
  148MOL   C13047464  -0.347   7.299   3.315 -0.6778 -0.2794 -0.2412
  148MOL   C13147465  -0.487   7.356   3.316  0.4679  0.5445 -0.0443
  148MOL   C13247466  -0.504   7.495   3.300  0.1052  0.1663 -0.8574
  148MOL   C13347467  -0.632   7.555   3.310  0.0400 -1.0319 -0.1070
  148MOL   C13447468  -0.745   7.476   3.348  0.4714  0.1705  0.0148
  148MOL   C13547469  -0.882   7.529   3.366  0.2831 -0.0551 -0.3779
  148MOL   C13647470  -0.732   7.335   3.366 -0.3298 -0.2496  0.1007
  148MOL   C13747471  -0.604   7.277   3.352  0.1744  0.5895  0.1356
  148MOL   H13847472  -0.340   7.200   3.270  3.3670  0.2187 -1.0005
  148MOL   H13947473  -0.292   7.371   3.254 -1.5886  0.3861 -0.2837
  148MOL   H14047474  -0.419   7.558   3.277 -0.2597  0.2333 -2.0732
  148MOL   H14147475  -0.655   7.660   3.298 -1.4833 -1.3487 -0.0937
  148MOL   H14247476  -0.951   7.457   3.410 -2.0695  0.8637 -2.4757
  148MOL   H14347477  -0.887   7.611   3.437 -1.9575 -0.4081 -0.0731
  148MOL   H14447478  -0.814   7.271   3.396 -0.6463  1.0733  2.1877
  148MOL   H14547479  -0.597   7.170   3.366  2.2056  0.7200  0.2043
  148MOL   C14647480  -0.942   7.591   3.235 -0.0956 -1.0954 -0.3377
  148MOL   C14747481  -1.083   7.648   3.243 -0.0539 -0.1714 -0.0951
  148MOL   C14847482  -1.187   7.565   3.295 -0.5568  0.1982 -1.2720
  148MOL   C14947483  -1.317   7.614   3.293  0.6254 -0.6197 -0.0026
  148MOL   C15047484  -1.339   7.753   3.254  0.6109  0.6269  0.3329
  148MOL   C15147485  -1.480   7.806   3.224 -0.5369 -0.1414 -0.0752
  148MOL   C15247486  -1.234   7.836   3.214  0.4150  0.3861  0.2221
  148MOL   C15347487  -1.106   7.781   3.210  0.0218  0.1069  0.0729
  148MOL   H15447488  -0.945   7.518   3.155 -1.4046 -0.0524 -1.2872
  148MOL   H15547489  -0.889   7.676   3.191 -1.3835 -0.3996 -0.6000
  148MOL   H15647490  -1.160   7.465   3.325  0.8310  0.8404 -0.3453
  148MOL   H15747491  -1.406   7.559   3.320  0.2812  0.9363  2.1712
  148MOL   H15847492  -1.482   7.856   3.127 -0.0769 -0.3097 -0.1742
  148MOL   H15947493  -1.546   7.722   3.199 -0.8515  0.3121 -0.7757
  148MOL   H16047494  -1.244   7.938   3.182  2.7594 -0.2853 -2.8018
  148MOL   H16147495  -1.024   7.847   3.186  0.0811  0.2696  0.7187
  148MOL   C16247496  -1.534   7.893   3.333 -0.5825  0.6594 -0.1843
  148MOL   C16347497  -1.680   7.936   3.309 -0.2955 -0.1989  0.0603
  148MOL   C16447498  -1.785   7.861   3.357  0.3874  0.0987  0.3448
  148MOL   C16547499  -1.917   7.891   3.336  0.0848 -0.6964 -0.5901
  148MOL   C16647500  -1.947   8.014   3.274  0.1339  0.5474  0.2817
  148MOL   C16747501  -2.087   8.060   3.249  0.3295  0.6480  0.3498
  148MOL   C16847502  -1.842   8.095   3.222 -0.2869 -0.7475 -0.5437
  148MOL   C16947503  -1.711   8.053   3.234  0.4781  0.1698  0.2043
  148MOL   H17047504  -1.471   7.981   3.322 -1.2759  1.6217  2.8620
  148MOL   H17147505  -1.531   7.844   3.430  1.2133  3.0781  1.0301
  148MOL   H17247506  -1.775   7.772   3.419 -0.0564 -0.7550 -0.7833
  148MOL   H17347507  -1.999   7.833   3.375 -0.3856 -0.9401 -1.9251
  148MOL   H17447508  -2.101   8.123   3.162 -0.8202  0.7687  0.6109
  148MOL   H17547509  -2.143   7.969   3.225  2.1088 -0.0875 -1.1484
  148MOL   H17647510  -1.861   8.184   3.164 -1.4854 -0.6265  0.0035
  148MOL   H17747511  -1.639   8.124   3.196  0.1998 -0.6865 -2.0029
  148MOL   C17847512  -2.154   8.142   3.362  0.1688  0.5874 -0.1670
  148MOL   C17947513  -2.293   8.186   3.334  0.3209  0.5895  0.1294
  148MOL   C18047514  -2.395   8.098   3.361 -0.2751 -0.3115  0.7618
  148MOL   C18147515  -2.526   8.151   3.354  0.1559  0.2262 -0.0472
  148MOL   C18247516  -2.558   8.277   3.291 -0.5197 -0.2591  1.4844
  148MOL   C18347517  -2.703   8.320   3.264 -0.5061  0.6187 -0.8885
  148MOL   C18447518  -2.453   8.361   3.261  0.6920 -0.3115 -0.3704
  148MOL   C18547519  -2.322   8.314   3.280 -0.0984 -0.4159 -0.1596
  148MOL   H18647520  -2.092   8.228   3.386  0.2974 -0.0629  1.9499
  148MOL   H18747521  -2.152   8.076   3.449 -2.2668 -1.0213 -1.2734
  148MOL   H18847522  -2.378   8.012   3.424  3.5961 -0.3559 -0.2066
  148MOL   H18947523  -2.599   8.090   3.406  0.2653 -0.5964 -0.8365
  148MOL   H19047524  -2.709   8.360   3.162 -0.1756 -1.5161 -1.7702
  148MOL   H19147525  -2.768   8.233   3.250  1.5341 -1.2049  0.7857
  148MOL   H19247526  -2.469   8.456   3.211  0.5206 -0.0653  0.1438
  148MOL   H19347527  -2.235   8.377   3.270  0.0874 -0.5064  0.8719
  148MOL   C19447528  -2.763   8.407   3.378  0.6909  0.7531  0.2610
  148MOL   C19547529  -2.907   8.437   3.363 -0.2716 -0.1723  0.5944
  148MOL   C19647530  -2.998   8.339   3.402 -0.3674 -0.5522 -0.0937
  148MOL   C19747531  -3.135   8.366   3.395  0.5642  0.7685  0.1463
  148MOL   C19847532  -3.180   8.485   3.333  0.4590  0.0494  0.0427
  148MOL   C19947533  -3.328   8.516   3.323  0.5207  0.3743 -0.0645
  148MOL   C20047534  -3.083   8.582   3.292 -0.2205  0.2794  0.8252
  148MOL   C20147535  -2.946   8.560   3.307  0.3249 -0.0563 -0.4494
  148MOL   H20247536  -2.703   8.498   3.386  0.1859  1.2200 -1.0486
  148MOL   H20347537  -2.753   8.367   3.479  0.4669  2.6498  1.0636
  148MOL   H20447538  -2.953   8.249   3.441  0.2733 -0.7948 -1.3929
  148MOL   H20547539  -3.211   8.297   3.428  0.0586  1.2800  0.0512
  148MOL   H20647540  -3.345   8.586   3.241 -0.8991  1.0853  0.8027
  148MOL   H20747541  -3.391   8.427   3.315 -0.6099  1.0641  1.0470
  148MOL   H20847542  -3.113   8.676   3.247  2.4502  0.4330 -0.7679
  148MOL   H20947543  -2.875   8.638   3.282  0.8384 -0.4330 -0.1904
  148MOL   C21047544  -3.392   8.581   3.453 -0.3568 -0.4822 -1.0345
  148MOL   C21147545  -3.536   8.620   3.434  0.4284 -0.5685 -0.1059
  148MOL   C21247546  -3.562   8.757   3.412  0.7042  0.1106 -0.6294
  148MOL   C21347547  -3.688   8.804   3.390 -0.7903 -0.1045 -0.2295
  148MOL   C21447548  -3.796   8.723   3.380 -0.2029  0.3797  0.1035
  148MOL   C21547549  -3.930   8.778   3.342 -0.0542  0.3388  0.1499
  148MOL   C21647550  -3.777   8.582   3.407  0.4604  0.0109  0.1444
  148MOL   C21747551  -3.651   8.528   3.439 -0.4345 -0.3193 -0.5787
  148MOL   H21847552  -3.336   8.670   3.479  1.2669 -1.7493 -0.1107
  148MOL   H21947553  -3.374   8.508   3.531 -2.8004 -1.2395 -1.1262
  148MOL   H22047554  -3.481   8.828   3.402  0.0474  0.8206 -0.9752
  148MOL   H22147555  -3.703   8.910   3.374  0.6070  0.0927 -0.2598
  148MOL   H22247556  -3.910   8.865   3.281 -0.4730  1.1055  1.0844
  148MOL   H22347557  -3.982   8.704   3.281  1.6905 -0.6576 -0.1413
  148MOL   H22447558  -3.862   8.517   3.391  0.8035 -1.2890  3.2543
  148MOL   H22547559  -3.619   8.424   3.443  0.7279  0.1003  2.0523
  148MOL   C22647560  -4.011   8.804   3.473  0.3968 -0.3023  0.4180
  148MOL   C22747561  -4.149   8.863   3.441 -0.9310  0.3955  0.0665
  148MOL   C22847562  -4.169   9.004   3.423  0.1620 -0.3530  0.0287
  148MOL   C22947563  -4.302   9.055   3.406  0.0598 -0.0757  0.3957
  148MOL   C23047564  -4.407   8.970   3.380  0.0501 -0.1861 -0.1202
  148MOL   C23147565  -4.547   9.025   3.345  0.4250  0.2166 -0.7887
  148MOL   C23247566  -4.381   8.833   3.379  0.3013 -0.6132  0.6369
  148MOL   C23347567  -4.257   8.778   3.422 -0.3639  0.1283  0.8634
  148MOL   H23447568  -3.948   8.874   3.528  0.8453  0.2153 -0.7266
  148MOL   H23547569  -4.022   8.721   3.542  0.3845  0.3663  1.2341
  148MOL   H23647570  -4.081   9.064   3.437  0.0301  0.2679 -1.7230
  148MOL   H23747571  -4.316   9.162   3.406  3.4009  0.4193  1.5914
  148MOL   H23847572  -4.535   9.133   3.356 -1.8167  0.3727  0.3842
  148MOL   H23947573  -4.577   9.001   3.243 -0.5672 -1.9220 -0.0194
  148MOL   H24047574  -4.455   8.757   3.359 -0.9540  0.4795  1.1040
  148MOL   H24147575  -4.245   8.671   3.436 -0.1183 -0.0670 -0.7501
  148MOL   C24247576  -4.653   8.977   3.443  0.0643 -0.0405 -0.0568
  148MOL   C24347577  -4.789   9.037   3.426 -0.4080  0.1880 -0.2291
  148MOL   C24447578  -4.895   8.981   3.348 -0.6588 -0.4759 -0.0664
  148MOL   C24547579  -5.021   9.050   3.339 -0.3772  0.0941  1.0695
  148MOL   C24647580  -5.046   9.166   3.416 -0.2103  0.1315 -0.1414
  148MOL   C24747581  -5.189   9.223   3.416  0.2403 -0.7763  0.3068
  148MOL   C24847582  -4.947   9.212   3.503  0.0945 -0.8271  0.1957
  148MOL   C24947583  -4.813   9.156   3.491  1.2264 -0.3910  0.0108
  148MOL   H25047584  -4.658   8.869   3.436 -0.1405 -0.0593  0.3910
  148MOL   H25147585  -4.618   8.999   3.544  1.4157 -3.4239  0.2782
  148MOL   H25247586  -4.877   8.884   3.304  0.9071 -0.9876  1.6578
  148MOL   H25347587  -5.090   9.006   3.269  1.1042  0.3379 -0.5531
  148MOL   H25447588  -5.245   9.163   3.344  1.8181 -0.2526 -1.3897
  148MOL   H25547589  -5.242   9.207   3.510 -0.7039 -0.3647 -0.1496
  148MOL   H25647590  -4.963   9.290   3.575 -1.0550 -2.3808  1.6602
  148MOL   H25747591  -4.739   9.186   3.564 -0.3233  0.6299  1.1817
  148MOL   C25847592  -5.187   9.375   3.387 -1.0087 -0.0631  0.5624
  148MOL   C25947593  -5.326   9.439   3.379 -0.3377 -0.2181 -0.4571
  148MOL   C26047594  -5.401   9.463   3.496  0.5541 -0.5200  0.4599
  148MOL   C26147595  -5.521   9.534   3.491  0.0202 -0.5168  0.5406
  148MOL   C26247596  -5.580   9.567   3.371  0.1128  0.9587  0.2615
  148MOL   C26347597  -5.703   9.653   3.361 -0.4561  0.4342  0.0726
  148MOL   C26447598  -5.509   9.531   3.253 -0.4750 -0.4069  0.6695
  148MOL   C26547599  -5.383   9.463   3.259  0.7880 -0.0619 -0.4644
  148MOL   H26647600  -5.129   9.393   3.296  0.5027  0.1196  1.5477
  148MOL   H26747601  -5.131   9.430   3.463  1.0785 -0.9074 -0.3352
  148MOL   H26847602  -5.363   9.445   3.595 -2.0175 -1.7666  1.2680
  148MOL   H26947603  -5.563   9.548   3.589  2.1124  0.3016  1.3595
  148MOL   H27047604  -5.718   9.695   3.461 -1.0034 -2.2572  1.1744
  148MOL   H27147605  -5.688   9.743   3.302  2.5292  0.6608  1.0736
  148MOL   H27247606  -5.550   9.555   3.156 -2.5487 -1.2926  1.2943
  148MOL   H27347607  -5.329   9.443   3.167 -0.3372 -1.3328 -0.8655
  148MOL   C27447608  -5.823   9.568   3.335  0.7975 -0.8615  0.8675
  148MOL   C27547609  -5.947   9.648   3.315 -0.2001 -0.5800 -0.9697
  148MOL   C27647610  -5.960   9.790   3.338  0.0079  0.0107  0.4779
  148MOL   C27747611  -6.077   9.867   3.323  0.6696 -1.0560  0.0374
  148MOL   C27847612  -6.195   9.799   3.289 -0.3485 -0.3007  0.8763
  148MOL   C27947613  -6.323   9.883   3.263 -0.0937 -0.0177 -0.5821
  148MOL   C28047614  -6.188   9.661   3.259  0.0668 -0.1944 -0.1015
  148MOL   C28147615  -6.069   9.587   3.273 -0.0769 -0.4710 -0.2323
  148MOL   H28247616  -5.820   9.517   3.239  1.5205  2.5691 -1.0179
  148MOL   H28347617  -5.828   9.502   3.422 -0.7311 -1.0294  0.6758
  148MOL   H28447618  -5.868   9.838   3.368 -1.4494  2.2854  1.4018
  148MOL   H28547619  -6.071   9.975   3.328  1.5188 -1.1419  0.9984
  148MOL   H28647620  -6.302   9.972   3.204 -0.0223 -0.0686 -0.6333
  148MOL   H28747621  -6.400   9.829   3.208  1.1719 -0.9405 -1.4759
  148MOL   H28847622  -6.269   9.604   3.216 -0.8854 -0.8324  2.4443
  148MOL   H28947623  -6.063   9.482   3.250  0.3819 -0.5232  0.1335
  148MOL   C29047624  -6.388   9.933   3.389  0.0889 -1.1491  0.0692
  148MOL   C29147625  -6.519  10.006   3.356  0.4090 -0.0140 -0.4323
  148MOL   C29247626  -6.640   9.934   3.372 -0.0373  0.1162 -0.2132
  148MOL   C29347627  -6.758   9.993   3.332 -0.0166 -0.1008  0.1690
  148MOL   C29447628  -6.758  10.125   3.291 -0.8713 -0.2156  0.3891
  148MOL   C29547629  -6.884  10.193   3.258  0.0998  0.1709  0.4054
  148MOL   C29647630  -6.638  10.198   3.284 -0.5626  0.6139  0.1782
  148MOL   C29747631  -6.513  10.142   3.313 -0.1638 -0.0990 -1.0515
  148MOL   H29847632  -6.320  10.007   3.431  1.6848 -2.1578 -0.6743
  148MOL   H29947633  -6.393   9.859   3.470 -0.6774  0.8912  1.9249
  148MOL   H30047634  -6.638   9.831   3.402  0.6604  0.9566  2.8139
  148MOL   H30147635  -6.851   9.939   3.344  0.0101 -0.5765 -1.5724
  148MOL   H30247636  -6.856  10.285   3.208 -0.1951  0.2567  0.3952
  148MOL   H30347637  -6.935  10.147   3.173  1.1217 -1.0227  0.4261
  148MOL   H30447638  -6.659  10.302   3.269 -0.7054  0.2849 -1.9442
  148MOL   H30547639  -6.421  10.197   3.306  0.4732 -1.3973 -3.0405
  148MOL   C30647640  -6.969  10.217   3.384  0.3834  0.1273 -0.3105
  148MOL   C30747641  -7.093  10.294   3.347 -0.4257 -0.1694  0.9330
  148MOL   C30847642  -7.220  10.231   3.348 -0.4161 -0.6458  0.1354
  148MOL   C30947643  -7.333  10.298   3.298 -0.4205  0.2231 -0.3295
  148MOL   C31047644  -7.325  10.433   3.263  0.3582 -0.3766 -0.0775
  148MOL   C31147645  -7.455  10.518   3.235 -0.3825 -0.3300  0.1227
  148MOL   C31247646  -7.200  10.494   3.259 -0.4035 -0.0377 -0.6939
  148MOL   C31347647  -7.081  10.426   3.303 -0.1410 -0.5838  0.2939
  148MOL   H31447648  -6.905  10.277   3.450  0.9160 -1.1917  0.4036
  148MOL   H31547649  -7.004  10.129   3.438 -1.7776  1.3473  0.3083
  148MOL   H31647650  -7.231  10.132   3.389 -2.2360 -0.3197  0.4959
  148MOL   H31747651  -7.428  10.249   3.282 -0.6244  0.5787 -0.2182
  148MOL   H31847652  -7.536  10.452   3.202 -0.2626 -1.2869  1.6989
  148MOL   H31947653  -7.480  10.579   3.321 -0.6465 -0.7645  0.3575
  148MOL   H32047654  -7.192  10.595   3.222 -1.0186 -0.0897 -0.9719
  148MOL   H32147655  -6.986  10.477   3.297 -0.1392 -0.7029 -0.8105
  148MOL   H32247656  -7.426  10.590   3.158  1.9201  0.2397  1.4695
  149MOL     C147657   7.084   5.252   0.472  0.3792 -0.1959 -0.1669
  149MOL     C247658   7.227   5.214   0.429  0.4030 -0.0915  0.3800
  149MOL     C347659   7.276   5.090   0.473  0.0334  0.0603 -1.0615
  149MOL     C447660   7.403   5.047   0.445 -0.0144 -0.1334 -0.6728
  149MOL     C547661   7.477   5.114   0.350 -0.4608  0.6729  0.5495
  149MOL     C647662   7.614   5.057   0.300 -0.4332 -0.3187 -0.4421
  149MOL     C747663   7.434   5.236   0.296  0.1366 -0.0289 -0.0707
  149MOL     C847664   7.304   5.288   0.329 -0.5555  0.0910 -0.5046
  149MOL     H947665   7.034   5.312   0.396 -2.1473  0.8081  2.2400
  149MOL    H1047666   7.024   5.165   0.496  2.2077 -1.3093  0.4319
  149MOL    H1147667   7.234   5.051   0.564 -0.2427  2.3877 -0.1679
  149MOL    H1247668   7.436   4.957   0.495  0.4393  0.8744  0.8903
  149MOL    H1347669   7.609   4.949   0.306 -0.7719 -0.2710  0.2696
  149MOL    H1447670   7.634   5.068   0.194  0.7849 -0.3107 -0.2245
  149MOL    H1547671   7.488   5.297   0.225 -1.3280  2.6262  1.0337
  149MOL    H1647672   7.274   5.384   0.290  0.9889 -0.1295 -2.3175
  149MOL    H1747673   7.108   5.314   0.558 -0.1401  0.5840 -0.5758
  149MOL    C1847674   7.732   5.106   0.379 -0.8975 -0.3336 -0.1296
  149MOL    C1947675   7.862   5.056   0.321 -0.0356 -0.0411  0.4065
  149MOL    C2047676   7.922   5.106   0.202  0.2775  0.4815 -0.3732
  149MOL    C2147677   8.042   5.052   0.152  0.2977  0.6581 -0.1081
  149MOL    C2247678   8.101   4.946   0.219  0.3111  0.3998  0.4847
  149MOL    C2347679   8.232   4.887   0.171  0.4923  0.1094  0.3268
  149MOL    C2447680   8.045   4.897   0.343  0.2674  0.2607 -0.0462
  149MOL    C2547681   7.928   4.954   0.391 -0.0476  1.0612 -0.3617
  149MOL    H2647682   7.735   5.215   0.385 -0.0784 -0.4467  1.5147
  149MOL    H2747683   7.721   5.066   0.479  2.9349 -3.6867 -0.9315
  149MOL    H2847684   7.879   5.184   0.141 -0.2048 -0.7894 -1.6930
  149MOL    H2947685   8.084   5.098   0.064 -0.0124 -1.7112 -1.5267
  149MOL    H3047686   8.236   4.895   0.063 -1.4728 -1.5577  0.1032
  149MOL    H3147687   8.218   4.780   0.190 -1.4815  0.2255 -0.2985
  149MOL    H3247688   8.101   4.819   0.393  2.4312  1.3269 -0.7964
  149MOL    H3347689   7.878   4.915   0.479  0.6321 -1.9617 -1.2580
  149MOL    C3447690   8.352   4.953   0.240  0.0316  0.2354 -0.2519
  149MOL    C3547691   8.491   4.902   0.198  0.2143  0.5731 -0.5100
  149MOL    C3647692   8.555   4.791   0.263  0.8754 -0.2355  0.8053
  149MOL    C3747693   8.677   4.733   0.208 -0.3442 -0.0344  0.4632
  149MOL    C3847694   8.739   4.801   0.099 -0.2384 -0.0081 -0.6340
  149MOL    C3947695   8.869   4.755   0.044  0.2430  0.6349 -0.1261
  149MOL    C4047696   8.676   4.915   0.038 -0.4575 -0.7666 -0.4419
  149MOL    C4147697   8.553   4.969   0.088  0.3766  0.2928  0.2509
  149MOL    H4247698   8.338   4.953   0.348 -1.2390  0.4375 -0.4041
  149MOL    H4347699   8.356   5.061   0.227  2.2988  0.2144  0.1331
  149MOL    H4447700   8.502   4.752   0.348 -1.1985 -0.3975 -0.5271
  149MOL    H4547701   8.719   4.649   0.261  0.8519  1.2973  1.6690
  149MOL    H4647702   8.886   4.648   0.055 -0.1761  0.5069 -0.6978
  149MOL    H4747703   8.872   4.773  -0.063 -0.3827  0.2528 -0.2122
  149MOL    H4847704   8.720   4.972  -0.043  1.4701  0.3178  1.3175
  149MOL    H4947705   8.506   5.051   0.036 -0.4405 -0.2005  0.2036
  149MOL    C5047706   8.982   4.827   0.115 -0.7258 -0.0122  0.4432
  149MOL    C5147707   9.112   4.752   0.095 -0.0524  0.3653  0.0747
  149MOL    C5247708   9.180   4.765  -0.029 -0.2852  0.1336  0.5413
  149MOL    C5347709   9.301   4.694  -0.046  0.3536 -0.2285 -0.1660
  149MOL    C5447710   9.361   4.628   0.068  0.3515  0.1595 -0.0535
  149MOL    C5547711   9.491   4.554   0.054 -0.3462  0.7650 -0.3040
  149MOL    C5647712   9.288   4.612   0.187  0.5623 -0.6645 -0.2080
  149MOL    C5747713   9.166   4.670   0.200 -0.4770 -0.3362  0.1269
  149MOL    H5847714   8.976   4.816   0.223 -0.3593  0.2385  0.4896
  149MOL    H5947715   8.978   4.934   0.094  0.0132 -0.4052 -1.8305
  149MOL    H6047716   9.149   4.837  -0.103 -1.1005 -1.2391 -0.4827
  149MOL    H6147717   9.339   4.699  -0.147 -0.4060  2.0890 -0.3639
  149MOL    H6247718   9.473   4.447   0.047  2.3991  0.4331 -3.3691
  149MOL    H6347719   9.546   4.583  -0.036  2.4973 -1.1630  0.7506
  149MOL    H6447720   9.338   4.564   0.270 -0.4374 -0.7813  0.3355
  149MOL    H6547721   9.127   4.653   0.299  1.5428  3.3526  1.6465
  149MOL    C6647722   9.591   4.578   0.164  0.3644 -0.6644  0.0301
  149MOL    C6747723   9.726   4.507   0.147 -0.2662  0.3825 -0.4066
  149MOL    C6847724   9.819   4.572   0.065  0.3449 -0.1704 -0.2024
  149MOL    C6947725   9.945   4.515   0.042 -0.3090 -0.3542  0.0891
  149MOL    C7047726   9.981   4.403   0.123  0.0115 -0.2673  0.3332
  149MOL    C7147727  10.130   4.358   0.125 -0.0748 -1.2743 -0.0302
  149MOL    C7247728   9.885   4.339   0.207 -0.4778 -0.0739 -0.7168
  149MOL    C7347729   9.759   4.392   0.220 -0.6828 -0.5665 -0.5795
  149MOL    H7447730   9.558   4.542   0.261  0.5555 -1.4278 -0.1799
  149MOL    H7547731   9.609   4.686   0.168  2.4273 -0.8428 -2.6905
  149MOL    H7647732   9.796   4.671   0.029 -0.8999 -0.5415 -0.4365
  149MOL    H7747733  10.019   4.573  -0.011  0.1103  0.2813  1.3335
  149MOL    H7847734  10.167   4.362   0.227 -1.2948  0.3249  0.3704
  149MOL    H7947735  10.182   4.444   0.082  0.5499 -2.3102 -1.4062
  149MOL    H8047736   9.908   4.247   0.260 -0.8200  0.9345  1.2420
  149MOL    H8147737   9.679   4.355   0.283 -0.6157 -2.5328 -1.5904
  149MOL    C8247738  10.161   4.235   0.031  0.2285 -0.0951 -0.2324
  149MOL    C8347739  10.311   4.200   0.021  0.2107 -0.0050  0.0208
  149MOL    C8447740  10.379   4.149   0.133 -0.0840  0.1137 -0.9599
  149MOL    C8547741  10.518   4.116   0.117 -0.1596 -0.2411 -0.4661
  149MOL    C8647742  10.580   4.141  -0.010 -0.3778 -1.0890 -0.1544
  149MOL    C8747743  10.727   4.117  -0.030 -0.1703  0.3285  0.0073
  149MOL    C8847744  10.511   4.199  -0.114  0.3539  0.2501 -0.0001
  149MOL    C8947745  10.375   4.224  -0.103  0.2384 -0.1111  0.2402
  149MOL    H9047746  10.117   4.250  -0.067 -0.2564  0.0481  0.0076
  149MOL    H9147747  10.100   4.151   0.064 -0.1502  0.2493 -0.0588
  149MOL    H9247748  10.336   4.132   0.231 -1.3993 -0.6280 -1.6543
  149MOL    H9347749  10.577   4.071   0.195  0.5982  0.8273 -0.4010
  149MOL    H9447750  10.788   4.139   0.057  0.0727 -0.3293  0.0052
  149MOL    H9547751  10.769   4.195  -0.094  1.6437  0.3759  1.2156
  149MOL    H9647752  10.566   4.220  -0.204  0.7307  1.3579  0.4759
  149MOL    H9747753  10.323   4.283  -0.177  1.9828  1.7199  0.4079
  149MOL    C9847754  10.746   3.982  -0.089 -0.0891 -0.8939 -0.0986
  149MOL    C9947755  10.890   3.951  -0.109 -0.8546  0.7427  0.3742
  149MOL   C10047756  10.969   4.028  -0.199 -0.0872 -0.2703  0.3336
  149MOL   C10147757  11.102   3.995  -0.228  0.0725  0.0490  0.0347
  149MOL   C10247758  11.157   3.891  -0.157 -0.1211  0.3026  0.5358
  149MOL   C10347759  11.305   3.864  -0.184 -0.5861 -0.5762 -0.3996
  149MOL   C10447760  11.080   3.807  -0.074  1.1462  0.1774  0.3718
  149MOL   C10547761  10.950   3.847  -0.041 -0.7450 -0.2012 -0.2372
  149MOL   H10647762  10.684   3.965  -0.178 -0.0935 -1.4688  0.0151
  149MOL   H10747763  10.698   3.910  -0.023 -0.3600 -0.5289  0.1049
  149MOL   H10847764  10.907   4.100  -0.251  0.0581 -0.4699 -0.1192
  149MOL   H10947765  11.164   4.068  -0.277  1.2690 -0.2973  0.9905
  149MOL   H11047766  11.345   3.931  -0.261 -0.0396 -2.3033 -1.6369
  149MOL   H11147767  11.360   3.900  -0.097  0.0420 -1.6521 -0.3545
  149MOL   H11247768  11.119   3.721  -0.022 -1.9272 -1.9537 -0.6926
  149MOL   H11347769  10.887   3.789   0.025  0.1243 -0.0877  0.7242
  149MOL   C11447770  11.338   3.722  -0.209 -0.3076  0.8220  0.6990
  149MOL   C11547771  11.473   3.700  -0.270 -0.3708 -0.4641 -0.2911
  149MOL   C11647772  11.535   3.792  -0.357 -0.9450  0.7394 -0.4965
  149MOL   C11747773  11.664   3.768  -0.404  0.4339  0.0875  0.6350
  149MOL   C11847774  11.729   3.644  -0.374 -0.2344 -0.3272  0.1119
  149MOL   C11947775  11.862   3.606  -0.443 -0.7737 -0.0772 -0.4113
  149MOL   C12047776  11.669   3.553  -0.287  0.5437 -0.0016 -0.1848
  149MOL   C12147777  11.543   3.584  -0.232 -0.1346  0.8646 -0.9746
  149MOL   H12247778  11.262   3.682  -0.275  0.0629  2.5386 -0.8122
  149MOL   H12347779  11.331   3.667  -0.115  1.0702 -0.7486 -0.0897
  149MOL   H12447780  11.485   3.882  -0.389 -2.0317  0.1355 -0.5138
  149MOL   H12547781  11.714   3.839  -0.469  0.1970 -0.2170  0.1224
  149MOL   H12647782  11.856   3.507  -0.488  2.4765 -1.3946  1.8440
  149MOL   H12747783  11.874   3.671  -0.529  0.6667 -2.3765 -2.0082
  149MOL   H12847784  11.723   3.462  -0.267 -0.0221 -0.4521 -0.6964
  149MOL   H12947785  11.502   3.506  -0.168  0.8526  0.0029 -1.3749
  149MOL   C13047786  11.988   3.616  -0.359  0.5633 -0.2835 -0.2613
  149MOL   C13147787  12.098   3.530  -0.416 -0.3730  0.3554 -0.7308
  149MOL   C13247788  12.158   3.424  -0.341  0.1189 -0.4913 -0.3873
  149MOL   C13347789  12.274   3.355  -0.390  0.4576 -0.8493 -0.2698
  149MOL   C13447790  12.316   3.386  -0.519 -0.0661 -0.7151 -0.7079
  149MOL   C13547791  12.441   3.312  -0.572  0.3655 -0.2027  0.5372
  149MOL   C13647792  12.256   3.487  -0.602 -0.0696  0.1204 -0.0130
  149MOL   C13747793  12.145   3.565  -0.545 -0.4395  0.2181 -0.7119
  149MOL   H13847794  11.981   3.598  -0.252  0.5761  3.2772  0.4069
  149MOL   H13947795  12.028   3.717  -0.365  1.3781 -0.6698 -1.4199
  149MOL   H14047796  12.125   3.410  -0.240  2.6201 -1.3855  0.3481
  149MOL   H14147797  12.330   3.284  -0.331  1.3134 -2.3756 -2.8271
  149MOL   H14247798  12.428   3.208  -0.541 -0.4416 -0.6519 -1.2963
  149MOL   H14347799  12.431   3.309  -0.680  2.6821 -1.2890  0.3159
  149MOL   H14447800  12.291   3.515  -0.700  1.5789 -0.4483  0.4030
  149MOL   H14547801  12.099   3.644  -0.601 -0.3823  0.2805 -0.6714
  149MOL   C14647802  12.571   3.384  -0.521 -0.2247  0.3551  0.3010
  149MOL   C14747803  12.702   3.320  -0.576  0.0130 -0.5805 -0.2252
  149MOL   C14847804  12.746   3.333  -0.708  0.2148  0.5854  0.0751
  149MOL   C14947805  12.870   3.282  -0.742  0.5526  0.2097  0.5183
  149MOL   C15047806  12.954   3.219  -0.648 -0.7060 -0.3434  0.3773
  149MOL   C15147807  13.085   3.157  -0.689  0.7904  0.3538  0.5601
  149MOL   C15247808  12.915   3.221  -0.518 -0.5104  0.4989 -0.7096
  149MOL   C15347809  12.788   3.267  -0.475  0.3294 -0.0295  0.3304
  149MOL   H15447810  12.567   3.373  -0.413  2.9412 -0.7997  0.3707
  149MOL   H15547811  12.563   3.490  -0.545  1.9934  0.6107  0.5341
  149MOL   H15647812  12.678   3.390  -0.770 -0.5042 -1.4604 -1.0697
  149MOL   H15747813  12.900   3.282  -0.845 -2.0095 -3.4245 -0.3408
  149MOL   H15847814  13.094   3.055  -0.653  0.4987  0.0280 -0.2884
  149MOL   H15947815  13.097   3.161  -0.797  0.2947  1.9578  0.5494
  149MOL   H16047816  12.980   3.179  -0.442 -0.4917 -1.0262 -1.5389
  149MOL   H16147817  12.763   3.268  -0.370  1.3599  0.0422  0.5791
  149MOL   C16247818  13.206   3.232  -0.627 -0.0859 -0.6368  0.5054
  149MOL   C16347819  13.339   3.174  -0.679  0.2166 -0.2092 -1.0505
  149MOL   C16447820  13.405   3.099  -0.583 -0.0969 -0.0154 -0.1940
  149MOL   C16547821  13.522   3.034  -0.620 -0.5475 -0.0443 -0.7450
  149MOL   C16647822  13.570   3.036  -0.753  0.0422  0.1658  0.5734
  149MOL   C16747823  13.700   2.955  -0.787  0.8049 -0.1297 -0.0685
  149MOL   C16847824  13.497   3.107  -0.850 -0.0004 -0.1388  0.6226
  149MOL   C16947825  13.381   3.181  -0.813  0.2634 -0.0356 -0.0777
  149MOL   H17047826  13.207   3.238  -0.518  1.5561  0.3874  0.4559
  149MOL   H17147827  13.192   3.325  -0.682 -0.9030 -1.0238  0.0558
  149MOL   H17247828  13.365   3.088  -0.483 -1.4080 -0.5999 -0.7698
  149MOL   H17347829  13.570   2.982  -0.539 -2.0566 -0.9600 -0.4303
  149MOL   H17447830  13.694   2.853  -0.751  0.2455 -0.2140 -0.3873
  149MOL   H17547831  13.702   2.936  -0.895 -1.3075  0.1743 -0.1843
  149MOL   H17647832  13.544   3.121  -0.946  0.9524  2.0609  1.3736
  149MOL   H17747833  13.323   3.242  -0.881  0.5176  1.0238  0.6454
  149MOL   C17847834  13.829   3.034  -0.732  0.2620  0.1735  0.3664
  149MOL   C17947835  13.955   2.962  -0.785  0.0149 -1.1057 -0.1155
  149MOL   C18047836  13.990   2.949  -0.924  0.6178  0.6056 -0.0782
  149MOL   C18147837  14.095   2.871  -0.963 -0.1749 -0.2074 -0.1514
  149MOL   C18247838  14.180   2.812  -0.866  0.7456 -0.1304  0.0446
  149MOL   C18347839  14.300   2.716  -0.904  1.1495  0.1640 -0.0894
  149MOL   C18447840  14.160   2.841  -0.732 -0.3649  0.4589  0.6343
  149MOL   C18547841  14.045   2.910  -0.687  0.0270 -0.5274  0.2930
  149MOL   H18647842  13.811   3.023  -0.626 -1.4425 -2.3287 -0.1597
  149MOL   H18747843  13.820   3.136  -0.770 -0.2076 -0.9108 -2.5729
  149MOL   H18847844  13.924   2.993  -0.998  0.2010  2.6922  1.4997
  149MOL   H18947845  14.116   2.861  -1.069  2.3933  0.1847  0.2878
  149MOL   H19047846  14.363   2.714  -0.815  0.5692  1.5661  0.3623
  149MOL   H19147847  14.253   2.620  -0.924  0.8298  0.6875 -1.9761
  149MOL   H19247848  14.223   2.790  -0.660 -0.9096  1.2049  1.6490
  149MOL   H19347849  14.016   2.920  -0.584 -0.1352  0.6648  0.1325
  149MOL   C19447850  14.387   2.769  -1.017 -0.3522 -0.2031 -0.3940
  149MOL   C19547851  14.520   2.706  -1.026  0.5830 -0.4795  0.3652
  149MOL   C19647852  14.631   2.764  -0.968 -0.1273 -0.6470 -0.5690
  149MOL   C19747853  14.758   2.701  -0.979  0.7387  0.0563 -0.1833
  149MOL   C19847854  14.780   2.574  -1.035 -0.2374 -0.2600  0.0633
  149MOL   C19947855  14.908   2.505  -1.052 -0.2782  0.2681 -0.1917
  149MOL   C20047856  14.666   2.513  -1.083 -0.3210  0.5422  0.2741
  149MOL   C20147857  14.537   2.575  -1.078 -0.2528 -0.8368  0.1548
  149MOL   H20247858  14.391   2.878  -1.011 -0.9959 -0.1915 -0.0688
  149MOL   H20347859  14.336   2.752  -1.112 -0.7367 -0.0572 -0.2167
  149MOL   H20447860  14.630   2.857  -0.912  2.5911 -0.3222 -1.0090
  149MOL   H20547861  14.847   2.743  -0.936  1.4549 -2.3771  0.8108
  149MOL   H20647862  14.954   2.472  -0.959  0.4427 -1.5153 -1.1611
  149MOL   H20747863  14.898   2.410  -1.104 -3.1137  0.2673  0.2810
  149MOL   H20847864  14.671   2.416  -1.130  0.1550  0.4476  0.5218
  149MOL   H20947865  14.456   2.523  -1.127  0.7722 -1.9328 -0.4015
  149MOL   C21047866  15.012   2.596  -1.117 -0.5683  0.1307 -0.1572
  149MOL   C21147867  15.155   2.541  -1.126  0.1337  0.2609  0.0584
  149MOL   C21247868  15.256   2.632  -1.160 -0.5735 -0.1153 -0.7035
  149MOL   C21347869  15.390   2.595  -1.166  1.0397 -0.0593 -0.1943
  149MOL   C21447870  15.423   2.461  -1.130  0.3450  0.4865 -0.0185
  149MOL   C21547871  15.572   2.421  -1.133  0.5031  0.0799 -0.0715
  149MOL   C21647872  15.323   2.363  -1.098  0.4984  0.0535  0.1775
  149MOL   C21747873  15.191   2.407  -1.094 -0.0848  0.0879  0.0536
  149MOL   H21847874  15.026   2.685  -1.054 -1.3707  0.1944 -0.0697
  149MOL   H21947875  14.978   2.630  -1.215  0.6441  0.0971 -0.6047
  149MOL   H22047876  15.227   2.736  -1.163 -2.4413 -0.6450 -1.5382
  149MOL   H22147877  15.463   2.674  -1.178  0.3432  0.5657 -0.3454
  149MOL   H22247878  15.639   2.502  -1.103  0.9373 -0.2564 -0.1263
  149MOL   H22347879  15.582   2.342  -1.059 -1.8210  0.7127  0.9686
  149MOL   H22447880  15.343   2.259  -1.077  0.7343  0.2162  0.7807
  149MOL   H22547881  15.119   2.331  -1.067  1.8022 -2.3532 -1.5415
  149MOL   C22647882  15.624   2.366  -1.264  0.0135 -0.0643 -0.4823
  149MOL   C22747883  15.772   2.334  -1.260 -0.5419 -0.4174  0.1036
  149MOL   C22847884  15.868   2.431  -1.283 -0.5305  0.0027 -0.4682
  149MOL   C22947885  16.004   2.402  -1.285 -0.4861 -0.0571 -0.0599
  149MOL   C23047886  16.047   2.274  -1.246 -0.3394 -0.1616 -0.1699
  149MOL   C23147887  16.194   2.233  -1.234 -0.2033 -0.4395  0.3491
  149MOL   C23247888  15.948   2.176  -1.226  0.1045 -0.2580  0.1907
  149MOL   C23347889  15.808   2.203  -1.237  0.0736  0.0656 -0.0535
  149MOL   H23447890  15.626   2.447  -1.338  2.1561  0.0940 -0.3044
  149MOL   H23547891  15.566   2.280  -1.295 -2.2216  1.2372 -0.0230
  149MOL   H23647892  15.835   2.531  -1.308 -0.2145  0.0346 -0.7644
  149MOL   H23747893  16.079   2.477  -1.301 -0.3788 -0.2353 -0.4078
  149MOL   H23847894  16.249   2.315  -1.187  2.9010 -2.2044 -0.0903
  149MOL   H23947895  16.210   2.142  -1.177 -1.4257 -2.3764 -2.2772
  149MOL   H24047896  15.987   2.077  -1.210  1.0494  0.2429  1.0331
  149MOL   H24147897  15.745   2.116  -1.232  1.8586 -1.2987 -0.6290
  149MOL   C24247898  16.258   2.222  -1.377 -0.7757  0.8533 -0.4442
  149MOL   C24347899  16.402   2.167  -1.373  1.0148 -0.0424  0.1652
  149MOL   C24447900  16.424   2.037  -1.319 -0.6235  0.4187  0.4576
  149MOL   C24547901  16.552   1.981  -1.324 -0.0401 -0.0605  1.0780
  149MOL   C24647902  16.659   2.061  -1.375  0.4017  0.5037 -0.0151
  149MOL   C24747903  16.799   2.003  -1.374  0.3811  0.0292  0.0976
  149MOL   C24847904  16.638   2.193  -1.412  0.0915 -0.3954 -0.0888
  149MOL   C24947905  16.508   2.250  -1.412  0.0038  0.1669 -0.0795
  149MOL   H25047906  16.207   2.154  -1.446  0.6726  0.9427 -1.6177
  149MOL   H25147907  16.243   2.323  -1.414  0.0112  1.6218  1.3040
  149MOL   H25247908  16.341   1.993  -1.266 -1.2849  0.2020 -0.7455
  149MOL   H25347909  16.566   1.885  -1.276 -1.1296 -0.4830  0.5784
  149MOL   H25447910  16.861   2.085  -1.339  2.1262 -1.1377 -0.1850
  149MOL   H25547911  16.806   1.931  -1.292 -0.6421  0.5874  0.6911
  149MOL   H25647912  16.730   2.244  -1.437  0.4357 -0.9640 -0.0178
  149MOL   H25747913  16.493   2.355  -1.437  1.3537  0.4257  0.1772
  149MOL   C25847914  16.836   1.951  -1.506 -0.1150  0.1470  0.6921
  149MOL   C25947915  16.977   1.899  -1.533 -0.4518  0.1544 -0.4968
  149MOL   C26047916  17.084   1.966  -1.472 -0.3638 -0.2887  0.9104
  149MOL   C26147917  17.212   1.908  -1.471 -0.0130  0.1898  0.3037
  149MOL   C26247918  17.231   1.789  -1.549  0.3039  0.6788 -0.3582
  149MOL   C26347919  17.367   1.730  -1.571 -0.2763  0.0063  0.0242
  149MOL   C26447920  17.120   1.730  -1.614  0.1198  0.6998 -0.2235
  149MOL   C26547921  16.991   1.778  -1.601  0.6251 -0.5353  0.4543
  149MOL   H26647922  16.833   2.035  -1.576 -0.0089 -0.5355 -0.1287
  149MOL   H26747923  16.768   1.879  -1.552  0.3977  0.5366 -0.7186
  149MOL   H26847924  17.073   2.058  -1.416  3.2759  0.8082 -0.0643
  149MOL   H26947925  17.291   1.954  -1.412 -0.9120 -0.5914  2.1630
  149MOL   H27047926  17.404   1.683  -1.480 -1.2239  1.8586  1.4052
  149MOL   H27147927  17.357   1.650  -1.645  2.4043 -1.0813  0.7754
  149MOL   H27247928  17.139   1.644  -1.675 -2.0986 -0.1306  0.1996
  149MOL   H27347929  16.906   1.741  -1.657  2.0291 -1.3410 -1.1762
  149MOL   C27447930  17.463   1.828  -1.623  0.3206 -0.1799 -0.3081
  149MOL   C27547931  17.604   1.769  -1.637  0.3354 -0.4445 -0.1278
  149MOL   C27647932  17.627   1.652  -1.717  0.0741 -0.2839  0.2434
  149MOL   C27747933  17.752   1.592  -1.724  0.1082 -0.6211 -0.4482
  149MOL   C27847934  17.855   1.644  -1.638  0.5980 -0.3409 -0.1443
  149MOL   C27947935  17.994   1.580  -1.645 -0.0026  0.1421  0.9023
  149MOL   C28047936  17.839   1.766  -1.572 -0.1271  0.6997  0.3307
  149MOL   C28147937  17.705   1.823  -1.562 -0.5671 -0.9067 -0.2500
  149MOL   H28247938  17.424   1.875  -1.714  0.7315 -0.6889 -0.7504
  149MOL   H28347939  17.483   1.901  -1.545 -0.5703  0.7598 -0.9413
  149MOL   H28447940  17.551   1.610  -1.781 -0.4510  0.9482  0.0370
  149MOL   H28547941  17.774   1.502  -1.779 -1.2031 -1.1839 -0.0914
  149MOL   H28647942  18.049   1.583  -1.550  0.4701 -1.9255  0.7044
  149MOL   H28747943  17.995   1.472  -1.657 -0.1895  0.1876  0.4726
  149MOL   H28847944  17.922   1.813  -1.521  1.0426 -2.3122  1.3233
  149MOL   H28947945  17.689   1.915  -1.508  1.7352 -0.9430  0.5644
  149MOL   C29047946  18.092   1.653  -1.738  0.4547 -0.1335  0.4128
  149MOL   C29147947  18.224   1.585  -1.753 -0.3104  0.2719  0.0815
  149MOL   C29247948  18.337   1.640  -1.690 -0.7488  0.6437  0.1532
  149MOL   C29347949  18.464   1.577  -1.708 -0.9170 -0.3919  0.0767
  149MOL   C29447950  18.469   1.450  -1.774  0.1435 -1.0231  0.1292
  149MOL   C29547951  18.598   1.373  -1.801 -0.3985 -0.3493 -0.3588
  149MOL   C29647952  18.352   1.398  -1.838 -0.6422  0.4659 -0.7701
  149MOL   C29747953  18.233   1.465  -1.829  0.9886 -0.2912  0.1605
  149MOL   H29847954  18.107   1.754  -1.701  0.8218 -0.1324  0.2684
  149MOL   H29947955  18.051   1.663  -1.838  2.7240  0.7222 -0.4691
  149MOL   H30047956  18.324   1.734  -1.636  1.0986  0.1124  1.5785
  149MOL   H30147957  18.555   1.618  -1.667 -0.2211 -1.6575 -0.1910
  149MOL   H30247958  18.650   1.373  -1.705  1.1931 -1.7723 -1.1827
  149MOL   H30347959  18.562   1.272  -1.820 -1.6634  0.0622 -0.1988
  149MOL   H30447960  18.350   1.300  -1.884  0.6296  0.4191 -0.7582
  149MOL   H30547961  18.138   1.426  -1.861  0.4019  0.5379  0.8575
  149MOL   C30647962  18.686   1.442  -1.908  0.1488 -0.1869  0.0373
  149MOL   C30747963  18.837   1.395  -1.899  0.6993 -0.3047 -0.5400
  149MOL   C30847964  18.899   1.318  -2.006 -0.3041 -0.6273 -0.6051
  149MOL   C30947965  19.035   1.280  -1.995  0.2666  0.0855  0.0479
  149MOL   C31047966  19.106   1.311  -1.881  0.0178 -0.9238 -0.3394
  149MOL   C31147967  19.247   1.259  -1.866  0.3755 -0.1106 -0.1659
  149MOL   C31247968  19.054   1.406  -1.791  0.4153 -0.4232 -0.0700
  149MOL   C31347969  18.919   1.434  -1.793  0.2348  0.1582 -0.0231
  149MOL   H31447970  18.677   1.548  -1.886 -0.1356 -0.1381 -0.3031
  149MOL   H31547971  18.638   1.435  -2.006  0.5364  2.0832 -0.3496
  149MOL   H31647972  18.836   1.299  -2.092 -1.6167  1.0773 -0.0517
  149MOL   H31747973  19.076   1.209  -2.065 -2.6063 -2.2675  0.6705
  149MOL   H31847974  19.291   1.257  -1.965  1.8232  2.1162  0.3960
  149MOL   H31947975  19.309   1.321  -1.802 -0.4634  0.4212  0.1364
  149MOL   H32047976  19.115   1.457  -1.717 -0.6116  0.8575 -0.0924
  149MOL   H32147977  18.868   1.491  -1.717  1.0433  0.9580 -0.0777
  149MOL   H32247978  19.250   1.153  -1.840 -1.4477  0.2706  1.7608
  150MOL     C147979   1.989   1.500   5.542  0.0310  0.3853  0.1867
  150MOL     C247980   1.839   1.513   5.518 -0.1775 -0.2471 -0.3225
  150MOL     C347981   1.767   1.630   5.493  0.5245  0.6307  0.6776
  150MOL     C447982   1.624   1.621   5.464  0.1744  0.0255 -0.1065
  150MOL     C547983   1.561   1.496   5.461  0.0303  0.7177 -0.2023
  150MOL     C647984   1.406   1.489   5.444 -0.8058 -0.1613 -0.5183
  150MOL     C747985   1.637   1.379   5.483  0.5689 -0.4724  0.1952
  150MOL     C847986   1.774   1.389   5.530 -0.9726  0.1385  0.0289
  150MOL     H947987   2.027   1.600   5.566  0.9643 -0.1307  0.9077
  150MOL    H1047988   2.008   1.439   5.631  1.8394 -1.2412 -1.2923
  150MOL    H1147989   1.824   1.721   5.479 -0.0910  0.5992 -2.3695
  150MOL    H1247990   1.582   1.719   5.450  0.8034  0.3255  0.0783
  150MOL    H1347991   1.397   1.509   5.338  0.1899 -1.4583 -0.8546
  150MOL    H1447992   1.362   1.391   5.467 -2.2740  1.0018  1.8946
  150MOL    H1547993   1.593   1.281   5.481 -0.9523  0.2127 -2.3901
  150MOL    H1647994   1.832   1.298   5.537 -0.4193  0.5239  0.4018
  150MOL    H1747995   2.041   1.468   5.452 -0.5723  0.3132 -0.1356
  150MOL    C1847996   1.326   1.594   5.514  0.0965 -0.3592 -0.0873
  150MOL    C1947997   1.178   1.569   5.502  0.1893 -1.0106 -0.1458
  150MOL    C2047998   1.098   1.608   5.389 -0.4567 -0.9195 -0.2474
  150MOL    C2147999   0.958   1.603   5.403 -0.3097  0.4823  0.5099
  150MOL    C2248000   0.892   1.550   5.514 -0.3872 -0.2541  0.1851
  150MOL    C2348001   0.732   1.555   5.522 -0.0410 -0.2351  0.0392
  150MOL    C2448002   0.973   1.493   5.611  0.4817 -0.0666  0.2635
  150MOL    C2548003   1.114   1.501   5.606  0.2731 -0.2040 -0.2409
  150MOL    H2648004   1.352   1.586   5.620  0.5556 -3.2296 -0.3749
  150MOL    H2748005   1.344   1.694   5.475  0.6355 -1.0781 -1.6898
  150MOL    H2848006   1.145   1.642   5.298 -0.4448  0.2324  0.1792
  150MOL    H2948007   0.899   1.635   5.318  0.0072  0.2903  0.2182
  150MOL    H3048008   0.704   1.463   5.572  2.2601 -1.7596 -1.3600
  150MOL    H3148009   0.696   1.554   5.419 -0.2325  3.0552  0.0361
  150MOL    H3248010   0.936   1.440   5.698 -1.4893  0.3046 -0.3389
  150MOL    H3348011   1.166   1.464   5.693  0.0460  1.1152  0.4697
  150MOL    C3448012   0.667   1.675   5.596  0.1870 -0.8649 -0.6738
  150MOL    C3548013   0.518   1.696   5.569  0.3924 -0.0873  0.0522
  150MOL    C3648014   0.479   1.750   5.444  0.7228  0.3447  0.4949
  150MOL    C3748015   0.347   1.796   5.424 -1.2551  0.1276  0.1994
  150MOL    C3848016   0.247   1.779   5.520  0.0877  0.2013  0.0276
  150MOL    C3948017   0.112   1.822   5.477  0.0126  0.5008  0.1237
  150MOL    C4048018   0.281   1.712   5.645 -0.6218  0.6352  0.8610
  150MOL    C4148019   0.416   1.673   5.664 -0.3530  0.3464  0.0883
  150MOL    H4248020   0.710   1.770   5.563  0.0065 -0.4922  0.1400
  150MOL    H4348021   0.673   1.674   5.705 -1.4831  0.7965 -0.5380
  150MOL    H4448022   0.556   1.755   5.368  0.2855 -2.4312 -0.1808
  150MOL    H4548023   0.318   1.840   5.330 -0.5813 -0.2392 -0.1845
  150MOL    H4648024   0.125   1.916   5.424  0.5160  0.7762  0.7230
  150MOL    H4748025   0.070   1.741   5.417 -1.0829  0.7270  0.5700
  150MOL    H4848026   0.202   1.686   5.715 -1.3875 -1.3297 -0.6758
  150MOL    H4948027   0.434   1.636   5.764  2.2376 -1.3362 -0.9420
  150MOL    C5048028   0.007   1.847   5.590  0.3384 -0.0811 -0.5561
  150MOL    C5148029  -0.128   1.891   5.530  0.4453  0.2874  0.3809
  150MOL    C5248030  -0.153   2.025   5.530  0.6331 -0.7615  1.1631
  150MOL    C5348031  -0.282   2.078   5.491 -0.7335  0.3616 -0.4648
  150MOL    C5448032  -0.388   1.988   5.470  0.9215  0.5430 -0.5376
  150MOL    C5548033  -0.527   2.046   5.461 -0.1346 -0.4445  0.0570
  150MOL    C5648034  -0.363   1.847   5.456  0.1221  0.6808 -0.0846
  150MOL    C5748035  -0.229   1.799   5.488 -0.6780  0.1103  0.4058
  150MOL    H5848036   0.051   1.927   5.649 -0.1204  0.3799 -0.8342
  150MOL    H5948037  -0.005   1.763   5.659 -1.4202  0.4367 -0.2197
  150MOL    H6048038  -0.070   2.091   5.549  2.1175 -1.6226 -2.1249
  150MOL    H6148039  -0.291   2.185   5.485  1.6222  0.5942 -0.2856
  150MOL    H6248040  -0.522   2.149   5.426 -1.3324 -0.5741 -0.5518
  150MOL    H6348041  -0.583   1.992   5.384 -1.5198  0.2764  0.5471
  150MOL    H6448042  -0.436   1.771   5.436  1.8868 -0.2451 -3.3049
  150MOL    H6548043  -0.219   1.691   5.487 -0.5920  0.1144  0.7861
  150MOL    C6648044  -0.599   2.041   5.596  0.3824 -0.2158  0.1434
  150MOL    C6748045  -0.744   2.065   5.583 -1.1249  0.5732  0.3218
  150MOL    C6848046  -0.778   2.197   5.558  0.4359  0.1556 -0.1689
  150MOL    C6948047  -0.913   2.234   5.552  0.3775  0.3609 -0.0855
  150MOL    C7048048  -1.014   2.136   5.573  0.3800  0.1859  0.7969
  150MOL    C7148049  -1.160   2.171   5.555 -0.4910  0.4813  0.0752
  150MOL    C7248050  -0.978   2.003   5.592  1.4193  0.1188  0.4109
  150MOL    C7348051  -0.837   1.963   5.598  0.6153 -0.0519  0.2636
  150MOL    H7448052  -0.553   2.109   5.669  0.0344 -0.6092  0.7326
  150MOL    H7548053  -0.573   1.940   5.627  3.2403  0.4388  0.0359
  150MOL    H7648054  -0.701   2.273   5.551 -0.6107  1.4989  2.0833
  150MOL    H7748055  -0.940   2.336   5.529 -0.2353  0.6262  1.7707
  150MOL    H7848056  -1.195   2.109   5.472 -1.0632  1.4269 -0.3996
  150MOL    H7948057  -1.167   2.272   5.514  0.6870 -0.1127 -1.6626
  150MOL    H8048058  -1.052   1.925   5.602  1.5081 -0.2018 -1.2711
  150MOL    H8148059  -0.802   1.862   5.612  2.0314  0.2472 -0.8920
  150MOL    C8248060  -1.235   2.149   5.693  0.0296  0.0699  0.3159
  150MOL    C8348061  -1.371   2.201   5.682  0.2920  0.8301 -0.8295
  150MOL    C8448062  -1.387   2.336   5.689  0.4850  0.0191  0.5405
  150MOL    C8548063  -1.523   2.385   5.684 -0.2807  0.3794 -0.0489
  150MOL    C8648064  -1.637   2.304   5.654  0.2100  0.2048  0.0189
  150MOL    C8748065  -1.776   2.365   5.624 -0.2400  0.7236 -0.3318
  150MOL    C8848066  -1.604   2.168   5.627 -0.0407  0.1282 -0.1560
  150MOL    C8948067  -1.477   2.111   5.653  0.1192  0.3364  0.1614
  150MOL    H9048068  -1.193   2.198   5.781 -1.1712 -0.8756  1.4569
  150MOL    H9148069  -1.236   2.042   5.717  1.0897 -0.1877 -0.7958
  150MOL    H9248070  -1.309   2.410   5.699 -1.6407  2.4972 -0.3629
  150MOL    H9348071  -1.550   2.489   5.692 -1.2820 -0.0230  2.0697
  150MOL    H9448072  -1.827   2.316   5.541  3.2507  0.1806 -2.2617
  150MOL    H9548073  -1.760   2.466   5.587 -1.3681  1.0629  0.0698
  150MOL    H9648074  -1.681   2.105   5.586 -0.6406  1.4874 -1.1645
  150MOL    H9748075  -1.458   2.008   5.629  2.6943  0.8945 -0.3457
  150MOL    C9848076  -1.860   2.354   5.755  0.0826 -0.3074  0.0049
  150MOL    C9948077  -2.004   2.400   5.756  0.5081  0.6179  0.8138
  150MOL   C10048078  -2.051   2.492   5.853  0.8345  0.0861  0.1434
  150MOL   C10148079  -2.187   2.529   5.849  0.8214 -0.5218  0.0550
  150MOL   C10248080  -2.278   2.468   5.762 -0.1453  0.2599  0.1238
  150MOL   C10348081  -2.424   2.498   5.755 -0.4680  0.0933 -0.1648
  150MOL   C10448082  -2.230   2.378   5.663  0.8203  0.2311 -0.9450
  150MOL   C10548083  -2.095   2.340   5.664  0.5261  0.3514  0.4335
  150MOL   H10648084  -1.821   2.412   5.838 -1.7014  1.5513 -0.4142
  150MOL   H10748085  -1.867   2.249   5.783 -1.8945  0.2759  1.9170
  150MOL   H10848086  -1.992   2.533   5.933 -0.7099  1.0493  0.8045
  150MOL   H10948087  -2.218   2.601   5.924  1.0803  2.2328 -2.4161
  150MOL   H11048088  -2.430   2.606   5.738  1.5668  0.3017  0.2482
  150MOL   H11148089  -2.475   2.438   5.680  0.7779 -0.4109 -0.6203
  150MOL   H11248090  -2.297   2.337   5.588 -1.4737  0.2950  1.0129
  150MOL   H11348091  -2.053   2.276   5.589  0.9855  0.2255  0.7935
  150MOL   C11448092  -2.491   2.468   5.888 -0.1700 -0.1190 -0.3883
  150MOL   C11548093  -2.628   2.515   5.892  0.6137 -0.1025  0.2087
  150MOL   C11648094  -2.660   2.650   5.923 -0.9838 -0.3777 -0.1883
  150MOL   C11748095  -2.795   2.688   5.932 -0.3479 -0.1550 -0.3468
  150MOL   C11848096  -2.899   2.596   5.914  0.3982 -0.1172  0.4221
  150MOL   C11948097  -3.048   2.636   5.903  0.3908  0.5169  0.3099
  150MOL   C12048098  -2.866   2.460   5.896 -0.0770  0.6300 -0.2619
  150MOL   C12148099  -2.736   2.426   5.877  0.2354 -0.1660 -0.3570
  150MOL   H12248100  -2.441   2.530   5.962 -1.2159  0.8008 -0.4360
  150MOL   H12348101  -2.482   2.366   5.924 -1.7847 -0.2950 -0.4388
  150MOL   H12448102  -2.584   2.726   5.934 -1.7723  0.4672 -0.4767
  150MOL   H12548103  -2.818   2.792   5.951 -1.8639 -0.7764  1.4054
  150MOL   H12648104  -3.074   2.714   5.830 -0.9882 -1.3554 -1.2496
  150MOL   H12748105  -3.094   2.542   5.875  0.0182  0.8631 -0.2504
  150MOL   H12848106  -2.934   2.377   5.887 -0.5728  0.7610  1.9419
  150MOL   H12948107  -2.708   2.329   5.837  1.8601  0.7964 -1.6627
  150MOL   C13048108  -3.107   2.680   6.037  0.7182 -0.0752 -0.5406
  150MOL   C13148109  -3.248   2.734   6.018  0.0879 -0.3559  0.3031
  150MOL   C13248110  -3.362   2.650   6.022 -0.4214  0.1207  0.5920
  150MOL   C13348111  -3.492   2.702   6.019 -0.0497 -0.2440 -0.2379
  150MOL   C13448112  -3.512   2.842   5.993 -0.0367 -0.2230  0.4816
  150MOL   C13548113  -3.653   2.899   5.995  0.2024  0.3839 -0.1682
  150MOL   C13648114  -3.398   2.924   5.974 -0.4331 -0.6893 -0.0751
  150MOL   C13748115  -3.271   2.871   5.982 -0.2323  0.1721  0.1470
  150MOL   H13848116  -3.049   2.768   6.064 -0.6765  1.4964 -2.5714
  150MOL   H13948117  -3.086   2.608   6.117  1.1660 -0.5351 -1.0622
  150MOL   H14048118  -3.346   2.543   6.032 -0.2198  0.2490  1.6971
  150MOL   H14148119  -3.583   2.646   6.035 -1.1068  1.7508  0.9410
  150MOL   H14248120  -3.712   2.836   6.061  0.8650  0.6211  0.6660
  150MOL   H14348121  -3.646   2.983   6.064 -0.3011  0.6060 -0.3897
  150MOL   H14448122  -3.406   3.031   5.962 -0.5516 -0.3410  2.7392
  150MOL   H14548123  -3.182   2.929   5.961  0.3888 -0.3594  1.2687
  150MOL   C14648124  -3.722   2.943   5.864 -0.0579  0.3505  0.2315
  150MOL   C14748125  -3.708   2.834   5.751 -1.1790  0.4789 -0.0951
  150MOL   C14848126  -3.582   2.815   5.693 -0.7387  0.3881  0.2857
  150MOL   C14948127  -3.562   2.705   5.610  0.0659  0.0966 -0.8701
  150MOL   C15048128  -3.661   2.607   5.588  0.4427  0.4901  0.0605
  150MOL   C15148129  -3.636   2.495   5.494 -1.0691  0.5915  0.0844
  150MOL   C15248130  -3.792   2.633   5.634 -0.1822  0.3933 -0.2651
  150MOL   C15348131  -3.818   2.745   5.717 -0.0345 -0.1386 -0.5841
  150MOL   H15448132  -3.665   3.030   5.830  2.5339 -1.3049  0.2162
  150MOL   H15548133  -3.825   2.970   5.889  0.4320  2.0595  0.4756
  150MOL   H15648134  -3.504   2.880   5.730 -2.2188  2.8494 -0.7468
  150MOL   H15748135  -3.460   2.697   5.576  0.3342  1.0503 -0.3263
  150MOL   H15848136  -3.733   2.457   5.463 -1.6754  1.0813  1.3177
  150MOL   H15948137  -3.586   2.519   5.400 -1.0180  0.3429  0.0488
  150MOL   H16048138  -3.865   2.556   5.611  0.9954 -1.2165  1.2593
  150MOL   H16148139  -3.915   2.768   5.756  0.3125  1.1057 -0.4146
  150MOL   C16248140  -3.549   2.379   5.564  0.1358 -0.1158  0.3537
  150MOL   C16348141  -3.401   2.385   5.541  0.9359 -0.4727  0.9753
  150MOL   C16448142  -3.318   2.382   5.655 -0.4447  0.0791  0.2406
  150MOL   C16548143  -3.176   2.368   5.636  0.7351 -0.4957  0.6672
  150MOL   C16648144  -3.122   2.370   5.508  0.3761 -0.2894  0.1251
  150MOL   C16748145  -2.972   2.361   5.498 -0.4733  0.5374  0.0476
  150MOL   C16848146  -3.201   2.386   5.395  0.0043 -0.2887 -0.2038
  150MOL   C16948147  -3.338   2.381   5.412  0.3663 -0.7226 -0.2975
  150MOL   H17048148  -3.574   2.283   5.519 -0.1821  0.9322 -1.7872
  150MOL   H17148149  -3.566   2.374   5.672 -1.7657  2.0905  0.1997
  150MOL   H17248150  -3.352   2.389   5.757  0.2784  2.1607  0.3552
  150MOL   H17348151  -3.117   2.364   5.727 -0.4569 -0.9120  1.4228
  150MOL   H17448152  -2.938   2.453   5.450 -1.1910  1.0956  0.6002
  150MOL   H17548153  -2.931   2.364   5.599 -0.9235 -1.8737  0.3138
  150MOL   H17648154  -3.169   2.384   5.291  2.1659  1.4243  0.3975
  150MOL   H17748155  -3.396   2.386   5.320  0.3449 -0.7703 -0.2869
  150MOL   C17848156  -2.933   2.225   5.437 -0.3506 -0.3567  0.4550
  150MOL   C17948157  -2.785   2.202   5.414  0.5751 -0.0909  0.3978
  150MOL   C18048158  -2.696   2.194   5.523 -0.3020  0.9057 -0.2004
  150MOL   C18148159  -2.557   2.175   5.504 -0.1496  0.1602  0.0502
  150MOL   C18248160  -2.502   2.168   5.379 -0.3083 -0.5913 -0.2659
  150MOL   C18348161  -2.348   2.138   5.360  0.3915 -0.2961 -0.0320
  150MOL   C18448162  -2.591   2.165   5.266  0.5477  0.2962 -0.3331
  150MOL   C18548163  -2.730   2.187   5.285 -0.5467 -0.2545  0.4133
  150MOL   H18648164  -2.987   2.220   5.343 -1.5835 -0.0660  1.1276
  150MOL   H18748165  -2.976   2.140   5.492  1.6204  0.1162  2.8197
  150MOL   H18848166  -2.734   2.195   5.624  0.1473 -1.9943  0.0477
  150MOL   H18948167  -2.498   2.161   5.593  1.0047  0.3350 -0.6753
  150MOL   H19048168  -2.321   2.165   5.258  1.4456  0.6996  0.5002
  150MOL   H19148169  -2.283   2.189   5.432  0.1931  0.1587 -0.1734
  150MOL   H19248170  -2.545   2.140   5.171 -1.3283 -0.8086 -0.9685
  150MOL   H19348171  -2.795   2.187   5.198  2.5505 -2.6038 -2.0473
  150MOL   C19448172  -2.320   1.988   5.367 -0.1987  0.3467  0.2640
  150MOL   C19548173  -2.182   1.957   5.335 -0.1155 -0.5202  0.8314
  150MOL   C19648174  -2.086   1.956   5.437 -0.1295 -0.4560 -0.0633
  150MOL   C19748175  -1.945   1.956   5.403 -0.3193  0.4808 -0.2828
  150MOL   C19848176  -1.908   1.946   5.269  0.5176  0.0252  0.7816
  150MOL   C19948177  -1.758   1.949   5.241 -0.2465 -0.3094 -0.1631
  150MOL   C20048178  -2.003   1.941   5.165 -0.2624  0.2896 -0.1338
  150MOL   C20148179  -2.140   1.949   5.200  0.8145  0.4535  0.1662
  150MOL   H20248180  -2.387   1.937   5.299  0.1053  0.9447 -0.4897
  150MOL   H20348181  -2.335   1.947   5.467 -0.1185 -0.2788  0.0144
  150MOL   H20448182  -2.115   1.974   5.540  0.2929  2.3530 -0.3885
  150MOL   H20548183  -1.864   1.960   5.473 -0.5647 -0.2481  0.0479
  150MOL   H20648184  -1.741   1.983   5.139 -0.3576 -0.7786 -0.3394
  150MOL   H20748185  -1.717   2.031   5.299 -0.3949 -1.2073  1.2293
  150MOL   H20848186  -1.977   1.950   5.061 -4.2029  0.6700 -1.1434
  150MOL   H20948187  -2.221   1.953   5.128  0.0573 -0.5636  0.9490
  150MOL   C21048188  -1.684   1.819   5.257  0.2377  0.7026 -0.6415
  150MOL   C21148189  -1.538   1.833   5.236 -0.3942 -0.5246 -0.3649
  150MOL   C21248190  -1.453   1.878   5.335 -0.6512 -0.1009  0.0025
  150MOL   C21348191  -1.313   1.864   5.321  0.3195  0.6754 -0.3781
  150MOL   C21448192  -1.265   1.814   5.197 -1.0288 -0.3343 -0.0024
  150MOL   C21548193  -1.111   1.813   5.180 -0.1867  0.1926  0.6136
  150MOL   C21648194  -1.351   1.785   5.086  0.0248 -0.1920 -0.0549
  150MOL   C21748195  -1.489   1.790   5.110 -0.2433 -0.2462  0.3844
  150MOL   H21848196  -1.730   1.743   5.194 -2.9652  1.0085  1.2149
  150MOL   H21948197  -1.698   1.784   5.359 -0.1780 -0.9789 -1.2541
  150MOL   H22048198  -1.475   1.913   5.435  0.7684  0.4288  0.1383
  150MOL   H22148199  -1.246   1.896   5.399 -0.8040  1.8129  0.1414
  150MOL   H22248200  -1.089   1.875   5.094  2.2460 -1.2249  0.1490
  150MOL   H22348201  -1.072   1.878   5.259 -0.3238  2.1828 -0.9113
  150MOL   H22448202  -1.314   1.751   4.990 -0.1740 -0.9987  0.1559
  150MOL   H22548203  -1.558   1.765   5.031 -1.8150  1.1941  1.2699
  150MOL   C22648204  -1.064   1.665   5.182 -0.0078 -0.3050  0.1494
  150MOL   C22748205  -0.915   1.650   5.152 -1.0945 -0.3967  0.0624
  150MOL   C22848206  -0.869   1.606   5.026  0.3606 -0.0007  0.4969
  150MOL   C22948207  -0.727   1.581   5.004  0.2793  0.3074  0.3785
  150MOL   C23048208  -0.637   1.601   5.112 -0.4508  0.3999 -0.1421
  150MOL   C23148209  -0.490   1.576   5.095 -0.7152  0.1083 -0.2137
  150MOL   C23248210  -0.679   1.636   5.242  0.6707 -0.1888  0.1958
  150MOL   C23348211  -0.819   1.667   5.258 -0.2346  0.3381  0.1652
  150MOL   H23448212  -1.121   1.630   5.095 -0.8686  1.2869  0.0616
  150MOL   H23548213  -1.097   1.592   5.256 -0.2835 -0.1116  0.2152
  150MOL   H23648214  -0.945   1.580   4.954  1.5480 -0.5843 -0.5587
  150MOL   H23748215  -0.685   1.550   4.909 -2.8959  0.7939 -1.2682
  150MOL   H23848216  -0.465   1.603   4.993 -1.8351  0.9866 -0.2708
  150MOL   H23948217  -0.442   1.652   5.157  0.0742 -1.2817  0.9137
  150MOL   H24048218  -0.615   1.648   5.329  1.6764  0.3092 -0.5947
  150MOL   H24148219  -0.855   1.699   5.354 -1.1574 -1.1240  0.3270
  150MOL   C24248220  -0.445   1.433   5.133  0.1397 -0.3974 -0.1849
  150MOL   C24348221  -0.304   1.398   5.099 -0.8854  0.5130 -0.6122
  150MOL   C24448222  -0.274   1.321   4.984  0.4700  0.0090 -0.2012
  150MOL   C24548223  -0.150   1.276   4.954 -0.1458 -0.3176 -0.5009
  150MOL   C24648224  -0.043   1.312   5.039  0.0994 -0.2785 -0.6086
  150MOL   C24748225   0.100   1.253   5.017 -0.5986 -0.1807 -0.3851
  150MOL   C24848226  -0.067   1.406   5.145  0.3763  0.4044 -0.4118
  150MOL   C24948227  -0.198   1.453   5.173  0.4216  0.0509  0.3340
  150MOL   H25048228  -0.469   1.416   5.238  1.6291  1.4941  0.4709
  150MOL   H25148229  -0.502   1.353   5.085  0.4529 -1.0129  0.4589
  150MOL   H25248230  -0.353   1.285   4.920 -1.0830 -0.5672  1.9786
  150MOL   H25348231  -0.134   1.229   4.858  0.1307  0.2973 -0.7653
  150MOL   H25448232   0.128   1.259   4.912  1.9495 -1.4922  0.1848
  150MOL   H25548233   0.174   1.308   5.076  0.5461 -2.4329  0.3746
  150MOL   H25648234   0.015   1.442   5.205 -1.8218  0.6601  2.5582
  150MOL   H25748235  -0.229   1.511   5.258  0.2446  0.8499 -0.2684
  150MOL   C25848236   0.105   1.097   5.055  0.3474 -0.4784 -0.0723
  150MOL   C25948237   0.240   1.033   5.025  0.2910  0.1108 -0.4490
  150MOL   C26048238   0.318   0.996   5.136 -0.0977 -0.6018 -0.4541
  150MOL   C26148239   0.445   0.937   5.117 -0.6998 -0.1972  0.1700
  150MOL   C26248240   0.492   0.907   4.991  0.0790  0.1863  1.0893
  150MOL   C26348241   0.626   0.834   4.963 -0.2216 -0.5674  0.6474
  150MOL   C26448242   0.416   0.950   4.877 -0.0570 -0.4112  0.2910
  150MOL   C26548243   0.291   1.011   4.896 -0.6232 -0.6119  0.2235
  150MOL   H26648244   0.031   1.040   4.999  2.5864 -2.3377 -1.2626
  150MOL   H26748245   0.072   1.087   5.158 -2.6363  1.0103 -0.8233
  150MOL   H26848246   0.276   1.017   5.233 -1.4963  0.8208 -1.3392
  150MOL   H26948247   0.501   0.923   5.208 -0.3856 -1.5008 -0.2145
  150MOL   H27048248   0.617   0.726   4.971  2.8178 -0.9422 -0.3925
  150MOL   H27148249   0.662   0.846   4.861 -0.5649 -3.2115  0.1858
  150MOL   H27248250   0.451   0.932   4.777 -3.4020 -1.6013 -0.7363
  150MOL   H27348251   0.238   1.050   4.810  1.2530  1.0406 -0.2184
  150MOL   C27448252   0.737   0.874   5.057 -0.7410 -0.5261 -1.1002
  150MOL   C27548253   0.868   0.808   5.021  0.5578 -0.7878 -0.8678
  150MOL   C27648254   0.943   0.730   5.117  0.1517 -0.5453 -0.5454
  150MOL   C27748255   1.062   0.662   5.074  0.2225 -0.2743 -0.0273
  150MOL   C27848256   1.116   0.678   4.945 -0.2495  0.7404  0.2208
  150MOL   C27948257   1.244   0.602   4.913 -0.5296  0.6084 -0.5330
  150MOL   C28048258   1.041   0.748   4.851  0.6022  0.4612 -0.3939
  150MOL   C28148259   0.916   0.811   4.885 -0.6020 -0.1291  0.2410
  150MOL   H28248260   0.744   0.981   5.038  0.4654 -0.3556  0.1769
  150MOL   H28348261   0.718   0.863   5.164  2.0854  0.7011 -0.4021
  150MOL   H28448262   0.906   0.717   5.217  0.2626 -1.1308 -0.5812
  150MOL   H28548263   1.109   0.611   5.157  1.2612  0.0735 -0.3928
  150MOL   H28648264   1.221   0.497   4.926 -1.8718  1.0015  0.3591
  150MOL   H28748265   1.259   0.628   4.808 -5.4148  0.7431 -1.3316
  150MOL   H28848266   1.066   0.759   4.746  1.3548 -1.2424 -0.4052
  150MOL   H28948267   0.855   0.868   4.817 -0.8228  0.3076  0.8026
  150MOL   C29048268   1.374   0.643   4.986  0.1224 -0.5321 -0.3462
  150MOL   C29148269   1.501   0.577   4.943 -0.3130  0.2294  0.7677
  150MOL   C29248270   1.557   0.469   5.017 -0.5221  0.7192 -0.6804
  150MOL   C29348271   1.672   0.406   4.968 -0.7534 -1.0762 -0.7740
  150MOL   C29448272   1.720   0.424   4.834  0.4099  1.1742 -0.6922
  150MOL   C29548273   1.845   0.356   4.779 -0.1852  0.2379 -0.7287
  150MOL   C29648274   1.653   0.529   4.762 -1.0303 -0.0303  0.3187
  150MOL   C29748275   1.550   0.602   4.819 -0.3617 -0.1300 -0.0314
  150MOL   H29848276   1.355   0.631   5.093  2.1420 -0.8702 -0.0065
  150MOL   H29948277   1.390   0.749   4.968  0.3789 -0.5112 -0.0044
  150MOL   H30048278   1.510   0.447   5.111 -0.9739 -0.1588 -1.1033
  150MOL   H30148279   1.715   0.335   5.037 -0.5977  0.4859  0.7884
  150MOL   H30248280   1.841   0.247   4.790  3.0573  0.3515  2.3923
  150MOL   H30348281   1.844   0.356   4.670  0.4866 -2.3515 -0.7778
  150MOL   H30448282   1.696   0.543   4.664 -1.7947 -1.9273 -0.3125
  150MOL   H30548283   1.508   0.687   4.766  0.2403  1.1036  1.4459
  150MOL   C30648284   1.977   0.415   4.833  0.1482  0.6997  0.0178
  150MOL   C30748285   2.096   0.325   4.832 -0.2528 -0.7644  0.4849
  150MOL   C30848286   2.181   0.309   4.720  1.2384  0.0996  0.2040
  150MOL   C30948287   2.296   0.229   4.721  0.2461  0.3956 -0.5491
  150MOL   C31048288   2.324   0.151   4.835 -0.2703 -0.8052 -0.4858
  150MOL   C31148289   2.444   0.063   4.830  0.5587 -0.3184  0.0938
  150MOL   C31248290   2.249   0.157   4.948 -0.2902  0.0482  0.3564
  150MOL   C31348291   2.134   0.247   4.945 -0.9916  0.2778  0.1265
  150MOL   H31448292   1.956   0.451   4.934 -0.4922 -0.6288  0.3589
  150MOL   H31548293   2.001   0.504   4.775  1.3796 -0.3322 -1.0802
  150MOL   H31648294   2.142   0.353   4.629  1.1994  1.4066  0.8469
  150MOL   H31748295   2.349   0.221   4.627  3.0173 -0.0194  0.9843
  150MOL   H31848296   2.529   0.118   4.870  0.0363  0.8481 -0.3917
  150MOL   H31948297   2.433  -0.025   4.893  1.9432  0.1067  0.9600
  150MOL   H32048298   2.277   0.101   5.036 -2.4954 -3.3682 -1.0088
  150MOL   H32148299   2.070   0.244   5.033 -2.8256  1.8002 -1.1111
  150MOL   H32248300   2.480   0.034   4.731  0.3608  0.3506 -0.1796
  151MOL     C148301   5.465   0.831   5.103  0.4034 -0.4630  0.4035
  151MOL     C248302   5.329   0.895   5.126 -0.1372 -0.5761  0.2498
  151MOL     C348303   5.238   0.902   5.019  0.0786  0.5641  0.5801
  151MOL     C448304   5.106   0.943   5.041 -0.2828  0.0480  0.7073
  151MOL     C548305   5.059   0.968   5.170 -0.2834  0.4045  0.1685
  151MOL     C648306   4.915   0.993   5.198  0.0574  0.0030 -0.1713
  151MOL     C748307   5.157   0.988   5.273  0.2156 -1.4268 -0.0013
  151MOL     C848308   5.292   0.949   5.251 -0.6166 -0.0306  0.4409
  151MOL     H948309   5.508   0.893   5.025  1.4258 -0.2614  1.1078
  151MOL    H1048310   5.525   0.812   5.192 -0.8759 -1.4940  1.0644
  151MOL    H1148311   5.266   0.865   4.921 -0.1223  1.5556  0.1408
  151MOL    H1248312   5.033   0.938   4.961 -1.1896  1.4507  1.4311
  151MOL    H1348313   4.862   0.905   5.162  1.0970 -2.1335  3.3558
  151MOL    H1448314   4.898   1.007   5.305 -1.0871  0.6457 -0.4267
  151MOL    H1548315   5.117   1.007   5.371  0.7721 -2.1409  0.3694
  151MOL    H1648316   5.357   0.947   5.337 -0.1863 -1.2502  0.0929
  151MOL    H1748317   5.447   0.733   5.060  1.1043 -1.1609  1.6580
  151MOL    C1848318   4.865   1.124   5.135  0.2595  0.2259  0.0040
  151MOL    C1948319   4.727   1.163   5.176  0.1488 -0.1216  0.0143
  151MOL    C2048320   4.705   1.237   5.296 -0.5511  0.1918 -0.8223
  151MOL    C2148321   4.573   1.275   5.335 -0.1158  0.5173  0.2298
  151MOL    C2248322   4.463   1.234   5.256  0.6737  0.3164  0.4709
  151MOL    C2348323   4.322   1.284   5.296 -0.8469  0.3478  0.1165
  151MOL    C2448324   4.487   1.167   5.139  0.0153 -0.3458 -0.3973
  151MOL    C2548325   4.614   1.126   5.099  0.2014  0.0108  0.5865
  151MOL    H2648326   4.939   1.200   5.162 -2.0277  1.7632  2.1141
  151MOL    H2748327   4.859   1.118   5.026  0.4938  2.2769 -0.1330
  151MOL    H2848328   4.789   1.262   5.359 -0.0616  0.0589 -1.4182
  151MOL    H2948329   4.558   1.327   5.428 -2.9129  0.2883 -0.0551
  151MOL    H3048330   4.311   1.273   5.404 -2.6752 -0.5716 -0.1398
  151MOL    H3148331   4.249   1.214   5.254 -0.3348  0.4065 -0.9011
  151MOL    H3248332   4.404   1.146   5.073  1.7835 -2.5167 -2.0085
  151MOL    H3348333   4.626   1.059   5.015 -0.3544  1.6736 -0.8590
  151MOL    C3448334   4.288   1.420   5.250  0.0695  0.0663  0.3926
  151MOL    C3548335   4.142   1.451   5.273  0.3698 -0.6869 -0.0507
  151MOL    C3648336   4.093   1.472   5.409  0.3309  0.3734 -0.3117
  151MOL    C3748337   3.957   1.497   5.429  0.7095  0.1751 -0.1629
  151MOL    C3848338   3.868   1.500   5.322  0.0407 -0.6957 -0.1507
  151MOL    C3948339   3.724   1.532   5.347  0.4814  0.8941 -0.1260
  151MOL    C4048340   3.918   1.479   5.192  0.1869 -0.8273  0.0857
  151MOL    C4148341   4.053   1.454   5.167  0.7402  0.0395  0.6676
  151MOL    H4248342   4.309   1.432   5.144  0.6309  3.0688  0.7956
  151MOL    H4348343   4.356   1.495   5.291 -3.2769  3.7889 -0.5617
  151MOL    H4448344   4.163   1.465   5.491 -0.5334 -2.7479  0.1990
  151MOL    H4548345   3.928   1.519   5.531 -1.2902  4.2480 -1.5036
  151MOL    H4648346   3.666   1.478   5.272 -0.7681  1.3587  0.4940
  151MOL    H4748347   3.690   1.487   5.441 -2.8383 -1.0667 -2.1538
  151MOL    H4848348   3.854   1.493   5.106 -2.5058  0.5217  2.2603
  151MOL    H4948349   4.090   1.448   5.066  1.8591  0.0168  1.0719
  151MOL    C5048350   3.695   1.686   5.342 -0.1080 -0.6418  0.0314
  151MOL    C5148351   3.544   1.710   5.356 -0.5945 -0.0669  0.4216
  151MOL    C5248352   3.462   1.694   5.246 -0.1532 -0.5473  0.5596
  151MOL    C5348353   3.323   1.720   5.253  0.5275 -0.3159  0.1147
  151MOL    C5448354   3.260   1.756   5.376 -0.3433 -0.0297 -0.0616
  151MOL    C5548355   3.116   1.787   5.381  0.4140  0.8164 -0.6243
  151MOL    C5648356   3.352   1.769   5.487 -0.5058 -0.7763  0.6930
  151MOL    C5748357   3.492   1.752   5.479 -0.2053 -0.1431  0.6412
  151MOL    H5848358   3.730   1.718   5.244  0.2269 -0.0303  0.3504
  151MOL    H5948359   3.759   1.732   5.417  0.2805 -0.5573 -0.3547
  151MOL    H6048360   3.512   1.669   5.154  1.1352  1.2811  0.7351
  151MOL    H6148361   3.264   1.694   5.166 -2.0859 -0.1222  1.7789
  151MOL    H6248362   3.071   1.751   5.289  0.4313  0.8820 -0.6586
  151MOL    H6348363   3.069   1.737   5.466 -0.9743  1.0417 -1.2462
  151MOL    H6448364   3.313   1.813   5.578  1.2602 -0.7706  1.4501
  151MOL    H6548365   3.561   1.762   5.562 -2.3923  0.2237  2.4674
  151MOL    C6648366   3.081   1.940   5.405 -0.4441 -0.2275 -0.3322
  151MOL    C6748367   2.936   1.978   5.433  0.3832 -0.0997 -0.8366
  151MOL    C6848368   2.884   1.972   5.567  0.2859  0.3137 -0.8155
  151MOL    C6948369   2.751   2.009   5.583 -0.8521  1.3450 -0.6028
  151MOL    C7048370   2.663   2.051   5.478 -0.3065  0.0578 -0.0569
  151MOL    C7148371   2.514   2.079   5.495 -0.2030  0.1813 -0.4473
  151MOL    C7248372   2.726   2.064   5.351 -0.6926  0.1327  0.1497
  151MOL    C7348373   2.852   2.017   5.329  0.1656 -0.3493 -0.0099
  151MOL    H7448374   3.118   1.989   5.315  0.0259  0.2137  0.1008
  151MOL    H7548375   3.151   1.964   5.485 -0.2610 -1.1415 -0.2099
  151MOL    H7648376   2.939   1.947   5.656 -0.3199 -1.9832 -1.0651
  151MOL    H7748377   2.722   1.993   5.686  0.9094  0.8921 -0.1586
  151MOL    H7848378   2.493   1.994   5.560  1.4490 -0.2047 -0.3953
  151MOL    H7948379   2.471   2.071   5.395 -2.7471  2.5909  0.3604
  151MOL    H8048380   2.659   2.090   5.270 -0.3765 -3.2919 -1.2913
  151MOL    H8148381   2.894   2.022   5.230  0.0619  0.0445 -0.0344
  151MOL    C8248382   2.486   2.217   5.555  0.5018 -0.1733  1.2487
  151MOL    C8348383   2.343   2.235   5.579  0.0484 -0.5003  1.2359
  151MOL    C8448384   2.255   2.303   5.496 -0.5187 -0.3718  0.1163
  151MOL    C8548385   2.115   2.321   5.526 -0.9727 -0.0783 -0.0234
  151MOL    C8648386   2.063   2.272   5.648  0.0248 -0.5743  0.9861
  151MOL    C8748387   1.916   2.288   5.683  0.3487 -0.0660  0.0107
  151MOL    C8848388   2.154   2.202   5.738  0.1711 -0.1068 -0.3967
  151MOL    C8948389   2.290   2.187   5.696  0.2736  0.5259  0.2764
  151MOL    H9048390   2.527   2.290   5.485 -1.8062  0.3829  0.4527
  151MOL    H9148391   2.542   2.222   5.649  0.8822  2.2440  0.9279
  151MOL    H9248392   2.291   2.334   5.399  0.8672  1.7826  1.2749
  151MOL    H9348393   2.067   2.367   5.441 -0.6730 -2.0954 -1.3143
  151MOL    H9448394   1.917   2.325   5.785 -0.1512 -1.8262  0.6856
  151MOL    H9548395   1.864   2.192   5.681 -1.2820  0.7362  1.8372
  151MOL    H9648396   2.123   2.150   5.827  0.1742 -0.0634 -0.3701
  151MOL    H9748397   2.352   2.134   5.767  0.2598 -0.2730 -0.2980
  151MOL    C9848398   1.830   2.382   5.598  0.0784 -0.1574  0.1383
  151MOL    C9948399   1.688   2.376   5.651  0.3513  0.4824 -1.1350
  151MOL   C10048400   1.652   2.433   5.775  0.4220  0.1419 -0.1792
  151MOL   C10148401   1.523   2.425   5.825  0.3518 -0.6947  0.4439
  151MOL   C10248402   1.416   2.371   5.746  0.1296 -0.1720 -0.7487
  151MOL   C10348403   1.278   2.373   5.786  0.1633 -0.3401 -0.0335
  151MOL   C10448404   1.453   2.322   5.624 -0.0982  0.1589  0.4653
  151MOL   C10548405   1.585   2.314   5.575  0.1278  0.0737  0.1466
  151MOL   H10648406   1.838   2.366   5.490  0.7719  2.7064 -0.2747
  151MOL   H10748407   1.878   2.476   5.623 -1.5638  1.0811 -1.2444
  151MOL   H10848408   1.725   2.484   5.836  0.1152 -0.9575  1.1404
  151MOL   H10948409   1.503   2.459   5.925 -1.2771 -1.3444  0.3613
  151MOL   H11048410   1.225   2.285   5.749 -0.1546  0.1072 -0.6694
  151MOL   H11148411   1.265   2.366   5.894  1.6392  1.3743  0.2687
  151MOL   H11248412   1.378   2.280   5.559 -2.3986  1.1733  2.4114
  151MOL   H11348413   1.611   2.277   5.476  0.3341  1.6239 -0.3857
  151MOL   C11448414   1.205   2.494   5.733 -0.2946  0.0285 -0.1022
  151MOL   C11548415   1.064   2.513   5.782 -0.1032  0.0330 -0.3748
  151MOL   C11648416   1.038   2.559   5.913  0.0210 -0.6873 -0.1954
  151MOL   C11748417   0.909   2.580   5.963 -0.0183 -0.4656 -0.3436
  151MOL   C11848418   0.797   2.554   5.872  0.4821 -0.8007  0.1313
  151MOL   C11948419   0.649   2.568   5.916  0.1622 -0.0114 -0.8147
  151MOL   C12048420   0.826   2.518   5.739 -0.0522  0.0412 -1.5336
  151MOL   C12148421   0.958   2.494   5.693  0.0559 -0.4275 -0.7760
  151MOL   H12248422   1.196   2.490   5.624  1.1328  0.2047 -0.2388
  151MOL   H12348423   1.257   2.589   5.746 -1.2042  0.5648 -0.3220
  151MOL   H12448424   1.119   2.586   5.979  0.7613  0.6141 -1.6183
  151MOL   H12548425   0.896   2.600   6.068  0.6444 -0.1819 -0.3132
  151MOL   H12648426   0.576   2.498   5.874 -0.7403  0.2646  0.2771
  151MOL   H12748427   0.640   2.548   6.023 -1.1222 -3.0402 -1.4329
  151MOL   H12848428   0.748   2.499   5.667 -2.2542  1.3466  0.3969
  151MOL   H12948429   0.979   2.465   5.592  0.0955 -1.6117 -0.4339
  151MOL   C13048430   0.595   2.717   5.881  0.8401 -0.0707 -0.0891
  151MOL   C13148431   0.450   2.733   5.922  0.0213 -0.4391  0.4612
  151MOL   C13248432   0.348   2.701   5.837 -0.2258  0.0320  0.4105
  151MOL   C13348433   0.213   2.720   5.871 -0.0151  0.3366 -0.1894
  151MOL   C13448434   0.187   2.765   6.003  0.4972  0.2908 -0.0323
  151MOL   C13548435   0.044   2.772   6.045 -0.3001  0.2033 -0.4408
  151MOL   C13648436   0.291   2.799   6.091 -1.7457  0.6754 -0.5028
  151MOL   C13748437   0.422   2.783   6.051  0.3117 -0.9523  0.3496
  151MOL   H13848438   0.616   2.743   5.777  0.3019  0.1131 -0.1537
  151MOL   H13948439   0.657   2.789   5.934 -0.5762  1.8209 -0.9401
  151MOL   H14048440   0.363   2.664   5.737 -2.6066 -3.4637  1.2534
  151MOL   H14148441   0.143   2.686   5.796 -0.5424 -0.6310  0.7283
  151MOL   H14248442  -0.024   2.708   5.989 -0.3850 -1.0031  1.0100
  151MOL   H14348443   0.036   2.763   6.154 -0.5056  1.8882 -0.3121
  151MOL   H14448444   0.260   2.843   6.185 -3.4439  0.8050 -1.1160
  151MOL   H14548445   0.501   2.815   6.117 -1.5088  2.9841  0.7430
  151MOL   C14648446   0.002   2.916   6.024 -0.4837  0.0261 -0.0193
  151MOL   C14748447  -0.141   2.932   6.061  0.3013  0.2483  0.0589
  151MOL   C14848448  -0.242   2.895   5.972 -0.5001 -0.5074  1.1052
  151MOL   C14948449  -0.377   2.889   6.021  0.1558 -0.1018  0.3040
  151MOL   C15048450  -0.415   2.941   6.145  0.8615 -0.4695 -0.1822
  151MOL   C15148451  -0.559   2.935   6.190  0.2191 -0.3252 -0.2440
  151MOL   C15248452  -0.315   2.990   6.229 -0.1043  0.1505 -0.0460
  151MOL   C15348453  -0.179   2.990   6.185 -0.3333  0.1764 -0.5210
  151MOL   H15448454   0.021   2.952   5.922  1.8470 -1.3112 -0.1033
  151MOL   H15548455   0.055   2.981   6.094 -0.2872 -0.1540 -0.0005
  151MOL   H15648456  -0.209   2.877   5.870  1.3027 -1.9031  1.9181
  151MOL   H15748457  -0.462   2.872   5.957 -0.7894  4.0634  0.3251
  151MOL   H15848458  -0.614   2.874   6.118  0.4598 -0.0854 -0.6283
  151MOL   H15948459  -0.570   2.881   6.284 -0.6241 -1.4917 -0.9935
  151MOL   H16048460  -0.340   3.031   6.325 -1.4464 -1.4166  0.3011
  151MOL   H16148461  -0.109   3.026   6.258  1.2186 -1.9905 -0.9031
  151MOL   C16248462  -0.630   3.073   6.209  0.3637 -0.3559 -0.4265
  151MOL   C16348463  -0.780   3.067   6.245  0.1898 -0.2383 -0.1886
  151MOL   C16448464  -0.825   3.117   6.370 -0.5759  0.0133  0.9084
  151MOL   C16548465  -0.956   3.140   6.397  0.0463 -0.6489  0.1652
  151MOL   C16648466  -1.054   3.111   6.299 -0.0842 -0.7315  0.0148
  151MOL   C16748467  -1.201   3.120   6.342  0.5022  0.2686 -0.4441
  151MOL   C16848468  -1.013   3.064   6.169 -0.1266 -0.0287 -0.7979
  151MOL   C16948469  -0.878   3.038   6.147 -0.2382 -0.3641  0.6363
  151MOL   H17048470  -0.618   3.129   6.116  0.8324 -0.3281 -0.3506
  151MOL   H17148471  -0.569   3.133   6.276 -0.4190  0.1083 -0.1185
  151MOL   H17248472  -0.749   3.146   6.441  1.1730  0.2178 -0.9786
  151MOL   H17348473  -0.982   3.174   6.497  0.6597  0.3826 -0.0192
  151MOL   H17448474  -1.253   3.027   6.322 -1.2092  0.8367  1.2434
  151MOL   H17548475  -1.201   3.129   6.450 -1.9455 -1.0650 -0.2837
  151MOL   H17648476  -1.090   3.034   6.098 -1.1294 -1.5291  0.8761
  151MOL   H17748477  -0.848   3.003   6.049 -1.1202 -0.5500  0.4257
  151MOL   C17848478  -1.281   3.234   6.280  0.2254 -0.1193  0.1281
  151MOL   C17948479  -1.427   3.232   6.318  0.0932 -0.0966  0.3204
  151MOL   C18048480  -1.530   3.216   6.213 -0.6403 -0.3127 -0.3574
  151MOL   C18148481  -1.668   3.225   6.244 -0.2651  0.3406  0.9929
  151MOL   C18248482  -1.705   3.253   6.379 -0.1887 -0.4313  0.8643
  151MOL   C18348483  -1.850   3.261   6.419 -0.3355 -0.0565 -0.0742
  151MOL   C18448484  -1.607   3.262   6.481 -0.5684 -0.0537 -0.2398
  151MOL   C18548485  -1.469   3.248   6.451  0.6681 -0.0882  0.3317
  151MOL   H18648486  -1.272   3.230   6.171 -0.6096  2.2406 -0.0654
  151MOL   H18748487  -1.242   3.329   6.315  1.3450 -0.8828  0.9661
  151MOL   H18848488  -1.508   3.194   6.109 -1.5668  3.0640 -1.3431
  151MOL   H18948489  -1.751   3.203   6.179  0.0355  0.2585  0.6293
  151MOL   H19048490  -1.897   3.290   6.325 -1.3476 -1.5705 -0.0583
  151MOL   H19148491  -1.893   3.175   6.471 -1.3727  0.2733 -0.3718
  151MOL   H19248492  -1.627   3.272   6.586  0.4305 -2.2264  0.1912
  151MOL   H19348493  -1.393   3.255   6.527  1.9188  0.9916 -0.9854
  151MOL   C19448494  -1.888   3.389   6.498 -0.5310 -0.5729 -0.8318
  151MOL   C19548495  -2.035   3.407   6.546 -0.1517  0.0085 -0.0007
  151MOL   C19648496  -2.059   3.479   6.669 -0.1809  0.5961  0.5892
  151MOL   C19748497  -2.191   3.510   6.713  0.3356  0.8630  0.7802
  151MOL   C19848498  -2.296   3.450   6.634  0.2178  0.6850  0.1829
  151MOL   C19948499  -2.442   3.478   6.677 -0.5331  0.2092 -0.3640
  151MOL   C20048500  -2.271   3.386   6.517 -0.3665 -0.3153  0.1655
  151MOL   C20148501  -2.145   3.351   6.478 -0.3612 -0.0812  0.4562
  151MOL   H20248502  -1.866   3.478   6.438 -0.0235 -1.3675 -1.8329
  151MOL   H20348503  -1.820   3.404   6.582  1.0645 -1.4300 -1.9557
  151MOL   H20448504  -1.983   3.518   6.736 -1.6535  2.3602  1.2702
  151MOL   H20548505  -2.195   3.571   6.801  1.0698  1.3011  0.5168
  151MOL   H20648506  -2.467   3.561   6.611  0.7154 -0.0386 -1.1792
  151MOL   H20748507  -2.498   3.391   6.641  1.8328 -0.9466 -1.4093
  151MOL   H20848508  -2.350   3.343   6.457  2.1341 -0.6675 -2.9940
  151MOL   H20948509  -2.121   3.296   6.388  0.4981 -0.9361  1.1897
  151MOL   C21048510  -2.465   3.503   6.825  0.2446 -0.5629  0.0634
  151MOL   C21148511  -2.609   3.550   6.847  0.3979 -0.7113 -0.1305
  151MOL   C21248512  -2.724   3.462   6.870 -0.0259  0.1476 -0.3626
  151MOL   C21348513  -2.856   3.509   6.874 -0.9398  0.3689  0.1414
  151MOL   C21448514  -2.874   3.651   6.868  0.0362 -0.8698 -0.0711
  151MOL   C21548515  -3.011   3.707   6.896 -0.1555 -0.6058 -0.0012
  151MOL   C21648516  -2.766   3.736   6.842  0.1174  0.1227 -0.3472
  151MOL   C21748517  -2.638   3.686   6.829  0.1288  0.1461  0.1888
  151MOL   H21848518  -2.400   3.586   6.852 -1.1938  0.4672  0.4577
  151MOL   H21948519  -2.448   3.419   6.893 -0.4075  1.0037  2.2355
  151MOL   H22048520  -2.703   3.356   6.878  0.4277  0.3263  0.9347
  151MOL   H22148521  -2.937   3.445   6.905  0.0680  0.0762  2.2124
  151MOL   H22248522  -3.031   3.797   6.838  0.3377  0.9459  2.1387
  151MOL   H22348523  -3.079   3.635   6.851 -0.7304  0.2775 -0.5506
  151MOL   H22448524  -2.788   3.840   6.823  1.1929  0.6701  1.4187
  151MOL   H22548525  -2.551   3.747   6.807  0.8878 -0.8817  0.2821
  151MOL   C22648526  -3.047   3.723   7.047 -0.7615 -0.2560  0.5197
  151MOL   C22748527  -3.188   3.765   7.068  0.1709  0.1571  0.4065
  151MOL   C22848528  -3.248   3.866   6.999 -0.1345  0.5501  0.5852
  151MOL   C22948529  -3.381   3.904   7.028  0.3123 -0.0081 -1.3848
  151MOL   C23048530  -3.461   3.830   7.123  0.6501  0.6794  0.5066
  151MOL   C23148531  -3.602   3.867   7.162  1.0411  0.0856 -0.1905
  151MOL   C23248532  -3.399   3.723   7.184  0.0704 -0.0491 -0.8296
  151MOL   C23348533  -3.260   3.685   7.157  0.5614 -0.2883 -0.6214
  151MOL   H23448534  -2.982   3.789   7.105 -1.7175  1.9888 -0.9267
  151MOL   H23548535  -3.037   3.623   7.089  1.1614 -0.5762 -0.6289
  151MOL   H23648536  -3.187   3.923   6.930  1.5337  0.7320  2.1683
  151MOL   H23748537  -3.419   3.988   6.972 -0.4825 -0.2664 -1.2301
  151MOL   H23848538  -3.667   3.783   7.135  0.6860  0.1361  0.4803
  151MOL   H23948539  -3.604   3.870   7.271  1.2726 -0.5159 -0.1650
  151MOL   H24048540  -3.442   3.669   7.266  0.7324  1.2791  0.4170
  151MOL   H24148541  -3.218   3.596   7.202  0.0594  0.1143  0.6560
  151MOL   C24248542  -3.652   3.997   7.106 -0.1528 -0.1011 -0.1833
  151MOL   C24348543  -3.790   4.030   7.162  0.3844  0.3696  0.9016
  151MOL   C24448544  -3.904   3.979   7.096  0.9037 -0.3742  0.3238
  151MOL   C24548545  -4.035   4.023   7.142 -0.4716 -0.5723  0.1446
  151MOL   C24648546  -4.047   4.123   7.236  0.2661  0.1473  0.0895
  151MOL   C24748547  -4.181   4.185   7.265  0.1282 -0.0446  0.0387
  151MOL   C24848548  -3.929   4.169   7.305  0.1927 -0.1060 -0.1866
  151MOL   C24948549  -3.802   4.120   7.264 -0.2648  0.0045 -0.0015
  151MOL   H25048550  -3.592   4.081   7.142 -1.6522 -0.3320  3.0505
  151MOL   H25148551  -3.647   4.000   6.997 -0.8706 -1.7437 -0.2781
  151MOL   H25248552  -3.885   3.928   7.002  0.1044  1.3445 -0.7853
  151MOL   H25348553  -4.123   3.996   7.085 -0.5788  1.3746 -0.6555
  151MOL   H25448554  -4.167   4.281   7.315  0.9986  0.0347 -0.3544
  151MOL   H25548555  -4.242   4.194   7.175  0.6066 -0.2110 -0.3040
  151MOL   H25648556  -3.945   4.245   7.379  2.1226  0.5281 -0.4064
  151MOL   H25748557  -3.712   4.162   7.306  0.3617 -0.9834 -0.3238
  151MOL   C25848558  -4.255   4.104   7.371 -0.1933  0.2623 -0.4634
  151MOL   C25948559  -4.379   4.169   7.419  0.2657  0.0260 -0.5414
  151MOL   C26048560  -4.508   4.117   7.394  0.2268 -0.3707 -0.6762
  151MOL   C26148561  -4.625   4.183   7.444 -0.5836 -0.0603  0.5985
  151MOL   C26248562  -4.608   4.317   7.489  1.1107  0.2268 -0.1797
  151MOL   C26348563  -4.716   4.412   7.532 -0.0698 -0.6337  1.2379
  151MOL   C26448564  -4.480   4.360   7.517  0.3601 -0.4889 -0.5736
  151MOL   C26548565  -4.366   4.287   7.491  0.0359  0.6346  0.2777
  151MOL   H26648566  -4.195   4.091   7.462 -0.0717  0.3518 -0.5314
  151MOL   H26748567  -4.284   4.005   7.336 -1.4283  0.6083 -0.4149
  151MOL   H26848568  -4.513   4.022   7.344 -0.3923  0.3880 -2.0764
  151MOL   H26948569  -4.721   4.134   7.442 -0.8294  0.4400 -0.7000
  151MOL   H27048570  -4.698   4.518   7.514  0.5645 -0.5400  2.3906
  151MOL   H27148571  -4.810   4.379   7.488 -0.1747  0.1900  0.8415
  151MOL   H27248572  -4.457   4.454   7.565  0.2724 -1.5900  1.6966
  151MOL   H27348573  -4.266   4.317   7.519 -0.0220  0.5359  0.5898
  151MOL   C27448574  -4.740   4.403   7.684  0.3308  0.1876  0.5371
  151MOL   C27548575  -4.850   4.499   7.723 -0.0516 -0.0965 -0.4253
  151MOL   C27648576  -4.827   4.637   7.743  0.9031  0.1861 -0.3238
  151MOL   C27748577  -4.936   4.722   7.767  0.5765 -0.3844  0.5340
  151MOL   C27848578  -5.069   4.675   7.773 -0.8389  0.6872  0.1108
  151MOL   C27948579  -5.183   4.760   7.797 -0.8008 -0.3350  0.1676
  151MOL   C28048580  -5.092   4.537   7.765  0.8505  0.5651  0.3041
  151MOL   C28148581  -4.983   4.451   7.730 -0.5371  0.8098 -0.0014
  151MOL   H28248582  -4.763   4.298   7.702 -0.2422  0.5151  1.7623
  151MOL   H28348583  -4.647   4.426   7.737  0.3989 -0.0579  0.5278
  151MOL   H28448584  -4.732   4.689   7.741 -0.0483  1.9577 -0.9894
  151MOL   H28548585  -4.912   4.826   7.783  2.6369 -0.4463 -1.8806
  151MOL   H28648586  -5.144   4.861   7.785 -0.3413 -0.7250 -1.6593
  151MOL   H28748587  -5.259   4.747   7.720  1.0200  1.7977 -2.0345
  151MOL   H28848588  -5.193   4.501   7.780  1.0719 -0.2218 -0.0644
  151MOL   H28948589  -5.017   4.350   7.713  1.0331 -0.2490  2.7001
  151MOL   C29048590  -5.248   4.729   7.935 -0.3586 -0.1400  0.6696
  151MOL   C29148591  -5.374   4.802   7.959  0.1239 -0.2996 -0.0271
  151MOL   C29248592  -5.362   4.935   8.008 -0.1699 -0.3376  0.9020
  151MOL   C29348593  -5.481   5.004   8.030 -0.6274  0.0353 -0.6364
  151MOL   C29448594  -5.613   4.943   8.011 -0.8637  0.6535  0.2713
  151MOL   C29548595  -5.733   5.028   8.039 -0.4718  0.0920 -0.6287
  151MOL   C29648596  -5.619   4.812   7.962 -0.2061 -0.3445  0.5679
  151MOL   C29748597  -5.499   4.736   7.942 -0.6596 -0.1940 -0.5482
  151MOL   H29848598  -5.168   4.759   8.003 -0.8605 -1.4040  1.8369
  151MOL   H29948599  -5.267   4.622   7.942 -0.5784  0.0309  3.1495
  151MOL   H30048600  -5.268   4.986   8.019 -0.5600  0.2387  1.5706
  151MOL   H30148601  -5.467   5.104   8.069 -0.2433  0.7983 -2.6895
  151MOL   H30248602  -5.702   5.131   8.060  4.0932 -1.1848 -0.4615
  151MOL   H30348603  -5.797   5.023   7.951 -0.1549 -1.5525 -0.7762
  151MOL   H30448604  -5.714   4.766   7.942 -0.1873 -0.1446 -0.0013
  151MOL   H30548605  -5.504   4.637   7.900 -1.0183 -0.4518  0.1045
  151MOL   C30648606  -5.810   4.986   8.174 -0.1969  0.0006 -0.0642
  151MOL   C30748607  -5.932   5.071   8.186 -0.5035 -0.8396 -0.3574
  151MOL   C30848608  -5.919   5.205   8.223 -0.4336 -0.1117 -0.2452
  151MOL   C30948609  -6.037   5.282   8.251  0.1327  0.3637  0.1728
  151MOL   C31048610  -6.162   5.225   8.235  0.5915 -0.0528 -0.2222
  151MOL   C31148611  -6.281   5.315   8.271 -0.1577 -0.5633 -0.0077
  151MOL   C31248612  -6.178   5.095   8.187  0.0737 -1.1346 -0.9327
  151MOL   C31348613  -6.061   5.023   8.157 -0.2300 -0.6218 -0.1221
  151MOL   H31448614  -5.744   5.001   8.260  0.8815 -0.0152 -0.8808
  151MOL   H31548615  -5.830   4.879   8.171  0.3525 -0.0842 -1.1161
  151MOL   H31648616  -5.824   5.255   8.239 -0.7265  0.1770  0.5880
  151MOL   H31748617  -6.022   5.381   8.292 -1.1507  0.7968 -0.3906
  151MOL   H31848618  -6.349   5.320   8.186  0.5629 -2.4361 -0.7180
  151MOL   H31948619  -6.331   5.268   8.356  0.5653 -0.8880  0.2417
  151MOL   H32048620  -6.275   5.051   8.166 -0.2004 -0.1998 -1.6615
  151MOL   H32148621  -6.070   4.920   8.126  0.6296 -0.6127 -0.4145
  151MOL   H32248622  -6.235   5.412   8.289 -0.8712 -0.6788  2.6679
  152MOL     C148623   6.229   1.893   1.842 -0.4904  0.7952 -0.4483
  152MOL     C248624   6.332   1.795   1.786 -0.1409  0.1753  0.3409
  152MOL     C348625   6.361   1.791   1.647  0.2108  0.6422  0.4641
  152MOL     C448626   6.472   1.708   1.606 -0.4898 -0.0763  0.0361
  152MOL     C548627   6.551   1.644   1.699  0.1148  0.9541 -0.1979
  152MOL     C648628   6.670   1.556   1.658  0.1697  0.2829 -0.2446
  152MOL     C748629   6.508   1.637   1.831 -0.7680 -0.2127 -0.1706
  152MOL     C848630   6.403   1.715   1.874 -0.6833 -0.3796 -0.3701
  152MOL     H948631   6.222   1.978   1.775  1.5287  1.1312 -0.2561
  152MOL    H1048632   6.131   1.846   1.846  0.6036 -1.8254 -2.4226
  152MOL    H1148633   6.296   1.839   1.576 -0.5752 -1.6931 -0.4384
  152MOL    H1248634   6.496   1.690   1.503 -0.2711  3.2965 -0.5644
  152MOL    H1348635   6.683   1.484   1.739 -1.2801  2.3291  1.8634
  152MOL    H1448636   6.659   1.494   1.569  3.7445  0.6310 -1.0121
  152MOL    H1548637   6.562   1.581   1.906  2.0728  0.1791 -1.8639
  152MOL    H1648638   6.383   1.731   1.979  1.3286 -1.9760  0.2858
  152MOL    H1748639   6.249   1.934   1.941  0.7812 -0.3625 -0.2032
  152MOL    C1848640   6.810   1.631   1.656 -0.6093  0.0755 -0.3271
  152MOL    C1948641   6.920   1.535   1.609  0.4543 -0.1596 -0.0329
  152MOL    C2048642   7.013   1.593   1.518  0.4603  0.0339  0.2770
  152MOL    C2148643   7.122   1.520   1.476 -0.4385 -0.0618  0.3038
  152MOL    C2248644   7.148   1.393   1.526  0.7693  0.2594 -0.2926
  152MOL    C2348645   7.277   1.326   1.461 -0.8061  0.0712 -1.1845
  152MOL    C2448646   7.052   1.327   1.608 -0.1554 -0.4415  0.7823
  152MOL    C2548647   6.940   1.399   1.652 -0.1635  0.5962  0.6491
  152MOL    H2648648   6.796   1.721   1.597  0.9388  1.9090  1.9907
  152MOL    H2748649   6.842   1.675   1.751  0.0368 -1.6888  0.3020
  152MOL    H2848650   6.997   1.695   1.488  0.1505  0.3424  1.4847
  152MOL    H2948651   7.186   1.565   1.402 -1.4294 -0.0734 -0.5627
  152MOL    H3048652   7.313   1.256   1.537 -0.1010 -1.7266 -3.1394
  152MOL    H3148653   7.353   1.402   1.444 -0.2706 -0.5344 -1.5071
  152MOL    H3248654   7.057   1.226   1.647 -1.5681 -1.0301 -0.4896
  152MOL    H3348655   6.866   1.349   1.713 -0.9429 -0.3887 -1.0425
  152MOL    C3448656   7.249   1.267   1.327 -0.1002  0.1553 -0.4454
  152MOL    C3548657   7.376   1.216   1.271 -0.3406  0.2538 -0.4019
  152MOL    C3648658   7.477   1.304   1.219  0.3711 -0.2609  0.2430
  152MOL    C3748659   7.597   1.246   1.167  0.5228  0.4824 -0.4654
  152MOL    C3848660   7.623   1.109   1.189 -0.4084  0.9877  0.3344
  152MOL    C3948661   7.751   1.048   1.146 -0.6809  0.0760 -0.5069
  152MOL    C4048662   7.521   1.023   1.244  0.1420 -0.8890  0.6102
  152MOL    C4148663   7.396   1.075   1.276 -0.4412  0.6229 -0.7887
  152MOL    H4248664   7.209   1.346   1.262  1.9092  0.5721 -1.2333
  152MOL    H4348665   7.177   1.186   1.324 -0.6550  0.5966  0.9098
  152MOL    H4448666   7.455   1.409   1.223  1.6115 -0.0196  0.9365
  152MOL    H4548667   7.668   1.313   1.121  0.4969 -0.0843 -1.3356
  152MOL    H4648668   7.736   0.957   1.089  0.2552  0.5264 -1.4733
  152MOL    H4748669   7.787   1.114   1.067  0.2932 -0.2404 -0.3357
  152MOL    H4848670   7.532   0.917   1.260 -2.3548 -0.7616  3.5399
  152MOL    H4948671   7.315   1.017   1.316  2.1640 -1.9861  0.9086
  152MOL    C5048672   7.859   1.019   1.256 -0.7511 -0.0625 -0.2183
  152MOL    C5148673   8.004   1.013   1.210  0.2277  0.4010  0.2052
  152MOL    C5248674   8.039   0.926   1.106  0.1321  0.5210  0.3358
  152MOL    C5348675   8.167   0.938   1.045 -0.2939  0.4125 -0.4594
  152MOL    C5448676   8.264   1.029   1.101 -0.3725  0.7718 -0.2857
  152MOL    C5548677   8.399   1.027   1.044  0.1273  0.7974 -0.1768
  152MOL    C5648678   8.235   1.107   1.212  0.1488  0.3592 -1.0081
  152MOL    C5748679   8.105   1.090   1.276 -0.0772 -0.2534 -0.5622
  152MOL    H5848680   7.821   0.930   1.307  1.4469 -1.4442 -0.9075
  152MOL    H5948681   7.859   1.099   1.330  1.1544 -1.4623  1.3614
  152MOL    H6048682   7.960   0.863   1.067 -1.1709  1.5177  1.3170
  152MOL    H6148683   8.189   0.870   0.963 -1.8528  0.1250 -0.6447
  152MOL    H6248684   8.466   0.975   1.113 -0.7758 -0.3922 -0.1902
  152MOL    H6348685   8.397   0.968   0.952 -1.4919 -1.9522  1.5633
  152MOL    H6448686   8.297   1.185   1.254 -1.5986  1.5756 -0.5848
  152MOL    H6548687   8.078   1.155   1.358 -1.2331 -0.1121 -1.0595
  152MOL    C6648688   8.446   1.169   0.996 -0.2091 -0.1554  0.1378
  152MOL    C6748689   8.585   1.184   0.929  0.0848 -0.3526 -0.2359
  152MOL    C6848690   8.630   1.075   0.847  0.1233 -0.3194  0.5544
  152MOL    C6948691   8.756   1.075   0.781  0.1564 -0.4881 -0.2247
  152MOL    C7048692   8.839   1.188   0.792  0.1285  0.4282  0.4164
  152MOL    C7148693   8.966   1.195   0.719 -0.6290  0.9813 -0.1072
  152MOL    C7248694   8.797   1.298   0.872  0.0350  1.1206 -0.0362
  152MOL    C7348695   8.674   1.297   0.944 -0.1252 -1.4557  0.5850
  152MOL    H7448696   8.439   1.242   1.076 -0.2591  2.5421 -2.2349
  152MOL    H7548697   8.397   1.199   0.903  1.4011  3.7454  0.4296
  152MOL    H7648698   8.564   0.992   0.825 -0.5732 -0.0024  1.4296
  152MOL    H7748699   8.795   0.991   0.725 -0.0520  1.0054 -2.6686
  152MOL    H7848700   8.986   1.295   0.680  0.9320  0.8436  0.3220
  152MOL    H7948701   8.973   1.125   0.636 -1.1142  0.4121  0.3247
  152MOL    H8048702   8.870   1.377   0.887  0.7880  0.5795 -0.7622
  152MOL    H8148703   8.654   1.389   0.997 -2.6574 -0.6994 -1.5957
  152MOL    C8248704   9.082   1.144   0.814  0.6295 -0.4811 -0.0132
  152MOL    C8348705   9.202   1.100   0.743  0.7131 -0.2184  0.0608
  152MOL    C8448706   9.226   0.964   0.711  0.2790  0.0682 -0.0477
  152MOL    C8548707   9.349   0.930   0.646  0.2663 -0.0978 -0.6178
  152MOL    C8648708   9.445   1.033   0.608 -0.6257 -0.9232 -0.3230
  152MOL    C8748709   9.581   1.000   0.545  0.4626  0.6989  0.0648
  152MOL    C8848710   9.412   1.169   0.642  0.0654  0.4118  0.6190
  152MOL    C8948711   9.292   1.200   0.713 -0.1530 -0.5342 -0.2957
  152MOL    H9048712   9.047   1.057   0.870 -0.6638  0.4436  0.6244
  152MOL    H9148713   9.096   1.228   0.881  3.5593 -0.5570 -0.4582
  152MOL    H9248714   9.162   0.886   0.749 -0.9989  1.5594  0.8876
  152MOL    H9348715   9.378   0.827   0.626 -0.9063 -0.0651 -2.5492
  152MOL    H9448716   9.620   1.086   0.490  1.7433 -0.2506 -0.5462
  152MOL    H9548717   9.553   0.933   0.463  1.1031  0.1794  0.2662
  152MOL    H9648718   9.478   1.253   0.626 -0.5833  1.1285  1.6132
  152MOL    H9748719   9.275   1.301   0.747  0.9903 -0.5417  0.3226
  152MOL    C9848720   9.679   0.957   0.654 -0.8710 -0.3639 -0.1594
  152MOL    C9948721   9.805   0.908   0.590 -0.5567 -0.4975 -0.2420
  152MOL   C10048722   9.902   1.000   0.556  0.2952 -0.0531  0.7074
  152MOL   C10148723  10.032   0.951   0.514  0.6806 -0.4891  0.4430
  152MOL   C10248724  10.060   0.819   0.507 -0.3413  0.0652  0.4703
  152MOL   C10348725  10.201   0.773   0.462  0.1020 -0.0254 -1.1906
  152MOL   C10448726   9.958   0.728   0.542 -0.3470  0.4533 -0.6523
  152MOL   C10548727   9.829   0.772   0.580 -0.1534 -0.0462  0.9062
  152MOL   H10648728   9.650   0.880   0.727  2.7972 -0.3021  1.4715
  152MOL   H10748729   9.694   1.048   0.711 -0.8914 -1.0210  0.9250
  152MOL   H10848730   9.889   1.106   0.575 -0.7363 -0.1408  0.5545
  152MOL   H10948731  10.112   1.014   0.481  1.4496 -0.5430  2.1494
  152MOL   H11048732  10.175   0.705   0.380 -0.6217  0.8207 -1.6757
  152MOL   H11148733  10.265   0.860   0.446  0.3398  0.4491  2.0697
  152MOL   H11248734   9.985   0.624   0.537  2.1648  1.0466 -0.1429
  152MOL   H11348735   9.760   0.697   0.614  0.6402 -0.3525  1.8417
  152MOL   C11448736  10.287   0.695   0.559  0.2696 -0.0860 -0.0614
  152MOL   C11548737  10.419   0.652   0.502 -0.4636 -0.6226  0.3315
  152MOL   C11648738  10.525   0.748   0.495  0.5176  0.1264 -0.2795
  152MOL   C11748739  10.657   0.717   0.459  0.3943 -0.0439 -0.8115
  152MOL   C11848740  10.678   0.583   0.424 -0.3684 -0.3290 -0.1498
  152MOL   C11948741  10.819   0.543   0.370 -0.1589 -0.7343  0.1734
  152MOL   C12048742  10.577   0.483   0.421  0.2606 -0.4488  0.1137
  152MOL   C12148743  10.450   0.523   0.461  0.0586 -0.4563 -0.6369
  152MOL   H12248744  10.235   0.606   0.593 -1.3895  0.6365 -0.6787
  152MOL   H12348745  10.303   0.757   0.647 -0.2997 -1.2192  0.8593
  152MOL   H12448746  10.508   0.850   0.528  2.5683 -0.1743  1.8326
  152MOL   H12548747  10.737   0.789   0.467 -0.9485  1.2805  0.9038
  152MOL   H12648748  10.814   0.479   0.282 -2.0100 -1.5196  0.8224
  152MOL   H12748749  10.861   0.634   0.326  0.3000 -1.5726 -1.1561
  152MOL   H12848750  10.592   0.383   0.385  2.2458  0.2082 -0.9284
  152MOL   H12948751  10.378   0.442   0.457 -0.2887 -0.0844 -1.9349
  152MOL   C13048752  10.909   0.466   0.463  0.0464  0.2162 -0.4332
  152MOL   C13148753  11.041   0.419   0.405  0.8524  0.6399  0.4737
  152MOL   C13248754  11.059   0.292   0.359  0.3131 -0.1970 -0.6325
  152MOL   C13348755  11.182   0.253   0.307  0.1854 -0.3662 -0.5001
  152MOL   C13448756  11.294   0.339   0.313  1.2173 -0.0225 -0.2142
  152MOL   C13548757  11.424   0.288   0.255  0.4941  0.4460 -0.2051
  152MOL   C13648758  11.277   0.466   0.356  0.1361 -0.0339  0.7259
  152MOL   C13748759  11.146   0.510   0.403 -0.1889 -0.8958 -0.1047
  152MOL   H13848760  10.851   0.379   0.494  0.0182  0.7286  1.0099
  152MOL   H13948761  10.931   0.523   0.553  0.8892  0.7301 -0.9581
  152MOL   H14048762  10.980   0.220   0.348  1.3137 -1.1556 -1.5855
  152MOL   H14148763  11.206   0.157   0.266 -1.9011 -0.9951 -0.3304
  152MOL   H14248764  11.413   0.216   0.175  1.5441  1.5505 -1.3777
  152MOL   H14348765  11.470   0.378   0.212  0.0425 -0.0532 -1.7435
  152MOL   H14448766  11.357   0.538   0.342  0.2519 -0.3944 -0.4810
  152MOL   H14548767  11.141   0.612   0.438  0.2042 -0.1936 -2.0179
  152MOL   C14648768  11.512   0.227   0.360  0.9108 -0.1885  0.0398
  152MOL   C14748769  11.653   0.187   0.322 -0.4009 -0.0384  0.4082
  152MOL   C14848770  11.756   0.282   0.308 -0.1966 -0.1620 -0.1639
  152MOL   C14948771  11.879   0.245   0.249 -0.3889  0.1857 -0.4247
  152MOL   C15048772  11.910   0.110   0.218 -0.0558 -0.2946  0.5187
  152MOL   C15148773  12.042   0.067   0.143  0.4292  0.0148 -1.2491
  152MOL   C15248774  11.805   0.014   0.235 -0.3703  0.1617  0.7055
  152MOL   C15348775  11.680   0.051   0.289 -0.2534 -0.0564  0.2888
  152MOL   H15448776  11.460   0.149   0.415  1.1022 -2.0493 -2.3345
  152MOL   H15548777  11.525   0.298   0.442  0.1503  0.1417 -0.1176
  152MOL   H15648778  11.748   0.388   0.326 -0.7907 -0.4984  1.6794
  152MOL   H15748779  11.946   0.325   0.223 -0.3966  0.2834 -0.1458
  152MOL   H15848780  12.044  -0.035   0.106  1.5542 -0.5841  0.4374
  152MOL   H15948781  12.073   0.128   0.058  0.7515  0.6941 -0.6548
  152MOL   H16048782  11.818  -0.091   0.213  0.0005  0.5828 -1.1768
  152MOL   H16148783  11.598  -0.019   0.299  0.0143 -0.2883  0.8444
  152MOL   C16248784  12.156   0.078   0.245 -0.1121  0.4032 -0.1911
  152MOL   C16348785  12.291   0.034   0.191 -0.3334  0.3040 -0.5775
  152MOL   C16448786  12.312  -0.099   0.150 -0.9283  0.2764  0.1126
  152MOL   C16548787  12.438  -0.144   0.093 -0.4631 -0.1088  0.3765
  152MOL   C16648788  12.547  -0.052   0.085  0.2852 -0.3839  0.3175
  152MOL   C16748789  12.690  -0.096   0.045 -0.8248 -1.2054  0.6578
  152MOL   C16848790  12.521   0.087   0.111 -0.3413 -0.1196  0.2003
  152MOL   C16948791  12.398   0.129   0.168  0.4928  0.4009 -0.3607
  152MOL   H17048792  12.139   0.018   0.335 -2.8766  0.4999 -0.6087
  152MOL   H17148793  12.170   0.179   0.281 -0.5322  0.3321  0.1715
  152MOL   H17248794  12.232  -0.168   0.173 -1.0157  0.0932 -0.7547
  152MOL   H17348795  12.436  -0.249   0.068 -0.0171  0.0262 -0.2499
  152MOL   H17448796  12.689  -0.164  -0.039 -0.0377 -1.5326  0.9127
  152MOL   H17548797  12.751  -0.011   0.014 -1.7231 -0.6795  0.3221
  152MOL   H17648798  12.602   0.157   0.092 -1.5764  1.1581 -0.4715
  152MOL   H17748799  12.390   0.235   0.188  0.1977  0.2144  0.5142
  152MOL   C17848800  12.776  -0.142   0.162 -0.5862 -0.3043 -0.1715
  152MOL   C17948801  12.912  -0.172   0.113  0.2111 -0.0866  0.3367
  152MOL   C18048802  13.000  -0.076   0.067 -0.2727 -0.3979  0.2093
  152MOL   C18148803  13.125  -0.115   0.011  0.0490 -0.0518  0.5059
  152MOL   C18248804  13.149  -0.253  -0.017  0.3161  0.3937 -0.3563
  152MOL   C18348805  13.282  -0.294  -0.065  0.1435  1.0749  0.5419
  152MOL   C18448806  13.044  -0.345   0.008  0.4304  1.0908 -0.1508
  152MOL   C18548807  12.926  -0.303   0.070  0.2956 -0.0725  0.1324
  152MOL   H18648808  12.732  -0.231   0.206  0.7078 -1.5352 -1.3063
  152MOL   H18748809  12.789  -0.066   0.240  0.0951 -0.6670  0.0768
  152MOL   H18848810  12.979   0.030   0.076 -0.5746 -0.5488  1.3819
  152MOL   H18948811  13.205  -0.046  -0.012  1.8233 -2.3796 -0.5627
  152MOL   H19048812  13.272  -0.377  -0.135 -1.5905 -2.1086  4.3692
  152MOL   H19148813  13.330  -0.212  -0.117  1.0711  1.2047  1.5754
  152MOL   H19248814  13.046  -0.451  -0.013  0.0823  1.1940 -0.7498
  152MOL   H19348815  12.843  -0.364   0.105 -1.2468  0.0304 -3.1621
  152MOL   C19448816  13.369  -0.348   0.042 -0.7953  0.1198 -0.7208
  152MOL   C19548817  13.509  -0.391  -0.007 -0.1602 -0.4181  0.3316
  152MOL   C19648818  13.525  -0.521  -0.064  0.2084  0.3144 -0.2793
  152MOL   C19748819  13.645  -0.572  -0.112 -0.4032 -0.0591 -0.0884
  152MOL   C19848820  13.760  -0.491  -0.106 -0.3548 -0.4640 -0.4852
  152MOL   C19948821  13.892  -0.541  -0.146  0.9659 -0.6017  0.0019
  152MOL   C20048822  13.752  -0.357  -0.055 -0.0883 -0.7261  0.7858
  152MOL   C20148823  13.626  -0.306  -0.016  0.4990 -0.3648 -0.7174
  152MOL   H20248824  13.331  -0.434   0.099 -0.3313  0.3279 -0.0873
  152MOL   H20348825  13.392  -0.265   0.108  0.4434 -2.4053  2.1673
  152MOL   H20448826  13.436  -0.581  -0.071  1.3410 -1.3583 -0.6986
  152MOL   H20548827  13.654  -0.672  -0.150 -0.1008 -0.1387  0.1918
  152MOL   H20648828  13.890  -0.635  -0.202 -0.5866 -1.1707  0.9835
  152MOL   H20748829  13.936  -0.465  -0.210  0.9570 -1.5347 -1.1421
  152MOL   H20848830  13.835  -0.288  -0.057  0.5689 -1.5244 -0.2827
  152MOL   H20948831  13.623  -0.201   0.009  1.8298 -0.7037  0.9038
  152MOL   C21048832  13.967  -0.579  -0.025 -0.2329  0.2660  0.2746
  152MOL   C21148833  14.110  -0.630  -0.069  0.0882 -0.2402  0.4298
  152MOL   C21248834  14.196  -0.545  -0.138 -0.3253  0.3197  0.1570
  152MOL   C21348835  14.318  -0.589  -0.188  0.1715  0.2252  0.1044
  152MOL   C21448836  14.369  -0.727  -0.165 -0.1220 -0.4621 -0.3762
  152MOL   C21548837  14.521  -0.751  -0.199 -0.2130 -0.5350  0.0174
  152MOL   C21648838  14.283  -0.815  -0.093  0.4573  0.0544 -0.0959
  152MOL   C21748839  14.159  -0.765  -0.052  0.7336  0.5651  0.5599
  152MOL   H21848840  13.908  -0.661   0.016  0.1511 -0.9177 -1.4569
  152MOL   H21948841  13.975  -0.496   0.046 -0.9441  0.6887 -0.1280
  152MOL   H22048842  14.174  -0.442  -0.162  0.0035  0.2845 -0.3076
  152MOL   H22148843  14.385  -0.512  -0.224  1.2430 -0.7340  0.0354
  152MOL   H22248844  14.550  -0.680  -0.276 -1.1685  1.0467  1.0900
  152MOL   H22348845  14.592  -0.739  -0.117 -1.5212 -0.9212  1.2179
  152MOL   H22448846  14.324  -0.909  -0.057 -1.8686 -0.4356  1.3743
  152MOL   H22548847  14.095  -0.829   0.007 -1.5186  3.6310  1.5178
  152MOL   C22648848  14.542  -0.892  -0.259 -0.0515 -0.1407 -0.9599
  152MOL   C22748849  14.682  -0.922  -0.310  0.2821 -0.3219  0.3629
  152MOL   C22848850  14.748  -1.044  -0.273 -0.2839  0.3011  0.0663
  152MOL   C22948851  14.877  -1.067  -0.322  0.2404  0.4683 -0.3174
  152MOL   C23048852  14.936  -0.974  -0.409 -0.2069  0.3412 -0.4810
  152MOL   C23148853  15.072  -1.011  -0.448 -0.5972  0.3837  0.2204
  152MOL   C23248854  14.873  -0.853  -0.443 -0.6255  0.6515  0.1391
  152MOL   C23348855  14.741  -0.828  -0.391  0.4248  1.0671 -0.0831
  152MOL   H23448856  14.481  -0.895  -0.349 -1.6133 -2.3271  0.1197
  152MOL   H23548857  14.515  -0.975  -0.193  2.8005  1.0217  1.8194
  152MOL   H23648858  14.708  -1.126  -0.216  0.7199 -0.7743 -0.7473
  152MOL   H23748859  14.923  -1.157  -0.284 -0.4090  0.2886  0.0644
  152MOL   H23848860  15.066  -1.114  -0.483  0.4711 -0.2958  1.9910
  152MOL   H23948861  15.102  -0.953  -0.535  1.2825  0.6598  1.0328
  152MOL   H24048862  14.925  -0.783  -0.506  1.0175 -0.1092  0.6451
  152MOL   H24148863  14.684  -0.746  -0.430 -3.2166 -0.9813  0.7102
  152MOL   C24248864  15.169  -1.002  -0.330 -0.2781  0.2428  1.1290
  152MOL   C24348865  15.292  -1.088  -0.342 -0.0939  0.2941 -0.3380
  152MOL   C24448866  15.332  -1.162  -0.227 -0.2587  0.1257 -1.0092
  152MOL   C24548867  15.450  -1.238  -0.238  0.3504 -0.3037 -0.4812
  152MOL   C24648868  15.524  -1.251  -0.358  0.7967 -0.3457 -0.0666
  152MOL   C24748869  15.654  -1.329  -0.352  0.3657  1.0184 -0.5273
  152MOL   C24848870  15.478  -1.188  -0.469  0.0340  0.8863 -0.5923
  152MOL   C24948871  15.361  -1.108  -0.466  0.0655 -0.0166  0.5792
  152MOL   H25048872  15.209  -0.901  -0.326 -0.0209  0.3040 -2.1156
  152MOL   H25148873  15.118  -1.018  -0.235 -0.3595 -0.4200  0.9759
  152MOL   H25248874  15.287  -1.160  -0.130  0.6389 -0.0604 -0.5807
  152MOL   H25348875  15.483  -1.292  -0.150  0.9430  0.5858 -0.1561
  152MOL   H25448876  15.707  -1.304  -0.445  1.6244 -0.2255 -0.1498
  152MOL   H25548877  15.713  -1.305  -0.264  2.9543 -0.9288 -1.6543
  152MOL   H25648878  15.525  -1.215  -0.563  1.2121  0.7227  0.0333
  152MOL   H25748879  15.323  -1.078  -0.563  3.2616  0.9357 -0.4603
  152MOL   C25848880  15.622  -1.486  -0.355 -0.8226  0.1123 -0.6971
  152MOL   C25948881  15.516  -1.538  -0.456  0.4122  0.3936 -0.0824
  152MOL   C26048882  15.527  -1.532  -0.595  0.3807  1.0093  0.0610
  152MOL   C26148883  15.428  -1.580  -0.683 -0.1644 -0.5660  0.5718
  152MOL   C26248884  15.313  -1.633  -0.628  0.8112  0.2836  0.2741
  152MOL   C26348885  15.209  -1.682  -0.722 -0.4657  0.3185 -0.1528
  152MOL   C26448886  15.297  -1.647  -0.488 -0.2226  0.2611 -0.3027
  152MOL   C26548887  15.401  -1.609  -0.402  0.2321  0.3912  0.1631
  152MOL   H26648888  15.585  -1.509  -0.255  1.3459 -0.0176  0.0846
  152MOL   H26748889  15.712  -1.545  -0.366 -1.8472 -1.3379 -1.3993
  152MOL   H26848890  15.615  -1.483  -0.635 -0.2295  2.8947  0.9620
  152MOL   H26948891  15.440  -1.568  -0.789 -1.0904  0.2812  0.5539
  152MOL   H27048892  15.263  -1.729  -0.804 -0.3347 -3.0356  1.7510
  152MOL   H27148893  15.148  -1.759  -0.677 -0.1581 -0.1890 -0.5947
  152MOL   H27248894  15.208  -1.695  -0.451  0.3018  0.9194  1.8679
  152MOL   H27348895  15.373  -1.625  -0.299 -1.6629 -2.3217 -0.7223
  152MOL   C27448896  15.131  -1.569  -0.783  0.0450  0.4645 -0.0804
  152MOL   C27548897  15.021  -1.506  -0.703 -0.0149  0.2264  0.2953
  152MOL   C27648898  15.042  -1.434  -0.582  0.5213  0.1868  0.4365
  152MOL   C27748899  14.929  -1.382  -0.510 -0.2675 -0.1750  0.4870
  152MOL   C27848900  14.799  -1.406  -0.556  0.3061  0.8536 -0.1525
  152MOL   C27948901  14.677  -1.339  -0.491 -0.5151 -0.7364  0.9108
  152MOL   C28048902  14.780  -1.483  -0.676  0.0603  0.2521 -0.6561
  152MOL   C28148903  14.891  -1.536  -0.741  0.2591 -0.5314 -0.5001
  152MOL   H28248904  15.195  -1.491  -0.826  1.4273 -0.1358  0.8347
  152MOL   H28348905  15.080  -1.611  -0.869 -2.2323  0.3279  1.2911
  152MOL   H28448906  15.138  -1.416  -0.537  0.7127  0.1300  0.0497
  152MOL   H28548907  14.942  -1.318  -0.424  0.5259  2.7259 -1.7042
  152MOL   H28648908  14.694  -1.343  -0.383 -0.6706 -0.7973  0.9314
  152MOL   H28748909  14.665  -1.233  -0.516  0.4045 -0.3831  1.9074
  152MOL   H28848910  14.683  -1.505  -0.716 -0.1810  1.6462 -0.8507
  152MOL   H28948911  14.875  -1.609  -0.819 -0.9987 -2.3199  1.3863
  152MOL   C29048912  14.538  -1.406  -0.515  0.5824 -0.2588  0.3705
  152MOL   C29148913  14.437  -1.335  -0.439 -0.3612  0.0230  0.0152
  152MOL   C29248914  14.346  -1.247  -0.501 -0.4394 -0.3940 -0.0345
  152MOL   C29348915  14.250  -1.176  -0.428  0.4092  0.1886 -0.1694
  152MOL   C29448916  14.232  -1.208  -0.291  0.0821  0.1153 -0.8768
  152MOL   C29548917  14.122  -1.143  -0.207 -0.9753 -0.0169  0.4331
  152MOL   C29648918  14.316  -1.303  -0.226  0.1537  0.5849 -0.2117
  152MOL   C29748919  14.418  -1.363  -0.304  0.6446  0.0969  0.1710
  152MOL   H29848920  14.541  -1.512  -0.490 -0.8645 -0.5532 -0.6532
  152MOL   H29948921  14.501  -1.409  -0.618 -2.2954 -2.5391  1.3998
  152MOL   H30048922  14.368  -1.233  -0.606  0.1811  2.0692  0.3897
  152MOL   H30148923  14.189  -1.098  -0.472  2.1428  3.2088  2.5139
  152MOL   H30248924  14.138  -1.148  -0.099  1.3624  0.6801  0.1512
  152MOL   H30348925  14.105  -1.038  -0.230 -0.4266 -0.5121 -2.4462
  152MOL   H30448926  14.303  -1.336  -0.124 -0.7902  0.0697 -0.4892
  152MOL   H30548927  14.495  -1.421  -0.256  1.3364 -0.2612 -1.3439
  152MOL   C30648928  13.989  -1.195  -0.231  0.3243  0.3421  0.4086
  152MOL   C30748929  13.878  -1.114  -0.168 -0.7660 -0.0429  0.0949
  152MOL   C30848930  13.860  -1.105  -0.029  0.7314  0.2387  0.1848
  152MOL   C30948931  13.759  -1.029   0.028  0.6424 -0.0963 -1.0076
  152MOL   C31048932  13.668  -0.966  -0.060  0.5954 -0.7993  0.5262
  152MOL   C31148933  13.534  -0.909  -0.010 -0.2671  0.0225 -0.3659
  152MOL   C31248934  13.685  -0.960  -0.199  0.4085 -0.4944  0.0198
  152MOL   C31348935  13.790  -1.042  -0.254 -0.6825  0.0697  0.4249
  152MOL   H31448936  13.990  -1.295  -0.187  0.6914 -0.6970 -1.9008
  152MOL   H31548937  13.978  -1.220  -0.336 -1.8922 -0.6088  0.8381
  152MOL   H31648938  13.927  -1.160   0.035  1.9561 -1.1183 -2.1898
  152MOL   H31748939  13.731  -1.037   0.132 -0.2391 -1.4887 -1.3511
  152MOL   H31848940  13.469  -0.973   0.050 -1.5795  1.4390 -0.2609
  152MOL   H31948941  13.555  -0.827   0.058 -0.0786 -1.3269  1.2419
  152MOL   H32048942  13.614  -0.906  -0.261  1.4474 -0.2315 -0.9605
  152MOL   H32148943  13.804  -1.038  -0.361 -3.6002 -1.4487 -0.0517
  152MOL   H32248944  13.477  -0.883  -0.099 -1.3406  1.2076  0.6404
  153MOL     C148945   1.267   5.952   0.550 -0.0309  0.0656 -0.5222
  153MOL     C248946   1.129   6.014   0.517 -0.2418 -0.0770 -0.6228
  153MOL     C348947   1.077   5.982   0.392  0.9143  0.0510  1.4092
  153MOL     C448948   0.947   6.028   0.357 -0.0062 -0.7177 -0.1933
  153MOL     C548949   0.873   6.101   0.455  0.7710  0.7638  0.2523
  153MOL     C648950   0.735   6.162   0.405  0.7659  0.0228  0.1802
  153MOL     C748951   0.928   6.125   0.585 -0.5057 -0.0655  0.1549
  153MOL     C848952   1.058   6.082   0.620  0.1239 -0.3689 -0.1396
  153MOL     H948953   1.337   6.033   0.568 -2.1564  1.3894  2.0688
  153MOL    H1048954   1.265   5.891   0.640 -1.3941  1.6461  0.5577
  153MOL    H1148955   1.133   5.932   0.315  1.4180 -1.5486  2.7962
  153MOL    H1248956   0.911   5.996   0.260  2.5683 -1.4785 -0.9614
  153MOL    H1348957   0.686   6.220   0.483  0.5523 -2.0164  1.5957
  153MOL    H1448958   0.762   6.218   0.315  0.4155  2.3227  1.4833
  153MOL    H1548959   0.872   6.181   0.658  1.0163  3.4013 -1.1851
  153MOL    H1648960   1.107   6.092   0.716 -0.1253  1.0002 -0.1396
  153MOL    H1748961   1.317   5.886   0.479 -3.3084  0.3484 -3.2272
  153MOL    C1848962   0.636   6.052   0.367  0.5210 -0.5483 -0.9045
  153MOL    C1948963   0.484   6.092   0.342 -0.6339  0.0694 -0.4117
  153MOL    C2048964   0.445   6.216   0.296 -0.4987 -0.4007 -0.0029
  153MOL    C2148965   0.313   6.249   0.267  0.6665  0.0137 -0.2411
  153MOL    C2248966   0.208   6.157   0.292 -0.2457  0.2182 -0.1545
  153MOL    C2348967   0.065   6.187   0.261  0.3071  0.0730 -0.0326
  153MOL    C2448968   0.250   6.029   0.341 -0.2532 -0.0146 -0.0984
  153MOL    C2548969   0.386   5.993   0.361  0.4946 -0.6566 -0.0406
  153MOL    H2648970   0.666   5.989   0.283 -0.3478  0.0785 -1.7130
  153MOL    H2748971   0.636   5.968   0.435  1.2035 -1.4902 -2.0474
  153MOL    H2848972   0.525   6.287   0.280 -0.3976 -0.0667  1.9121
  153MOL    H2948973   0.289   6.344   0.221  1.9125  0.0647 -0.8160
  153MOL    H3048974   0.016   6.095   0.228  1.3748 -1.0811  1.5314
  153MOL    H3148975   0.071   6.269   0.189  1.1025 -0.9073 -1.0940
  153MOL    H3248976   0.178   5.951   0.367  0.5288  0.0382  2.3572
  153MOL    H3348977   0.400   5.894   0.403  0.8023 -1.8430 -2.8267
  153MOL    C3448978  -0.019   6.219   0.387  1.0112 -0.2226 -0.8526
  153MOL    C3548979  -0.169   6.233   0.363 -0.6903 -0.3495  0.7569
  153MOL    C3648980  -0.215   6.361   0.334 -0.3442 -0.2270 -0.0027
  153MOL    C3748981  -0.350   6.381   0.320 -0.0083  0.4660 -0.0535
  153MOL    C3848982  -0.438   6.273   0.322 -0.5884 -0.6272  0.1907
  153MOL    C3948983  -0.587   6.298   0.317  0.1648  0.1516 -1.1298
  153MOL    C4048984  -0.394   6.145   0.341  0.7435 -0.0015 -0.5839
  153MOL    C4148985  -0.260   6.125   0.371 -0.6998  0.5598  0.3081
  153MOL    H4248986   0.024   6.304   0.440 -2.4692 -0.0645  1.8777
  153MOL    H4348987  -0.004   6.137   0.458  1.2952  0.7950  0.2720
  153MOL    H4448988  -0.147   6.445   0.344  1.1149 -1.4525  0.5327
  153MOL    H4548989  -0.392   6.479   0.306  2.4404  1.5707 -0.0271
  153MOL    H4648990  -0.600   6.373   0.238 -1.3155  2.1492  0.9724
  153MOL    H4748991  -0.636   6.210   0.276  0.1273 -0.7556  0.8333
  153MOL    H4848992  -0.468   6.068   0.360  0.9755  0.3175  1.7372
  153MOL    H4948993  -0.231   6.025   0.400  1.2960  0.8679 -0.5684
  153MOL    C5048994  -0.642   6.356   0.448  0.6682 -0.5742  0.3574
  153MOL    C5148995  -0.794   6.410   0.442  0.2429  0.0876  0.0037
  153MOL    C5248996  -0.821   6.544   0.484 -0.1544  0.9095  0.3587
  153MOL    C5348997  -0.956   6.590   0.496  0.2834  0.7307 -0.4502
  153MOL    C5448998  -1.058   6.497   0.468 -0.2131 -0.3570 -0.8878
  153MOL    C5548999  -1.198   6.535   0.491 -0.0083 -0.5108 -0.0861
  153MOL    C5649000  -1.035   6.367   0.421  0.3919  0.1891 -0.5076
  153MOL    C5749001  -0.902   6.324   0.408 -0.3849  0.1967 -0.1224
  153MOL    H5849002  -0.582   6.436   0.492 -0.5276 -0.1466  1.2433
  153MOL    H5949003  -0.645   6.285   0.530  2.8715 -0.9668  0.1280
  153MOL    H6049004  -0.736   6.609   0.499  1.1102 -0.5982 -0.1204
  153MOL    H6149005  -0.981   6.690   0.529  0.1641  0.2367  1.0190
  153MOL    H6249006  -1.215   6.618   0.422 -1.9921  1.7216  2.9469
  153MOL    H6349007  -1.268   6.454   0.476 -0.6238 -0.0939  0.4964
  153MOL    H6449008  -1.122   6.308   0.396  1.0393 -1.0889  0.2174
  153MOL    H6549009  -0.883   6.224   0.373  0.4178  0.3746 -0.2151
  153MOL    C6649010  -1.225   6.593   0.633 -0.0355  0.3339 -1.0350
  153MOL    C6749011  -1.336   6.708   0.641 -0.4099 -0.0855 -0.0642
  153MOL    C6849012  -1.461   6.695   0.586 -0.0817 -0.2018 -0.2988
  153MOL    C6949013  -1.559   6.797   0.605 -0.3065  0.4723 -0.4117
  153MOL    C7049014  -1.530   6.916   0.681  0.2476  0.5113 -0.4070
  153MOL    C7149015  -1.624   7.035   0.683  1.1048  0.6285 -0.6142
  153MOL    C7249016  -1.405   6.920   0.742 -0.2501 -0.3226  0.3957
  153MOL    C7349017  -1.309   6.825   0.713 -0.2765  0.2878  0.3341
  153MOL    H7449018  -1.139   6.643   0.677  0.2393  0.8067 -2.0808
  153MOL    H7549019  -1.246   6.510   0.700 -1.0839 -0.2686 -2.0807
  153MOL    H7649020  -1.500   6.602   0.547 -0.4202 -1.2393  2.4148
  153MOL    H7749021  -1.652   6.792   0.549 -0.0964  0.8779 -0.8006
  153MOL    H7849022  -1.661   7.075   0.588  2.5638  0.1650 -1.3957
  153MOL    H7949023  -1.573   7.120   0.728  0.0038  1.1162 -0.2661
  153MOL    H8049024  -1.378   7.002   0.807  0.1183 -0.2440  0.1479
  153MOL    H8149025  -1.204   6.833   0.738 -0.5151 -0.9650  1.8076
  153MOL    C8249026  -1.738   7.000   0.788  0.1477 -0.7203 -0.2961
  153MOL    C8349027  -1.844   7.100   0.799 -0.0877 -0.0822  0.5965
  153MOL    C8449028  -1.808   7.233   0.841  0.3017 -0.1297  0.7935
  153MOL    C8549029  -1.910   7.334   0.835 -0.0703 -0.1041  0.2774
  153MOL    C8649030  -2.040   7.303   0.788  0.0381  0.4043 -0.4734
  153MOL    C8749031  -2.150   7.408   0.797 -0.1110 -0.4475  0.1640
  153MOL    C8849032  -2.071   7.172   0.748 -0.0912  0.7020  0.1607
  153MOL    C8949033  -1.977   7.070   0.761  0.6274  0.1797 -0.2886
  153MOL    H9049034  -1.701   6.979   0.888 -0.1036 -3.0295 -0.6492
  153MOL    H9149035  -1.782   6.904   0.759  1.0114 -1.2257  0.0206
  153MOL    H9249036  -1.709   7.249   0.879  1.0824  0.3307 -1.3339
  153MOL    H9349037  -1.898   7.429   0.885 -0.4118 -0.6949  1.5050
  153MOL    H9449038  -2.199   7.388   0.701 -0.3143  1.0793 -0.0504
  153MOL    H9549039  -2.112   7.509   0.784  0.3227 -0.6320 -0.0144
  153MOL    H9649040  -2.165   7.145   0.704  0.4438 -1.5917  0.3534
  153MOL    H9749041  -2.001   6.967   0.739 -1.1692  0.3780  0.6175
  153MOL    C9849042  -2.244   7.385   0.917 -0.5340  0.1593  0.8710
  153MOL    C9949043  -2.366   7.471   0.917  0.0770 -0.7140 -0.0186
  153MOL   C10049044  -2.394   7.561   1.017  0.2135 -0.1667 -0.0881
  153MOL   C10149045  -2.504   7.648   1.008 -0.3354  0.4807  0.3657
  153MOL   C10249046  -2.596   7.633   0.900 -0.0166  0.5928  0.1704
  153MOL   C10349047  -2.716   7.725   0.891  0.0123  0.3790  0.7468
  153MOL   C10449048  -2.567   7.544   0.793  0.4715 -0.3275 -0.5696
  153MOL   C10549049  -2.451   7.462   0.803  0.1734  0.5072  0.1089
  153MOL   H10649050  -2.199   7.383   1.016 -0.2834 -1.1809  0.7367
  153MOL   H10749051  -2.270   7.280   0.916 -1.4465  0.3758 -1.5942
  153MOL   H10849052  -2.327   7.563   1.102 -2.1080 -0.3092  1.7869
  153MOL   H10949053  -2.525   7.721   1.084 -1.1744 -0.0241  0.6239
  153MOL   H11049054  -2.685   7.822   0.852  1.2128 -0.1961  0.2369
  153MOL   H11149055  -2.771   7.680   0.809  0.3996 -0.2609  0.8288
  153MOL   H11249056  -2.629   7.540   0.705  2.4120  0.4602 -1.9882
  153MOL   H11349057  -2.438   7.389   0.724 -1.4182  0.7052 -0.3720
  153MOL   C11449058  -2.806   7.732   1.010  0.3025  0.4215 -0.1193
  153MOL   C11549059  -2.918   7.831   0.998  0.3327 -0.1892  0.3751
  153MOL   C11649060  -3.020   7.838   0.896 -0.0866 -0.3615 -0.3236
  153MOL   C11749061  -3.124   7.937   0.892 -0.3446 -0.1764 -0.1489
  153MOL   C11849062  -3.128   8.026   0.997 -0.7945  0.0099 -0.4313
  153MOL   C11949063  -3.225   8.141   1.002 -0.5988  0.8027 -0.4187
  153MOL   C12049064  -3.024   8.026   1.097  1.1652 -0.4896  0.8837
  153MOL   C12149065  -2.929   7.922   1.098 -0.9800 -0.4455  0.4210
  153MOL   H12249066  -2.756   7.754   1.104  0.6152  1.3272 -0.4932
  153MOL   H12349067  -2.847   7.631   1.020  0.9475  0.2477  0.8057
  153MOL   H12449068  -3.013   7.759   0.823 -0.2429 -1.4826  0.8672
  153MOL   H12549069  -3.210   7.927   0.827 -1.1434 -2.6022  1.2002
  153MOL   H12649070  -3.176   8.221   1.058  0.9624  0.4066 -1.1866
  153MOL   H12749071  -3.240   8.174   0.899  1.0081  1.8555 -0.3414
  153MOL   H12849072  -3.022   8.096   1.179  0.0884  0.4762  0.1006
  153MOL   H12949073  -2.870   7.922   1.188  0.1038  1.9145 -0.2492
  153MOL   C13049074  -3.359   8.092   1.071  0.2074  0.4806 -0.2465
  153MOL   C13149075  -3.471   8.182   1.069  0.0312  0.0678  0.0528
  153MOL   C13249076  -3.552   8.186   0.952  0.0466 -0.3793  0.6271
  153MOL   C13349077  -3.661   8.274   0.950  0.2128 -0.1333  0.2381
  153MOL   C13449078  -3.695   8.355   1.069  0.0333  0.1728 -0.3548
  153MOL   C13549079  -3.818   8.442   1.061 -0.9508  0.4503  0.1023
  153MOL   C13649080  -3.604   8.346   1.181 -0.0452  0.6847 -0.1745
  153MOL   C13749081  -3.496   8.265   1.175  0.4188 -0.3853 -0.4329
  153MOL   H13849082  -3.337   8.057   1.172 -1.5951  0.0990  0.0295
  153MOL   H13949083  -3.393   8.001   1.021 -0.3169  0.0694  0.8589
  153MOL   H14049084  -3.534   8.130   0.862 -2.8445 -0.6369  0.1741
  153MOL   H14149085  -3.710   8.294   0.856  2.1039 -0.4430 -0.8274
  153MOL   H14249086  -3.823   8.526   1.130  1.2854  1.5646 -1.0100
  153MOL   H14349087  -3.812   8.491   0.964  1.0056  1.8097  0.8679
  153MOL   H14449088  -3.622   8.407   1.268 -0.2566  1.7327 -0.9454
  153MOL   H14549089  -3.419   8.268   1.251 -0.2377 -1.0263  0.2656
  153MOL   C14649090  -3.946   8.363   1.083 -0.0328 -0.3225  0.0323
  153MOL   C14749091  -4.074   8.442   1.084 -1.1042 -0.0262  0.4319
  153MOL   C14849092  -4.130   8.491   1.205 -0.3822 -0.2735  0.1317
  153MOL   C14949093  -4.248   8.565   1.204  0.3627 -0.3800 -0.9036
  153MOL   C15049094  -4.307   8.604   1.087 -0.5302 -0.5033 -0.7131
  153MOL   C15149095  -4.425   8.695   1.091 -0.1069 -0.3358 -0.4004
  153MOL   C15249096  -4.250   8.563   0.961  0.6382 -0.1919 -0.0687
  153MOL   C15349097  -4.137   8.475   0.961 -0.2894 -0.2565  1.0289
  153MOL   H15449098  -3.949   8.313   1.180 -0.9730  0.1466  0.2471
  153MOL   H15549099  -3.941   8.294   0.999  0.2382  0.3117 -0.4688
  153MOL   H15649100  -4.081   8.473   1.300 -0.5472  1.3178  0.5220
  153MOL   H15749101  -4.293   8.594   1.297  1.1905  1.7993 -1.1411
  153MOL   H15849102  -4.424   8.757   1.181 -0.8530 -0.9934  0.0719
  153MOL   H15949103  -4.412   8.759   1.004  2.4374  1.4150  1.1773
  153MOL   H16049104  -4.288   8.596   0.866 -1.3981 -3.0555 -0.2757
  153MOL   H16149105  -4.105   8.455   0.860 -1.0231  2.7735  0.1447
  153MOL   C16249106  -4.558   8.617   1.106  0.2396  0.1450 -0.2919
  153MOL   C16349107  -4.676   8.715   1.129 -1.0501  0.5066  0.0408
  153MOL   C16449108  -4.719   8.732   1.264 -0.0572  0.1249 -0.1357
  153MOL   C16549109  -4.833   8.807   1.300  0.3223  0.5847  0.0827
  153MOL   C16649110  -4.902   8.867   1.191 -0.1387  0.2357 -0.0355
  153MOL   C16749111  -5.021   8.964   1.215 -0.0973 -0.0762  0.2594
  153MOL   C16849112  -4.858   8.851   1.057 -0.0474  0.8060 -0.4449
  153MOL   C16949113  -4.743   8.781   1.025 -0.0015 -0.2168 -0.5156
  153MOL   H17049114  -4.553   8.559   1.198  0.5753 -0.7795 -0.8859
  153MOL   H17149115  -4.577   8.558   1.016  1.0373  0.6343 -0.7849
  153MOL   H17249116  -4.672   8.685   1.350 -1.0000  0.3287  0.5002
  153MOL   H17349117  -4.865   8.819   1.403 -1.0585  1.5469 -0.4508
  153MOL   H17449118  -5.012   8.974   1.323  0.7734  0.5385  0.1323
  153MOL   H17549119  -4.996   9.064   1.179 -0.9771  0.1063  0.1459
  153MOL   H17649120  -4.917   8.892   0.976  1.0684  1.6373 -0.8532
  153MOL   H17749121  -4.714   8.773   0.921 -2.2006  0.9798 -1.2542
  153MOL   C17849122  -5.147   8.906   1.156 -0.5176  0.5157  0.0893
  153MOL   C17949123  -5.269   8.992   1.187  0.4231  0.0234 -0.1904
  153MOL   C18049124  -5.324   9.003   1.320 -0.4690 -0.1690 -0.1029
  153MOL   C18149125  -5.449   9.073   1.337 -0.3755 -0.3023  0.2347
  153MOL   C18249126  -5.509   9.139   1.227 -0.0171 -0.5502 -0.8263
  153MOL   C18349127  -5.630   9.221   1.254  0.2276 -0.4326  0.0005
  153MOL   C18449128  -5.443   9.145   1.104 -0.3039 -0.6261 -0.7995
  153MOL   C18549129  -5.326   9.069   1.079  0.0213  0.0998  0.2700
  153MOL   H18649130  -5.158   8.803   1.190  5.3301 -1.5419 -3.4252
  153MOL   H18749131  -5.143   8.904   1.047 -1.1475  1.3147  0.0428
  153MOL   H18849132  -5.282   8.954   1.407 -0.2746 -1.6048 -0.9945
  153MOL   H18949133  -5.487   9.095   1.436 -0.8545 -0.1381  0.0146
  153MOL   H19049134  -5.602   9.270   1.348  1.5567 -1.3652  0.0993
  153MOL   H19149135  -5.664   9.300   1.187 -0.1506  0.4572  1.2136
  153MOL   H19249136  -5.485   9.195   1.018 -1.1723  1.1110  0.6209
  153MOL   H19349137  -5.279   9.069   0.982  0.4608 -1.9291  0.4562
  153MOL   C19449138  -5.755   9.128   1.262  0.0842  0.4910  0.4267
  153MOL   C19549139  -5.881   9.201   1.289 -0.7923  0.3208  0.6615
  153MOL   C19649140  -5.946   9.287   1.197  0.4610 -0.0113  0.5490
  153MOL   C19749141  -6.056   9.365   1.230  0.4228  0.0245  0.2132
  153MOL   C19849142  -6.117   9.350   1.356 -0.1582 -0.0147 -0.0333
  153MOL   C19949143  -6.244   9.428   1.384  0.0384  0.3808 -0.0698
  153MOL   C20049144  -6.058   9.259   1.450  0.2526  0.1487  0.0131
  153MOL   C20149145  -5.939   9.185   1.419  0.2383  0.4209  0.2412
  153MOL   H20249146  -5.744   9.034   1.316  2.1276 -0.4627 -1.5643
  153MOL   H20349147  -5.765   9.085   1.163  0.7537 -0.5561  0.8003
  153MOL   H20449148  -5.909   9.299   1.096 -1.0716  1.1508  0.0930
  153MOL   H20549149  -6.096   9.444   1.168  0.6527 -0.6051 -0.7383
  153MOL   H20649150  -6.242   9.455   1.490  0.0793  1.2614 -0.2906
  153MOL   H20749151  -6.245   9.531   1.348  2.5016  0.4222 -0.0734
  153MOL   H20849152  -6.096   9.246   1.550  1.4602 -0.8990  0.3549
  153MOL   H20949153  -5.902   9.111   1.488  0.9909  0.6278  0.0602
  153MOL   C21049154  -6.367   9.355   1.331 -0.1358 -0.0549  0.6221
  153MOL   C21149155  -6.492   9.428   1.381 -0.6546  0.1169  1.0313
  153MOL   C21249156  -6.538   9.421   1.512  0.3837  0.1117 -0.3588
  153MOL   C21349157  -6.656   9.490   1.554 -0.4319 -0.4284 -0.1877
  153MOL   C21449158  -6.727   9.568   1.465 -0.0732  0.2907 -0.8671
  153MOL   C21549159  -6.855   9.640   1.511  0.2362  0.8162  0.3936
  153MOL   C21649160  -6.679   9.574   1.335 -0.2910 -0.0495  0.3544
  153MOL   C21749161  -6.557   9.519   1.296 -0.9321 -0.1382  0.4304
  153MOL   H21849162  -6.368   9.250   1.358 -0.1999 -0.2885 -0.2867
  153MOL   H21949163  -6.359   9.366   1.223  0.3071  0.4008  0.6971
  153MOL   H22049164  -6.496   9.354   1.585  1.2292  1.2217  0.1813
  153MOL   H22149165  -6.694   9.479   1.655 -1.4156 -1.4448 -0.6574
  153MOL   H22249166  -6.858   9.634   1.619 -0.2385 -0.5305  0.3179
  153MOL   H22349167  -6.862   9.738   1.463 -0.4000 -0.2983 -1.8985
  153MOL   H22449168  -6.740   9.634   1.268 -1.1722  0.0734  1.2630
  153MOL   H22549169  -6.522   9.547   1.197  2.6094  0.8623  1.8636
  153MOL   C22649170  -6.984   9.562   1.475  0.1256 -0.3975  1.0210
  153MOL   C22749171  -7.108   9.640   1.533 -0.1342  0.5794 -0.0224
  153MOL   C22849172  -7.144   9.614   1.669 -0.5042  0.2979  0.8522
  153MOL   C22949173  -7.260   9.683   1.716 -0.0292  0.6524  0.1143
  153MOL   C23049174  -7.330   9.771   1.637 -0.0641  0.4194  0.2723
  153MOL   C23149175  -7.455   9.832   1.698  0.1193  0.2373 -0.0104
  153MOL   C23249176  -7.279   9.801   1.506  0.1261 -0.0756 -0.2522
  153MOL   C23349177  -7.165   9.738   1.454  0.1143  0.4909 -0.9150
  153MOL   H23449178  -6.972   9.460   1.511  1.2065  0.3101  2.7112
  153MOL   H23549179  -7.003   9.543   1.369  0.1505 -0.6262  1.0565
  153MOL   H23649180  -7.089   9.545   1.730 -2.0144  1.5044  3.6653
  153MOL   H23749181  -7.296   9.653   1.813  0.9848 -3.8711 -0.7810
  153MOL   H23849182  -7.435   9.868   1.799 -0.6244 -0.0053  0.2292
  153MOL   H23949183  -7.468   9.928   1.648  0.1377 -1.2712 -3.0295
  153MOL   H24049184  -7.314   9.888   1.452  0.4018 -0.2506 -0.7148
  153MOL   H24149185  -7.121   9.764   1.358  1.1360 -0.6757 -0.7824
  153MOL   C24249186  -7.571   9.741   1.698  0.2649 -0.0102 -0.3968
  153MOL   C24349187  -7.701   9.818   1.712 -0.2154 -0.9601 -0.9875
  153MOL   C24449188  -7.751   9.911   1.619 -0.0272 -0.4860 -0.3529
  153MOL   C24549189  -7.876   9.964   1.635  0.1092  0.5910  0.4586
  153MOL   C24649190  -7.946   9.951   1.759  0.1795  0.0216  0.5695
  153MOL   C24749191  -8.080  10.020   1.797  0.4953  0.1042  0.1560
  153MOL   C24849192  -7.897   9.866   1.855 -0.4029  0.6358 -0.2787
  153MOL   C24949193  -7.772   9.801   1.834 -0.8753  0.3455 -0.2394
  153MOL   H25049194  -7.574   9.672   1.614  1.4817  0.5120 -0.8695
  153MOL   H25149195  -7.557   9.668   1.778 -2.2431  1.2731  1.2837
  153MOL   H25249196  -7.695   9.941   1.531 -2.4967 -0.2437 -1.8643
  153MOL   H25349197  -7.912  10.033   1.561  1.6555  1.3516  0.3886
  153MOL   H25449198  -8.080  10.048   1.902 -1.5456  1.5827 -0.2095
  153MOL   H25549199  -8.098  10.099   1.724 -1.6261  1.9505  2.5746
  153MOL   H25649200  -7.952   9.859   1.947 -1.0895  0.5345 -0.6942
  153MOL   H25749201  -7.735   9.727   1.904 -2.2034 -1.6712 -1.6079
  153MOL   C25849202  -8.196   9.925   1.788 -0.0191  0.1170 -0.4628
  153MOL   C25949203  -8.322   9.996   1.827  0.3895 -0.2759 -0.3845
  153MOL   C26049204  -8.384  10.077   1.728 -0.9346  0.9658 -0.7866
  153MOL   C26149205  -8.491  10.160   1.751  0.0039 -0.1179 -0.2992
  153MOL   C26249206  -8.551  10.159   1.878  0.3657 -0.6800  0.1835
  153MOL   C26349207  -8.673  10.247   1.901  0.0712 -1.3232  0.6217
  153MOL   C26449208  -8.493  10.083   1.979  0.2685 -0.3425 -0.1496
  153MOL   C26549209  -8.376  10.007   1.956 -0.2359  0.3993  0.1573
  153MOL   H26649210  -8.182   9.837   1.851 -1.8727  0.5024  0.5191
  153MOL   H26749211  -8.212   9.875   1.692  1.3232  2.2952 -1.8494
  153MOL   H26849212  -8.342  10.078   1.628 -0.1946 -1.4152 -0.5299
  153MOL   H26949213  -8.527  10.227   1.674  1.2208  2.2094  1.0892
  153MOL   H27049214  -8.650  10.308   1.988  1.6872 -0.8034 -0.1390
  153MOL   H27149215  -8.690  10.321   1.822  0.7981  1.4208  2.9456
  153MOL   H27249216  -8.545  10.080   2.073  0.0116 -1.8879 -0.3233
  153MOL   H27349217  -8.332   9.943   2.031 -1.1434  0.3575  0.6570
  153MOL   C27449218  -8.798  10.173   1.930 -0.1173 -0.0813 -0.3551
  153MOL   C27549219  -8.926  10.253   1.957  0.0954 -0.1224 -0.3718
  153MOL   C27649220  -8.981  10.313   1.843 -0.5574 -0.0739 -0.1150
  153MOL   C27749221  -9.111  10.373   1.851  0.3097  0.4827 -0.2112
  153MOL   C27849222  -9.170  10.390   1.976  0.6276 -0.3495 -0.4197
  153MOL   C27949223  -9.303  10.460   2.001  0.0990 -0.1976 -0.5546
  153MOL   C28049224  -9.110  10.326   2.088 -0.3471  0.0417 -0.0181
  153MOL   C28149225  -8.990  10.264   2.083 -0.4442  0.3529  0.3594
  153MOL   H28249226  -8.820  10.108   1.846  0.8166 -2.4138  1.1394
  153MOL   H28349227  -8.781  10.118   2.023  3.8118 -2.2855 -2.2198
  153MOL   H28449228  -8.935  10.313   1.745 -0.2288 -1.4401  0.0242
  153MOL   H28549229  -9.147  10.423   1.762 -1.7387 -4.0594 -2.0698
  153MOL   H28649230  -9.371  10.396   2.057 -0.5021  0.9708  0.0625
  153MOL   H28749231  -9.272  10.542   2.065  0.7477  0.7973 -2.1100
  153MOL   H28849232  -9.143  10.346   2.189 -0.1913  1.0168 -0.1551
  153MOL   H28949233  -8.944  10.220   2.170  2.1873  2.1892 -0.0038
  153MOL   C29049234  -9.389  10.515   1.878  0.4864  0.3620  0.1374
  153MOL   C29149235  -9.528  10.565   1.906 -0.0513 -0.5790 -0.0510
  153MOL   C29249236  -9.571  10.600   2.035 -0.6060  0.2155 -0.6448
  153MOL   C29349237  -9.703  10.622   2.064 -0.0602 -0.5137 -0.3440
  153MOL   C29449238  -9.802  10.639   1.962 -0.4697 -0.2652 -0.0707
  153MOL   C29549239  -9.946  10.676   1.996 -0.7657  0.2935  0.3818
  153MOL   C29649240  -9.759  10.606   1.831  0.9243 -0.1341 -0.2137
  153MOL   C29749241  -9.624  10.571   1.806 -0.5282  0.9101  0.2794
  153MOL   H29849242  -9.388  10.434   1.806  1.1482 -0.1059  0.6589
  153MOL   H29949243  -9.338  10.600   1.832  3.2276 -2.2396 -1.8485
  153MOL   H30049244  -9.500  10.581   2.114 -1.1857 -2.7855 -0.7695
  153MOL   H30149245  -9.725  10.650   2.166  0.6461 -2.1331  0.2723
  153MOL   H30249246  -9.989  10.609   2.071 -0.1557 -1.7903 -1.0817
  153MOL   H30349247  -9.946  10.776   2.040  1.5289  0.4012  0.1766
  153MOL   H30449248  -9.828  10.611   1.748 -0.8585 -1.3118  1.1679
  153MOL   H30549249  -9.596  10.533   1.709  0.4627  0.7579  0.6117
  153MOL   C30649250 -10.043  10.675   1.876 -0.2897 -0.4786 -0.1453
  153MOL   C30749251 -10.181  10.730   1.895  0.1856 -0.4243 -0.4360
  153MOL   C30849252 -10.200  10.871   1.884 -0.1133  0.4502  0.3541
  153MOL   C30949253 -10.325  10.929   1.884  0.8826 -0.0140 -0.3774
  153MOL   C31049254 -10.439  10.849   1.885  0.7159  0.2623  0.0416
  153MOL   C31149255 -10.579  10.914   1.863  0.4601  0.0620  0.2184
  153MOL   C31249256 -10.425  10.711   1.898  0.0748  0.2956 -0.4681
  153MOL   C31349257 -10.297  10.654   1.915  0.2528 -0.4365  0.5826
  153MOL   H31449258 -10.059  10.572   1.845  1.5120 -0.2807 -1.8134
  153MOL   H31549259  -9.996  10.729   1.794  1.4282 -2.1602 -0.2977
  153MOL   H31649260 -10.113  10.934   1.873 -0.1148  0.1798 -1.4737
  153MOL   H31749261 -10.340  11.036   1.877  1.7873  0.1036 -0.5583
  153MOL   H31849262 -10.617  10.894   1.763 -0.7173  1.5211  0.3559
  153MOL   H31949263 -10.634  10.854   1.935 -0.5467  0.9635  0.2143
  153MOL   H32049264 -10.512  10.647   1.892 -0.3166  0.8297 -0.5053
  153MOL   H32149265 -10.285  10.547   1.928  2.9268 -0.3869 -0.8966
  153MOL   H32249266 -10.592  11.016   1.898  0.7890 -0.0602  0.7071
  154MOL     C149267   2.232   2.401   4.633 -0.0860 -0.2320  1.0505
  154MOL     C249268   2.374   2.339   4.611 -0.5636  0.8119  0.2236
  154MOL     C349269   2.495   2.408   4.628  0.1082 -0.0636  0.2838
  154MOL     C449270   2.624   2.347   4.618 -0.2308 -0.3132 -0.6799
  154MOL     C549271   2.623   2.205   4.601  0.0721  0.6616  0.8438
  154MOL     C649272   2.755   2.128   4.592 -0.7285  0.1246  0.7778
  154MOL     C749273   2.503   2.135   4.575 -0.1844  0.5214  0.3750
  154MOL     C849274   2.380   2.203   4.583  0.3071  0.3419  0.0958
  154MOL     H949275   2.241   2.461   4.724 -2.0458 -1.8050  2.3305
  154MOL    H1049276   2.187   2.451   4.548  2.1991 -0.2660 -0.2080
  154MOL    H1149277   2.480   2.507   4.667 -0.5462  0.6115 -1.6188
  154MOL    H1249278   2.716   2.403   4.625  0.5383 -1.7233  0.8497
  154MOL    H1349279   2.834   2.173   4.652 -1.0722 -2.2596  3.1081
  154MOL    H1449280   2.754   2.032   4.642 -2.2390 -0.8501 -1.0612
  154MOL    H1549281   2.504   2.027   4.572  0.9455  0.5795 -2.0201
  154MOL    H1649282   2.284   2.153   4.581  0.2743  0.2770  2.0419
  154MOL    H1749283   2.160   2.322   4.655 -0.8502  0.3044  0.5006
  154MOL    C1849284   2.796   2.099   4.447  0.1246 -0.0257 -0.2836
  154MOL    C1949285   2.933   2.033   4.432  0.5134 -0.4536 -0.1722
  154MOL    C2049286   2.934   1.896   4.424  0.3444  0.4027 -0.3682
  154MOL    C2149287   3.060   1.835   4.400 -0.3327  0.2680  0.8832
  154MOL    C2249288   3.182   1.909   4.396  0.4634  0.4840  0.4009
  154MOL    C2349289   3.319   1.847   4.390  0.5543 -0.4379 -0.5062
  154MOL    C2449290   3.174   2.047   4.406  0.4508  0.3653  0.7896
  154MOL    C2549291   3.048   2.109   4.421 -0.5550 -0.1536 -0.6464
  154MOL    H2649292   2.726   2.029   4.401 -0.8014  0.5970  0.1737
  154MOL    H2749293   2.803   2.186   4.381  1.0751 -0.1570 -0.3702
  154MOL    H2849294   2.843   1.837   4.432  1.2660 -0.9329  0.4442
  154MOL    H2949295   3.067   1.728   4.385 -1.1977  0.5943 -2.2521
  154MOL    H3049296   3.328   1.761   4.456  0.4682 -1.7361 -2.1828
  154MOL    H3149297   3.392   1.911   4.440 -0.9610 -1.1203  2.7280
  154MOL    H3249298   3.264   2.103   4.389  0.5431  0.3937  1.3531
  154MOL    H3349299   3.043   2.216   4.437 -0.5690 -0.2948  0.3477
  154MOL    C3449300   3.354   1.813   4.247  0.4120  0.0323  0.3027
  154MOL    C3549301   3.503   1.771   4.225  0.0157 -0.2791 -0.2993
  154MOL    C3649302   3.597   1.842   4.148 -0.5522 -0.9371 -0.0917
  154MOL    C3749303   3.731   1.792   4.130 -0.0789 -0.0876  0.6420
  154MOL    C3849304   3.766   1.665   4.180 -0.3258 -0.6263 -0.3016
  154MOL    C3949305   3.897   1.596   4.139  0.0187  0.3577 -0.6850
  154MOL    C4049306   3.671   1.596   4.258  0.8515  0.3244 -0.2325
  154MOL    C4149307   3.541   1.648   4.270 -1.0596  0.7800 -0.1028
  154MOL    H4249308   3.341   1.909   4.197  1.1048 -0.2437 -0.4254
  154MOL    H4349309   3.289   1.737   4.203  0.1368  0.4955 -0.0918
  154MOL    H4449310   3.555   1.934   4.109  0.3165  0.0037  1.1445
  154MOL    H4549311   3.807   1.855   4.085 -0.3074 -0.3159 -0.0719
  154MOL    H4649312   3.896   1.491   4.168  2.3941 -0.1812 -2.4022
  154MOL    H4749313   3.907   1.598   4.031 -4.4474  1.3717 -1.1644
  154MOL    H4849314   3.690   1.499   4.302  0.5987 -0.5899 -2.0908
  154MOL    H4949315   3.473   1.589   4.329 -0.9356  3.0055  2.3786
  154MOL    C5049316   4.024   1.648   4.210  0.4101 -0.3161  0.4366
  154MOL    C5149317   4.157   1.583   4.181 -0.2417 -0.0072  0.3907
  154MOL    C5249318   4.250   1.643   4.098 -0.2115  0.1250  0.2544
  154MOL    C5349319   4.364   1.578   4.058  0.0911  0.2888  0.2463
  154MOL    C5449320   4.390   1.448   4.109 -0.1076 -0.8359 -0.1520
  154MOL    C5549321   4.518   1.376   4.075  0.0622  0.1183 -0.1962
  154MOL    C5649322   4.300   1.388   4.201  0.9890 -0.2881  0.4666
  154MOL    C5749323   4.187   1.461   4.240 -0.1477 -0.1001  0.1563
  154MOL    H5849324   3.997   1.650   4.316 -0.7099  0.7481  0.1463
  154MOL    H5949325   4.030   1.750   4.171  1.1279 -0.5400 -0.0384
  154MOL    H6049326   4.223   1.737   4.055 -3.1904 -0.6691  0.3139
  154MOL    H6149327   4.435   1.623   3.989 -0.6293 -0.0436 -0.7187
  154MOL    H6249328   4.511   1.268   4.084 -0.3093  0.1208 -0.4368
  154MOL    H6349329   4.537   1.396   3.969  0.0898 -0.8692 -0.3873
  154MOL    H6449330   4.325   1.292   4.244  1.0518 -0.3309  0.3327
  154MOL    H6549331   4.121   1.424   4.317  0.2541  1.4800  1.2786
  154MOL    C6649332   4.629   1.418   4.172  0.0647  0.0583 -0.5596
  154MOL    C6749333   4.761   1.348   4.134 -0.0875 -0.7321  0.1350
  154MOL    C6849334   4.804   1.234   4.205 -0.4168 -0.5262 -0.0244
  154MOL    C6949335   4.923   1.169   4.163 -0.3687 -0.2005 -0.0930
  154MOL    C7049336   5.008   1.220   4.064  0.3090  0.2906  0.2220
  154MOL    C7149337   5.138   1.153   4.027 -0.1851 -0.1902  0.0128
  154MOL    C7249338   4.966   1.338   4.000 -0.5143 -0.7785 -0.4697
  154MOL    C7349339   4.839   1.396   4.026  0.4304  0.7280 -0.2647
  154MOL    H7449340   4.618   1.394   4.278  2.0374 -2.5479 -0.9149
  154MOL    H7549341   4.653   1.525   4.173 -0.7052  0.2794  3.3036
  154MOL    H7649342   4.742   1.196   4.285 -0.3664  2.4839  1.5031
  154MOL    H7749343   4.955   1.077   4.210 -1.0020 -0.3779 -0.0037
  154MOL    H7849344   5.146   1.186   3.923  1.0037  2.0745  0.7905
  154MOL    H7949345   5.128   1.046   4.009  0.5005 -0.1518 -0.6300
  154MOL    H8049346   5.025   1.378   3.918 -0.2681  1.6945  0.8511
  154MOL    H8149347   4.802   1.473   3.960 -0.9721  2.2557  2.1875
  154MOL    C8249348   5.259   1.190   4.111  0.6163  0.0210 -0.1799
  154MOL    C8349349   5.391   1.125   4.086 -0.3650  0.1383  0.5401
  154MOL    C8449350   5.428   1.006   4.149  0.2845  0.3277 -0.7214
  154MOL    C8549351   5.560   0.953   4.127 -0.1988  0.1755 -0.3002
  154MOL    C8649352   5.637   1.002   4.019  0.0350 -0.0557 -0.1116
  154MOL    C8749353   5.764   0.922   3.985 -0.1135  0.2712 -0.3525
  154MOL    C8849354   5.600   1.121   3.950  0.0083  0.1948 -0.2668
  154MOL    C8949355   5.483   1.186   3.992  0.6054 -0.1220 -0.2425
  154MOL    H9049356   5.231   1.174   4.215 -0.1525 -1.5336 -0.6125
  154MOL    H9149357   5.268   1.299   4.114 -0.3470  0.0606  1.2735
  154MOL    H9249358   5.358   0.956   4.214  2.2306 -0.8579  0.5147
  154MOL    H9349359   5.580   0.855   4.169  0.7234  0.8754  0.9107
  154MOL    H9449360   5.770   0.917   3.876 -0.2727 -0.6018 -0.3246
  154MOL    H9549361   5.753   0.815   4.005 -1.9406  0.9088  2.4111
  154MOL    H9649362   5.653   1.161   3.865  1.6283 -2.5355 -0.5936
  154MOL    H9749363   5.449   1.278   3.946  0.2196  0.0808  0.4282
  154MOL    C9849364   5.889   0.975   4.052 -0.4980  0.1990 -0.4519
  154MOL    C9949365   6.014   0.892   4.022  0.3496 -0.0646 -0.3410
  154MOL   C10049366   6.100   0.935   3.916 -0.6698  0.1801 -0.1268
  154MOL   C10149367   6.216   0.856   3.894 -0.3322 -0.1755  0.8342
  154MOL   C10249368   6.243   0.740   3.967  0.0693 -0.2054 -0.3869
  154MOL   C10349369   6.373   0.664   3.949  0.1199 -0.0321  1.0818
  154MOL   C10449370   6.149   0.688   4.062 -0.5349 -0.1126 -0.7391
  154MOL   C10549371   6.038   0.771   4.098  0.0947 -0.5061  0.7766
  154MOL   H10649372   5.872   0.989   4.159  2.0992  0.3140 -0.0272
  154MOL   H10749373   5.907   1.075   4.012 -0.3356 -0.4584 -2.0607
  154MOL   H10849374   6.086   1.027   3.862  2.4288  0.5308 -0.4493
  154MOL   H10949375   6.284   0.889   3.816 -1.0933 -0.1837  0.1636
  154MOL   H11049376   6.357   0.559   3.970 -3.5019  0.6469  2.1131
  154MOL   H11149377   6.400   0.673   3.844  0.8335  0.4258  1.2983
  154MOL   H11249378   6.177   0.603   4.123 -1.1419  2.2473  2.9528
  154MOL   H11349379   5.971   0.739   4.176 -0.6447 -0.3099  0.2288
  154MOL   C11449380   6.481   0.717   4.036  0.2142 -0.1729  0.4192
  154MOL   C11549381   6.613   0.647   4.027 -0.0581  0.0687 -0.0985
  154MOL   C11649382   6.698   0.669   3.917  0.1196 -0.3218  0.1304
  154MOL   C11749383   6.822   0.601   3.902  0.9033 -0.0788 -0.4752
  154MOL   C11849384   6.864   0.517   4.004 -0.3996  0.4459 -0.7365
  154MOL   C11949385   7.000   0.452   3.988  0.1302 -1.3161  0.9670
  154MOL   C12049386   6.774   0.482   4.109 -0.2971  0.1800  1.1351
  154MOL   C12149387   6.645   0.542   4.120  0.0255 -0.5111  0.2672
  154MOL   H12249388   6.462   0.714   4.143 -0.1720 -1.5517  0.3141
  154MOL   H12349389   6.493   0.821   4.004  1.6160 -1.1541 -2.4187
  154MOL   H12449390   6.668   0.744   3.845 -1.8578 -0.7954  0.4369
  154MOL   H12549391   6.877   0.621   3.811 -1.4364  1.2675 -1.6419
  154MOL   H12649392   6.980   0.345   3.995  0.1585 -1.3248  0.9161
  154MOL   H12749393   7.045   0.470   3.891 -1.9399 -3.7555 -0.5267
  154MOL   H12849394   6.802   0.408   4.182 -0.5852 -0.5339  0.5333
  154MOL   H12949395   6.580   0.509   4.200 -0.0301 -3.5180 -0.9611
  154MOL   C13049396   7.099   0.484   4.093  0.0508  0.6707 -0.4865
  154MOL   C13149397   7.229   0.404   4.099  0.2661 -0.4308 -0.1913
  154MOL   C13249398   7.347   0.463   4.051 -0.7933 -0.6488 -0.1937
  154MOL   C13349399   7.462   0.381   4.049 -0.1464  0.7284 -0.6834
  154MOL   C13449400   7.461   0.255   4.118 -0.7239  0.2614  0.3851
  154MOL   C13549401   7.591   0.167   4.128  0.4123 -0.1086  0.0618
  154MOL   C13649402   7.339   0.202   4.167 -0.0035  0.2926  0.4542
  154MOL   C13749403   7.226   0.268   4.143  0.6379  0.2862  0.9652
  154MOL   H13849404   7.058   0.460   4.192 -0.3671  0.6403 -0.6660
  154MOL   H13949405   7.123   0.591   4.093 -0.9224  0.9125  0.8956
  154MOL   H14049406   7.358   0.562   4.008  0.0027 -0.4039  0.5625
  154MOL   H14149407   7.563   0.402   4.019  0.2928 -1.1720 -0.6140
  154MOL   H14249408   7.665   0.240   4.161 -1.2364  1.9288 -0.6284
  154MOL   H14349409   7.577   0.095   4.208 -0.4878 -2.0976 -1.8473
  154MOL   H14449410   7.339   0.101   4.205 -2.3386 -0.1892 -0.7648
  154MOL   H14549411   7.130   0.222   4.163 -0.0950  0.9024 -1.0359
  154MOL   C14649412   7.641   0.099   3.997  0.1414 -0.4684 -0.1503
  154MOL   C14749413   7.777   0.025   4.008  0.0986 -0.4813 -0.3750
  154MOL   C14849414   7.813  -0.037   4.127  0.0519  0.0884  0.6181
  154MOL   C14949415   7.923  -0.122   4.130  0.4083 -0.1504 -0.3369
  154MOL   C15049416   8.014  -0.127   4.022  0.8269 -0.0196  0.0421
  154MOL   C15149417   8.138  -0.212   4.017 -0.5365 -0.5321 -0.2069
  154MOL   C15249418   7.983  -0.054   3.903  0.1424  0.3685 -0.1699
  154MOL   C15349419   7.866   0.027   3.895 -0.1028  0.1465 -0.8632
  154MOL   H15449420   7.645   0.168   3.913 -2.3089 -0.4349 -0.3008
  154MOL   H15549421   7.560   0.038   3.955 -2.4846  2.7225  0.0914
  154MOL   H15649422   7.753  -0.036   4.217  1.9865  2.3099  1.9365
  154MOL   H15749423   7.929  -0.183   4.219 -2.6080  0.3505  0.2553
  154MOL   H15849424   8.105  -0.310   4.052 -2.0241 -1.1847 -3.2768
  154MOL   H15949425   8.181  -0.221   3.918  1.4236 -2.9435  0.8112
  154MOL   H16049426   8.048  -0.052   3.817 -1.0479 -0.3233 -1.1000
  154MOL   H16149427   7.828   0.086   3.813  0.8178 -0.0628 -1.4440
  154MOL   C16249428   8.253  -0.157   4.107  1.0406 -1.5825  0.6689
  154MOL   C16349429   8.384  -0.232   4.099 -0.2203  0.2372 -0.2525
  154MOL   C16449430   8.405  -0.353   4.169  0.1332  0.0185  0.0558
  154MOL   C16549431   8.518  -0.431   4.144 -0.8561 -0.0876 -0.4258
  154MOL   C16649432   8.620  -0.381   4.062  1.0162 -0.3691 -0.1666
  154MOL   C16749433   8.747  -0.462   4.045  0.2429 -0.2263  0.0383
  154MOL   C16849434   8.600  -0.263   3.992 -0.3422  0.0070  0.1262
  154MOL   C16949435   8.483  -0.187   4.006 -0.1248  0.1142 -0.3680
  154MOL   H17049436   8.212  -0.156   4.208  0.7115  1.2305  0.5339
  154MOL   H17149437   8.278  -0.054   4.083  2.7427 -1.9939  0.5845
  154MOL   H17249438   8.323  -0.389   4.229 -0.0209 -1.2150 -0.8864
  154MOL   H17349439   8.533  -0.529   4.186 -1.7151  0.3440  0.9062
  154MOL   H17449440   8.716  -0.566   4.055  0.9280 -0.4450 -0.0594
  154MOL   H17549441   8.792  -0.440   3.948 -0.9488  0.6941 -0.3190
  154MOL   H17649442   8.680  -0.236   3.925  0.4675 -0.8573  0.7251
  154MOL   H17749443   8.463  -0.096   3.951  1.3535  1.1251  0.7650
  154MOL   C17849444   8.865  -0.423   4.147 -0.1769 -0.1990 -0.2171
  154MOL   C17949445   8.854  -0.487   4.283 -0.0287 -0.4573  0.1455
  154MOL   C18049446   8.907  -0.617   4.288 -0.7639 -0.2494 -0.2269
  154MOL   C18149447   8.890  -0.685   4.406  0.9891  0.0648 -0.1328
  154MOL   C18249448   8.811  -0.632   4.513  0.7010  0.6376  0.7175
  154MOL   C18349449   8.799  -0.713   4.645 -0.6644 -0.6869 -0.1598
  154MOL   C18449450   8.772  -0.490   4.506 -0.2534  0.4306 -0.1401
  154MOL   C18549451   8.803  -0.415   4.389  0.3331 -0.1523 -0.0999
  154MOL   H18649452   8.864  -0.315   4.161 -2.1958  0.0003 -1.5915
  154MOL   H18749453   8.963  -0.455   4.111  1.0195 -0.7752  3.3642
  154MOL   H18849454   8.960  -0.662   4.205  1.4178  2.4037 -0.3182
  154MOL   H18949455   8.936  -0.782   4.421 -3.4985 -1.6446  3.7504
  154MOL   H19049456   8.897  -0.753   4.671  0.4809  1.5448 -0.9010
  154MOL   H19149457   8.769  -0.631   4.711  2.0816  0.7853 -0.6939
  154MOL   H19249458   8.737  -0.441   4.596 -0.2190  0.5201 -0.1752
  154MOL   H19349459   8.772  -0.313   4.372  2.8882  0.3455 -1.9514
  154MOL   C19449460   8.693  -0.825   4.630 -0.0885  1.0055 -0.1276
  154MOL   C19549461   8.546  -0.781   4.627  0.9913  0.2857 -0.1729
  154MOL   C19649462   8.466  -0.780   4.740 -0.1726  0.6965  0.1545
  154MOL   C19749463   8.335  -0.727   4.737  0.4296 -0.2984  0.7494
  154MOL   C19849464   8.280  -0.686   4.613  0.3391 -0.5670 -0.1377
  154MOL   C19949465   8.136  -0.630   4.608  0.0453 -0.7511 -0.4568
  154MOL   C20049466   8.357  -0.689   4.497 -0.5209  0.1238  0.1865
  154MOL   C20149467   8.490  -0.734   4.508  0.5336  0.8612 -0.3132
  154MOL   H20249468   8.702  -0.878   4.725  0.0512  0.8565 -0.2232
  154MOL   H20349469   8.714  -0.893   4.547  1.5762 -1.9385  2.6007
  154MOL   H20449470   8.501  -0.800   4.840 -0.1838  2.0932  0.4532
  154MOL   H20549471   8.280  -0.724   4.830  1.5431 -2.3071  1.5189
  154MOL   H20649472   8.131  -0.545   4.540  0.5408 -0.6077 -0.3106
  154MOL   H20749473   8.060  -0.699   4.570 -2.5305  1.7843 -0.0256
  154MOL   H20849474   8.311  -0.641   4.412  1.5659  1.5919 -0.1441
  154MOL   H20949475   8.555  -0.730   4.422 -0.7724 -3.3453 -1.6218
  154MOL   C21049476   8.080  -0.583   4.742  0.3467  0.5993 -0.5636
  154MOL   C21149477   7.946  -0.511   4.725  0.4729 -0.1305  1.2759
  154MOL   C21249478   7.833  -0.584   4.677  0.7461 -0.3062  0.1893
  154MOL   C21349479   7.708  -0.526   4.676  0.0314 -0.2157 -0.5927
  154MOL   C21449480   7.697  -0.385   4.699  0.0266 -0.3787 -0.1654
  154MOL   C21549481   7.558  -0.333   4.685 -0.1348  0.3130  0.1138
  154MOL   C21649482   7.806  -0.312   4.745  0.4937 -0.3512  0.6800
  154MOL   C21749483   7.935  -0.373   4.756  0.3469  0.0239 -0.9621
  154MOL   H21849484   8.146  -0.522   4.804  0.8379 -0.0921 -0.3885
  154MOL   H21949485   8.058  -0.671   4.803 -1.3308  1.5267  0.2022
  154MOL   H22049486   7.846  -0.688   4.651  0.0656  0.4317 -3.3760
  154MOL   H22149487   7.621  -0.585   4.651  0.2905 -0.5537 -0.7034
  154MOL   H22249488   7.567  -0.225   4.670  1.2903  0.4471  1.8501
  154MOL   H22349489   7.504  -0.387   4.607 -3.0862 -0.6446  2.7020
  154MOL   H22449490   7.781  -0.211   4.773  0.5794 -0.3103  0.6114
  154MOL   H22549491   8.021  -0.330   4.805  0.7776  0.1492 -1.8030
  154MOL   C22649492   7.488  -0.342   4.814  0.4776  0.9210  0.3026
  154MOL   C22749493   7.331  -0.313   4.807 -0.1362  0.0892 -0.3642
  154MOL   C22849494   7.291  -0.178   4.789 -0.4051  1.1100 -0.2939
  154MOL   C22949495   7.154  -0.148   4.778 -0.5848  0.3322 -0.1857
  154MOL   C23049496   7.059  -0.248   4.790 -0.2199  0.0863  0.1892
  154MOL   C23149497   6.911  -0.210   4.798 -1.0346 -0.4063  0.2979
  154MOL   C23249498   7.100  -0.382   4.795  0.3633 -0.0332  0.1384
  154MOL   C23349499   7.235  -0.416   4.807  0.0787  0.2562  0.4768
  154MOL   H23449500   7.524  -0.270   4.887  4.6353 -0.5980 -0.1469
  154MOL   H23549501   7.503  -0.439   4.861 -0.5138  0.2814 -0.6680
  154MOL   H23649502   7.365  -0.100   4.795  0.3260  0.4714 -0.8071
  154MOL   H23749503   7.118  -0.047   4.771 -0.1080  0.3389 -2.9716
  154MOL   H23849504   6.921  -0.107   4.764  0.9720 -0.1609  1.5095
  154MOL   H23949505   6.835  -0.261   4.739 -1.2250  0.8732 -0.5876
  154MOL   H24049506   7.031  -0.463   4.811 -1.9972  1.8126 -0.3951
  154MOL   H24149507   7.258  -0.519   4.831  1.9207  0.5167 -0.0503
  154MOL   C24249508   6.857  -0.210   4.950  0.3411  0.2591  0.0809
  154MOL   C24349509   6.714  -0.163   4.957 -0.6647 -0.6351 -0.2591
  154MOL   C24449510   6.675  -0.031   4.971 -0.0170 -0.5902 -0.4276
  154MOL   C24549511   6.537  -0.005   4.983  0.4776 -0.0200 -0.5105
  154MOL   C24649512   6.442  -0.106   4.987 -0.0076 -0.4776  0.2824
  154MOL   C24749513   6.291  -0.068   4.998 -0.0190 -0.1949 -0.4736
  154MOL   C24849514   6.479  -0.237   4.956 -0.1244 -0.1035  0.3470
  154MOL   C24949515   6.619  -0.263   4.948 -0.2088 -0.4395  0.6099
  154MOL   H25049516   6.862  -0.309   4.996 -1.5953  0.4162  0.7137
  154MOL   H25149517   6.913  -0.149   5.021 -1.7001  0.5518  1.5052
  154MOL   H25249518   6.743   0.052   4.981  0.6341 -0.9611 -1.6030
  154MOL   H25349519   6.503   0.097   4.994 -1.1974 -0.5068 -0.9101
  154MOL   H25449520   6.266   0.020   4.939 -1.0364 -1.3556 -1.7979
  154MOL   H25549521   6.228  -0.151   4.968  0.1756 -0.5083 -0.0221
  154MOL   H25649522   6.410  -0.318   4.979  1.3812 -1.9089 -1.3509
  154MOL   H25749523   6.661  -0.359   4.922 -2.0627 -0.9533 -0.5395
  154MOL   C25849524   6.259  -0.047   5.151  0.1761 -0.1248  0.9462
  154MOL   C25949525   6.112  -0.026   5.173  0.3938 -0.2071  0.0675
  154MOL   C26049526   6.030  -0.130   5.217  0.5584  0.6935  0.1540
  154MOL   C26149527   5.897  -0.113   5.259 -0.3534  0.2924 -0.3015
  154MOL   C26249528   5.855   0.019   5.267  0.2837  0.0595 -0.0410
  154MOL   C26349529   5.716   0.046   5.330  0.1537 -0.5966 -0.0830
  154MOL   C26449530   5.924   0.128   5.205  0.4964 -0.4161 -0.1927
  154MOL   C26549531   6.054   0.099   5.160 -0.2257 -0.1573 -0.0129
  154MOL   H26649532   6.321   0.025   5.204  1.5060  0.1264 -0.9308
  154MOL   H26749533   6.284  -0.146   5.190 -1.3038 -0.8982 -0.0087
  154MOL   H26849534   6.079  -0.224   5.239  0.3937  0.5267 -0.1939
  154MOL   H26949535   5.838  -0.197   5.291 -0.8040  0.8078  0.2395
  154MOL   H27049536   5.696  -0.032   5.404 -0.1659 -0.1745  0.2762
  154MOL   H27149537   5.711   0.141   5.383 -1.9937 -0.5070 -0.4318
  154MOL   H27249538   5.878   0.226   5.204  0.8480 -0.1112  3.7882
  154MOL   H27349539   6.112   0.184   5.127 -3.5893  2.0441 -0.5013
  154MOL   C27449540   5.607   0.042   5.223  0.2278  0.0674 -0.4276
  154MOL   C27549541   5.466   0.021   5.284  0.6337 -0.5637 -0.1038
  154MOL   C27649542   5.410   0.119   5.367 -0.4303  0.7841 -0.5312
  154MOL   C27749543   5.283   0.101   5.435 -0.2170 -0.5007  0.4690
  154MOL   C27849544   5.205  -0.012   5.405 -0.7201  0.5778 -0.4174
  154MOL   C27949545   5.062  -0.016   5.462 -0.1544  0.0248  0.2750
  154MOL   C28049546   5.257  -0.109   5.318 -0.6569 -0.2567  1.4571
  154MOL   C28149547   5.386  -0.092   5.256 -0.0504 -0.1326  0.0804
  154MOL   H28249548   5.627   0.131   5.162  1.0981  0.5672  0.5639
  154MOL   H28349549   5.623  -0.043   5.156  1.2075 -1.4519  1.6931
  154MOL   H28449550   5.479   0.200   5.387  1.0396 -0.9299  1.4846
  154MOL   H28549551   5.247   0.170   5.510 -1.4257 -0.5376 -0.0663
  154MOL   H28649552   5.011  -0.100   5.415 -0.5533  0.4807 -0.1083
  154MOL   H28749553   5.070  -0.034   5.570 -0.3217 -1.8947 -0.0087
  154MOL   H28849554   5.193  -0.195   5.302 -2.1023  1.1326 -0.3686
  154MOL   H28949555   5.427  -0.170   5.194  0.8515 -1.6531  2.4882
  154MOL   C29049556   4.993   0.107   5.418  0.2757 -0.3126  0.3168
  154MOL   C29149557   4.852   0.108   5.487 -0.1380  0.8010  0.4546
  154MOL   C29249558   4.736   0.122   5.403  0.3688  0.1005 -0.3112
  154MOL   C29349559   4.606   0.129   5.456 -0.3565 -0.1596 -0.0550
  154MOL   C29449560   4.589   0.123   5.595  1.0105  0.5792  0.2828
  154MOL   C29549561   4.445   0.138   5.663 -0.3822 -1.2464  0.5789
  154MOL   C29649562   4.701   0.106   5.674  0.7992 -0.5421  0.6503
  154MOL   C29749563   4.831   0.094   5.623 -0.5078  0.8141  0.8725
  154MOL   H29849564   4.979   0.114   5.310  0.7566 -0.8088  0.2177
  154MOL   H29949565   5.030   0.205   5.448  0.8009  0.7006 -3.3789
  154MOL   H30049566   4.743   0.122   5.295 -0.5220 -0.9043 -0.3751
  154MOL   H30149567   4.518   0.134   5.394 -0.6462 -1.8573  0.1940
  154MOL   H30249568   4.374   0.087   5.599  0.0058 -0.8541 -0.1782
  154MOL   H30349569   4.436   0.089   5.759  0.3118 -1.0810  0.7325
  154MOL   H30449570   4.672   0.098   5.778  0.5391  0.7761  0.6888
  154MOL   H30549571   4.916   0.084   5.688  2.0695  1.8280 -2.1707
  154MOL   C30649572   4.399   0.286   5.673 -0.2991 -0.4084  0.0728
  154MOL   C30749573   4.250   0.294   5.715  0.6872 -0.1327  0.5711
  154MOL   C30849574   4.145   0.314   5.621 -0.0281 -0.3111 -0.0646
  154MOL   C30949575   4.016   0.338   5.668  0.4138 -0.1625  0.4042
  154MOL   C31049576   3.990   0.348   5.804 -0.7190 -0.7567  0.1433
  154MOL   C31149577   3.858   0.395   5.845  0.6865 -0.1635 -0.7504
  154MOL   C31249578   4.088   0.312   5.897 -0.5274 -0.3497  0.2680
  154MOL   C31349579   4.215   0.277   5.852  0.7229 -0.0399 -0.0424
  154MOL   H31449580   4.416   0.349   5.586  1.1323 -0.3451  0.3869
  154MOL   H31549581   4.450   0.322   5.763  3.4634 -0.3572 -2.0169
  154MOL   H31649582   4.166   0.305   5.516  0.8574 -1.7510  0.2280
  154MOL   H31749583   3.932   0.354   5.602 -0.0399  1.7905  1.4037
  154MOL   H31849584   3.830   0.493   5.806 -2.4325 -0.6304  0.1460
  154MOL   H31949585   3.795   0.314   5.807 -0.7432  1.0298 -0.9590
  154MOL   H32049586   4.067   0.304   6.002 -0.2781  1.0025  0.4336
  154MOL   H32149587   4.297   0.259   5.919  0.4983 -1.4590 -0.1364
  154MOL   H32249588   3.848   0.383   5.953  1.1613  0.9953 -0.5736
  155MOL     C149589   3.470   4.248   1.451  0.2110  0.1788 -0.3490
  155MOL     C249590   3.581   4.163   1.386  0.0172 -0.8350  0.1868
  155MOL     C349591   3.688   4.226   1.328  0.4742  0.2109  0.2288
  155MOL     C449592   3.774   4.158   1.252 -0.1202 -0.0563  1.0261
  155MOL     C549593   3.758   4.022   1.231 -0.5830  0.7796 -0.1961
  155MOL     C649594   3.855   3.946   1.144 -0.3783 -0.3153 -0.1373
  155MOL     C749595   3.645   3.954   1.290  0.4188  0.0760  0.6699
  155MOL     C849596   3.554   4.028   1.366  0.5302 -0.2133  0.2651
  155MOL     H949597   3.384   4.273   1.389 -1.0285 -2.5187  0.2100
  155MOL    H1049598   3.445   4.194   1.543 -0.8765  0.0718 -0.6900
  155MOL    H1149599   3.703   4.332   1.340 -2.0430  0.4396  1.6718
  155MOL    H1249600   3.855   4.204   1.198 -0.3291 -0.1469  0.6329
  155MOL    H1349601   3.806   3.895   1.061 -1.6629  0.0244  0.4097
  155MOL    H1449602   3.919   4.017   1.091 -1.0375  0.5923  0.2793
  155MOL    H1549603   3.635   3.848   1.274  0.8458  0.4399 -2.4804
  155MOL    H1649604   3.471   3.985   1.421 -0.4741 -0.0027 -1.0722
  155MOL    H1749605   3.514   4.344   1.476  0.3057  0.4965 -1.6810
  155MOL    C1849606   3.943   3.836   1.211 -0.0651  0.3685  0.6605
  155MOL    C1949607   4.051   3.773   1.122  0.0151 -0.1188 -0.0848
  155MOL    C2049608   4.018   3.662   1.048 -0.2879  0.7709  0.4860
  155MOL    C2149609   4.106   3.587   0.965  0.6695 -0.0308 -0.1294
  155MOL    C2249610   4.238   3.639   0.941 -0.0985 -0.7509  0.3161
  155MOL    C2349611   4.335   3.571   0.845  0.3293 -0.0146 -0.0304
  155MOL    C2449612   4.281   3.749   1.022 -0.0563  0.8833 -0.3188
  155MOL    C2549613   4.187   3.825   1.107  0.4667 -0.2839 -0.4427
  155MOL    H2649614   3.989   3.899   1.287  1.9279 -1.3004  0.8669
  155MOL    H2749615   3.899   3.765   1.280  2.8619 -1.9499  0.2334
  155MOL    H2849616   3.917   3.624   1.049  0.8346 -2.3846 -0.5908
  155MOL    H2949617   4.069   3.504   0.906 -1.0894  1.8142 -1.7079
  155MOL    H3049618   4.421   3.621   0.801  0.0015  1.3933  0.9182
  155MOL    H3149619   4.275   3.540   0.760 -0.8660 -1.1597  1.2056
  155MOL    H3249620   4.380   3.789   1.014  2.2736 -3.5003  3.6602
  155MOL    H3349621   4.226   3.914   1.153 -0.1723 -0.6516  0.8228
  155MOL    C3449622   4.386   3.446   0.919  0.4252  0.2557 -0.4743
  155MOL    C3549623   4.504   3.383   0.845 -0.2458  0.1032 -0.8309
  155MOL    C3649624   4.486   3.295   0.737  0.6768  0.3265  0.1648
  155MOL    C3749625   4.601   3.239   0.676 -0.0273  0.5959 -0.2976
  155MOL    C3849626   4.734   3.275   0.725 -0.6052 -0.3279  0.0531
  155MOL    C3949627   4.864   3.217   0.656 -0.0188  0.2618 -0.2181
  155MOL    C4049628   4.747   3.370   0.828  0.3658  0.0911  0.0272
  155MOL    C4149629   4.632   3.425   0.889 -0.0613 -0.0470 -0.1809
  155MOL    H4249630   4.307   3.373   0.934  0.0441  0.4020 -1.6975
  155MOL    H4349631   4.416   3.466   1.021  3.0701 -1.6692 -0.8340
  155MOL    H4449632   4.383   3.299   0.704  0.7534 -0.0567 -0.1200
  155MOL    H4549633   4.586   3.165   0.598 -4.3823  0.4161  0.5685
  155MOL    H4649634   4.917   3.300   0.609 -0.4191  0.5346 -0.1924
  155MOL    H4749635   4.917   3.171   0.739 -1.9187 -2.8569 -0.6601
  155MOL    H4849636   4.842   3.416   0.853 -1.0350  2.2568  1.5818
  155MOL    H4949637   4.640   3.504   0.962  0.0706 -0.8200  0.6459
  155MOL    C5049638   4.833   3.112   0.549  0.2033  0.4141  0.2526
  155MOL    C5149639   4.961   3.052   0.493 -0.0849  0.0624  0.2523
  155MOL    C5249640   5.032   3.121   0.398 -0.2928 -0.1303  0.0436
  155MOL    C5349641   5.150   3.064   0.350 -0.5168 -0.1992 -0.9318
  155MOL    C5449642   5.199   2.945   0.399 -0.4574  0.0440 -0.9246
  155MOL    C5549643   5.325   2.884   0.341  0.2213 -0.1485  0.6469
  155MOL    C5649644   5.130   2.875   0.501 -0.1846 -0.5024 -0.0506
  155MOL    C5749645   5.012   2.931   0.544 -0.1489 -0.6026  0.4375
  155MOL    H5849646   4.779   3.164   0.470 -0.9621 -0.2783  0.5869
  155MOL    H5949647   4.763   3.040   0.591 -0.9356  0.6159 -1.2397
  155MOL    H6049648   4.999   3.215   0.358  2.0016  0.6349 -0.1375
  155MOL    H6149649   5.210   3.119   0.280 -0.0783 -0.7428 -0.9850
  155MOL    H6249650   5.358   2.805   0.409 -0.3569 -0.2301  0.8409
  155MOL    H6349651   5.289   2.840   0.248 -0.2414  1.3787  0.0827
  155MOL    H6449652   5.163   2.778   0.537  0.6584 -0.0623  0.3733
  155MOL    H6549653   4.940   2.887   0.611  0.4428  0.2031  1.6173
  155MOL    C6649654   5.444   2.981   0.339  0.7583 -0.1850  0.0947
  155MOL    C6749655   5.577   2.929   0.292  0.3691 -0.4575 -0.8534
  155MOL    C6849656   5.614   2.911   0.158  0.1274 -0.0202  0.3425
  155MOL    C6949657   5.741   2.853   0.127 -0.0239  0.1936  0.2664
  155MOL    C7049658   5.825   2.812   0.237 -0.8818  0.5762 -0.0617
  155MOL    C7149659   5.962   2.755   0.206  0.0616  0.8040  1.1334
  155MOL    C7249660   5.784   2.822   0.370  0.2888  0.0194 -0.2619
  155MOL    C7349661   5.662   2.877   0.394 -0.8318  1.4137 -0.9540
  155MOL    H7449662   5.444   3.014   0.443  0.1059  0.6551 -0.1641
  155MOL    H7549663   5.428   3.069   0.276  0.8349  0.0135  0.3532
  155MOL    H7649664   5.550   2.952   0.081  0.8353  3.4709  1.5052
  155MOL    H7749665   5.765   2.841   0.023 -1.0859  0.4825 -0.0153
  155MOL    H7849666   5.958   2.700   0.112  4.0193 -0.9697  1.8989
  155MOL    H7949667   5.994   2.687   0.285  0.0882 -0.7332 -0.1744
  155MOL    H8049668   5.855   2.790   0.444 -0.2456 -2.1759 -0.6434
  155MOL    H8149669   5.635   2.890   0.498 -0.0355  0.5140 -0.6270
  155MOL    C8249670   6.078   2.859   0.178  0.0225  0.5069 -0.0444
  155MOL    C8349671   6.208   2.789   0.157 -0.1241  0.6845 -0.4840
  155MOL    C8449672   6.304   2.779   0.263  0.3076 -0.3615  0.0922
  155MOL    C8549673   6.422   2.715   0.234 -0.0237  0.4446 -0.4965
  155MOL    C8649674   6.448   2.645   0.117  0.5800  0.1789  1.2297
  155MOL    C8749675   6.577   2.579   0.089 -0.5466 -0.6685  0.7631
  155MOL    C8849676   6.357   2.657   0.009  0.4487  0.0811  0.1468
  155MOL    C8949677   6.233   2.724   0.034  0.0420 -0.1618 -0.0919
  155MOL    H9049678   6.077   2.931   0.260 -0.7513  1.3058 -0.7499
  155MOL    H9149679   6.053   2.911   0.086 -0.6658 -0.5980 -0.4943
  155MOL    H9249680   6.285   2.839   0.350 -1.9331 -1.7945  0.6476
  155MOL    H9349681   6.498   2.696   0.309 -0.4574  0.4578 -0.0508
  155MOL    H9449682   6.574   2.519  -0.002 -1.2849  0.4941  0.0025
  155MOL    H9549683   6.595   2.511   0.172 -0.2371 -2.0335 -0.4016
  155MOL    H9649684   6.383   2.612  -0.086  1.0529 -2.6698  1.5815
  155MOL    H9749685   6.156   2.734  -0.041  0.1837 -2.2040 -0.5501
  155MOL    C9849686   6.689   2.675   0.080 -0.2690 -0.0546 -0.7252
  155MOL    C9949687   6.819   2.601   0.051 -0.2148  0.5618 -0.5565
  155MOL   C10049688   6.842   2.542  -0.071 -0.2836  0.3211  0.1153
  155MOL   C10149689   6.956   2.460  -0.091  0.4963 -0.1581 -0.1298
  155MOL   C10249690   7.060   2.457   0.009 -0.0121 -0.4698 -0.1540
  155MOL   C10349691   7.187   2.381  -0.014 -0.2577 -0.0633 -0.0945
  155MOL   C10449692   7.041   2.528   0.125  0.0873  0.1672 -0.4130
  155MOL   C10549693   6.922   2.599   0.147  0.2131  0.0961  0.4321
  155MOL   H10649694   6.707   2.740   0.166  3.5474  0.8789 -2.1375
  155MOL   H10749695   6.669   2.749   0.002 -1.0245  1.8030  1.1437
  155MOL   H10849696   6.779   2.558  -0.157 -1.2538 -0.4985  0.6558
  155MOL   H10949697   6.974   2.418  -0.189 -0.8605 -0.5164 -0.2256
  155MOL   H11049698   7.242   2.352   0.075 -1.5898  1.5306  1.2830
  155MOL   H11149699   7.161   2.290  -0.068  1.3490  0.0665 -1.0974
  155MOL   H11249700   7.111   2.532   0.207 -0.2534 -0.2257 -0.0937
  155MOL   H11349701   6.893   2.644   0.240 -1.4175  0.0209 -0.0203
  155MOL   C11449702   7.281   2.468  -0.097 -0.5808 -0.4091 -0.5634
  155MOL   C11549703   7.410   2.405  -0.132  0.4760  0.2201  0.1531
  155MOL   C11649704   7.510   2.415  -0.035 -1.1776 -0.1929 -0.4075
  155MOL   C11749705   7.629   2.344  -0.054 -0.1009  0.4257 -0.2912
  155MOL   C11849706   7.658   2.271  -0.170 -0.2433  0.1228 -0.1391
  155MOL   C11949707   7.781   2.191  -0.184 -0.0020  0.1558  0.6682
  155MOL   C12049708   7.554   2.272  -0.278 -0.2275  0.2952 -0.2492
  155MOL   C12149709   7.432   2.341  -0.256  0.9917 -0.2157 -0.0750
  155MOL   H12249710   7.287   2.557  -0.035 -0.6960 -0.5541 -0.3441
  155MOL   H12349711   7.230   2.501  -0.188  0.4934 -0.2696 -1.1132
  155MOL   H12449712   7.489   2.469   0.056  0.4769  0.1545 -0.2187
  155MOL   H12549713   7.709   2.345   0.019  0.1482 -0.2959 -0.5539
  155MOL   H12649714   7.821   2.146  -0.094 -0.1144 -1.9074 -0.2755
  155MOL   H12749715   7.761   2.106  -0.250  2.9032  1.5567 -2.1599
  155MOL   H12849716   7.568   2.219  -0.371  2.6129  2.1942 -0.9652
  155MOL   H12949717   7.343   2.343  -0.317  0.5448  1.8814  0.5882
  155MOL   C13049718   7.887   2.273  -0.259  0.4259  0.1884 -0.5185
  155MOL   C13149719   8.018   2.201  -0.264  0.1799  0.3866 -0.7955
  155MOL   C13249720   8.125   2.242  -0.178  0.5341  0.2223 -0.4995
  155MOL   C13349721   8.248   2.172  -0.191  0.2800 -0.4422  0.4579
  155MOL   C13449722   8.265   2.059  -0.275  0.2915  0.5157 -0.0028
  155MOL   C13549723   8.397   1.987  -0.282  0.3235  0.3761 -0.6408
  155MOL   C13649724   8.157   2.022  -0.360 -0.3328 -1.1128 -0.0509
  155MOL   C13749725   8.033   2.093  -0.356  0.5979  0.7092  0.3190
  155MOL   H13849726   7.885   2.375  -0.221 -2.8698 -0.8179  2.2744
  155MOL   H13949727   7.849   2.294  -0.359 -3.4267 -0.7057  0.6702
  155MOL   H14049728   8.112   2.315  -0.100  1.8423 -0.4644  0.3955
  155MOL   H14149729   8.330   2.191  -0.123  1.7839  1.4034 -1.8208
  155MOL   H14249730   8.455   2.006  -0.192 -0.6714  1.5461 -0.2335
  155MOL   H14349731   8.380   1.880  -0.294 -1.3718  0.3949  1.3213
  155MOL   H14449732   8.161   1.936  -0.424  0.9817 -0.5785 -0.7138
  155MOL   H14549733   7.950   2.055  -0.414  1.9432  0.8646 -1.7476
  155MOL   C14649734   8.488   2.052  -0.386 -0.5593 -0.3959 -1.0524
  155MOL   C14749735   8.623   1.989  -0.389 -0.3002 -0.2217  0.3953
  155MOL   C14849736   8.731   2.063  -0.349 -0.2316 -0.3491  0.1948
  155MOL   C14949737   8.864   2.010  -0.361 -0.2932  0.0474  0.1332
  155MOL   C15049738   8.874   1.876  -0.404 -0.0110 -0.4802  0.7611
  155MOL   C15149739   9.017   1.815  -0.402 -0.1739 -0.9681  0.6331
  155MOL   C15249740   8.763   1.803  -0.453 -1.0551 -0.1440  0.0316
  155MOL   C15349741   8.633   1.856  -0.441 -0.8845  0.4704  0.3490
  155MOL   H15449742   8.497   2.153  -0.347 -1.6387 -0.3164 -1.0080
  155MOL   H15549743   8.447   2.043  -0.486  1.0212 -3.1828 -1.4910
  155MOL   H15649744   8.708   2.167  -0.331 -1.2849 -0.1648 -1.9861
  155MOL   H15749745   8.955   2.063  -0.341  0.2858  0.4119 -3.1971
  155MOL   H15849746   9.040   1.813  -0.295 -0.9863 -0.3131  0.8279
  155MOL   H15949747   9.025   1.727  -0.465  3.4590  0.4623 -1.0797
  155MOL   H16049748   8.769   1.698  -0.480 -0.6678  0.5876 -2.9318
  155MOL   H16149749   8.546   1.807  -0.482 -2.5647  2.1358  1.8540
  155MOL   C16249750   9.126   1.903  -0.475  0.0482  0.5575  0.6227
  155MOL   C16349751   9.252   1.821  -0.497  0.0428 -0.3989  0.0837
  155MOL   C16449752   9.254   1.728  -0.599 -0.3686  0.7638 -0.8688
  155MOL   C16549753   9.374   1.657  -0.618 -0.0976 -0.3370  0.7542
  155MOL   C16649754   9.485   1.678  -0.533  0.0917  0.0491  0.0605
  155MOL   C16749755   9.610   1.601  -0.554  0.0186  0.4645 -0.1245
  155MOL   C16849756   9.475   1.769  -0.423  0.1061 -0.7803 -0.2456
  155MOL   C16949757   9.361   1.847  -0.412  0.8655 -0.4220 -0.4740
  155MOL   H17049758   9.149   1.987  -0.410 -0.3912  0.4658  0.9051
  155MOL   H17149759   9.089   1.928  -0.574  1.0144 -1.6223 -0.3394
  155MOL   H17249760   9.172   1.716  -0.667  0.3661  4.9968 -2.6553
  155MOL   H17349761   9.389   1.588  -0.699 -0.6765  1.0933 -0.6087
  155MOL   H17449762   9.636   1.573  -0.452 -0.0537 -0.8374 -0.4514
  155MOL   H17549763   9.597   1.506  -0.607  0.3736  0.4815 -0.2448
  155MOL   H17649764   9.566   1.784  -0.366  2.4408 -2.2592 -3.4232
  155MOL   H17749765   9.348   1.925  -0.338 -0.2765  1.8412 -2.9387
  155MOL   C17849766   9.730   1.682  -0.609  0.2447 -0.3284  0.0664
  155MOL   C17949767   9.857   1.604  -0.637 -0.1986 -0.1952  0.9436
  155MOL   C18049768   9.974   1.634  -0.562  0.4346  0.2384 -0.1884
  155MOL   C18149769  10.087   1.561  -0.569  0.0702 -0.2811 -0.2407
  155MOL   C18249770  10.100   1.462  -0.670  0.0945 -0.5191 -0.1994
  155MOL   C18349771  10.226   1.377  -0.674 -0.3787  0.2492 -0.7850
  155MOL   C18449772   9.983   1.428  -0.744  0.4504 -0.3654  0.1870
  155MOL   C18549773   9.862   1.501  -0.732  0.4022 -0.2074 -0.8360
  155MOL   H18649774   9.765   1.759  -0.541 -0.3427  1.1284 -1.2571
  155MOL   H18749775   9.705   1.747  -0.693 -2.2505  0.9287  1.7015
  155MOL   H18849776   9.956   1.695  -0.475 -2.0824 -1.4764  0.5734
  155MOL   H18949777  10.172   1.579  -0.505 -1.5473  2.0366  1.3448
  155MOL   H19049778  10.257   1.333  -0.579 -2.3498  0.5064 -0.0112
  155MOL   H19149779  10.199   1.301  -0.748 -0.8041 -0.7432  0.3817
  155MOL   H19249780   9.993   1.357  -0.825 -0.9899 -1.3237  0.8340
  155MOL   H19349781   9.779   1.471  -0.795 -0.0056 -1.7050  0.3883
  155MOL   C19449782  10.344   1.469  -0.722 -1.0020  0.1799 -0.6329
  155MOL   C19549783  10.475   1.392  -0.732  0.0300  0.1879 -0.5871
  155MOL   C19649784  10.484   1.293  -0.829 -0.3498  0.2790 -0.0790
  155MOL   C19749785  10.606   1.222  -0.825  1.1277 -0.2823 -0.1591
  155MOL   C19849786  10.717   1.249  -0.740  0.0816 -0.2168  0.1639
  155MOL   C19949787  10.844   1.172  -0.757 -0.3470 -0.0292 -0.4997
  155MOL   C20049788  10.700   1.352  -0.646 -0.1521  0.1605 -0.0766
  155MOL   C20149789  10.577   1.419  -0.639  0.0029 -0.1736 -0.3078
  155MOL   H20249790  10.342   1.563  -0.667 -1.5504  0.4121 -1.0461
  155MOL   H20349791  10.316   1.509  -0.820  0.2460 -1.2421 -1.5948
  155MOL   H20449792  10.418   1.278  -0.912  1.5469  1.7706 -1.8987
  155MOL   H20549793  10.612   1.149  -0.904  1.4036 -1.8550  1.3106
  155MOL   H20649794  10.885   1.170  -0.655 -1.1105  0.2117 -0.1896
  155MOL   H20749795  10.827   1.072  -0.797  0.6208 -0.2550 -0.3836
  155MOL   H20849796  10.774   1.381  -0.573 -1.6831  2.2860  0.6981
  155MOL   H20949797  10.568   1.490  -0.559 -0.0106 -2.7466  2.0538
  155MOL   C21049798  10.934   1.255  -0.847  0.3937  0.5087  0.4209
  155MOL   C21149799  11.065   1.184  -0.871 -0.3289  0.2694  0.4581
  155MOL   C21249800  11.096   1.110  -0.988  0.0905 -0.3149  0.2747
  155MOL   C21349801  11.221   1.038  -1.010  0.8683 -0.0838 -0.0897
  155MOL   C21449802  11.314   1.042  -0.905 -0.5601 -0.0027 -0.0438
  155MOL   C21549803  11.434   0.953  -0.920  0.0112  0.5699 -0.3423
  155MOL   C21649804  11.291   1.121  -0.792 -0.5528 -0.1944  0.5426
  155MOL   C21749805  11.166   1.189  -0.774 -0.1630 -0.0326 -0.1619
  155MOL   H21849806  10.955   1.355  -0.808  1.9221  0.2626  0.2569
  155MOL   H21949807  10.874   1.270  -0.936  0.8447 -1.2734 -0.2048
  155MOL   H22049808  11.025   1.109  -1.070  0.1110 -1.2725  0.2550
  155MOL   H22149809  11.230   0.970  -1.094  0.0985 -0.9194  0.4968
  155MOL   H22249810  11.459   0.931  -0.816 -2.4978 -0.1842  0.1439
  155MOL   H22349811  11.399   0.858  -0.960 -0.0873  0.3378  0.2908
  155MOL   H22449812  11.357   1.139  -0.708 -2.9002  1.6027  2.0542
  155MOL   H22549813  11.156   1.268  -0.701 -1.3629 -1.2395  0.9931
  155MOL   C22649814  11.555   1.013  -0.995 -0.4335  0.0523 -0.5715
  155MOL   C22749815  11.673   0.918  -1.006  0.2020 -0.0781  0.1627
  155MOL   C22849816  11.711   0.875  -1.129 -0.1912  0.6407  0.1544
  155MOL   C22949817  11.821   0.780  -1.129  0.5123  0.3400 -0.0008
  155MOL   C23049818  11.895   0.739  -1.017 -0.0723  0.1140 -0.3500
  155MOL   C23149819  12.018   0.651  -1.025  0.7003 -0.0888 -1.0787
  155MOL   C23249820  11.846   0.788  -0.899 -0.0217 -0.2092 -0.7805
  155MOL   C23349821  11.737   0.873  -0.892  0.8174  0.2541 -0.6186
  155MOL   H23449822  11.587   1.099  -0.936  1.9657 -0.4871 -1.0546
  155MOL   H23549823  11.521   1.048  -1.093 -1.4487 -0.5388 -0.4399
  155MOL   H23649824  11.659   0.907  -1.218 -1.1442 -0.7225  0.2131
  155MOL   H23749825  11.856   0.735  -1.221  2.6738  1.6145  0.1714
  155MOL   H23849826  12.033   0.621  -0.921  1.7121 -1.1573 -1.5101
  155MOL   H23949827  11.993   0.553  -1.067  1.0925 -0.9695  0.6938
  155MOL   H24049828  11.886   0.760  -0.803 -1.2581  0.2193 -0.1194
  155MOL   H24149829  11.704   0.907  -0.795 -0.0693 -0.0084 -0.8205
  155MOL   C24249830  12.125   0.736  -1.087 -0.4914  0.5255 -0.4306
  155MOL   C24349831  12.253   0.654  -1.103  0.0287 -0.0677  0.2099
  155MOL   C24449832  12.360   0.689  -1.027 -0.3918  0.4877  0.2478
  155MOL   C24549833  12.474   0.609  -1.025 -0.7116 -0.0368  0.1642
  155MOL   C24649834  12.479   0.492  -1.102 -0.4284  0.4784  0.1236
  155MOL   C24749835  12.605   0.412  -1.126 -0.0879  0.2975  0.0114
  155MOL   C24849836  12.365   0.460  -1.189  0.0166  0.7684 -0.3816
  155MOL   C24949837  12.254   0.544  -1.187 -1.0309  0.4157 -0.0866
  155MOL   H25049838  12.095   0.769  -1.187 -2.2861  1.6361  0.4497
  155MOL   H25149839  12.147   0.821  -1.023  2.9479  0.5674 -1.6093
  155MOL   H25249840  12.349   0.773  -0.961 -2.7908 -0.0432  0.5903
  155MOL   H25349841  12.557   0.627  -0.958 -1.0074  3.8037 -0.3692
  155MOL   H25449842  12.681   0.442  -1.053  0.1561 -2.8943  1.1614
  155MOL   H25549843  12.596   0.303  -1.123  0.9000  0.1435 -1.7578
  155MOL   H25649844  12.367   0.369  -1.247  0.8852  1.6890 -1.8262
  155MOL   H25749845  12.176   0.516  -1.256  0.1953  0.4063 -1.5183
  155MOL   C25849846  12.679   0.447  -1.264 -0.2516  0.7023  0.3960
  155MOL   C25949847  12.813   0.380  -1.286  0.1855 -0.0086 -0.3993
  155MOL   C26049848  12.814   0.247  -1.334 -0.7222  0.0564  0.3751
  155MOL   C26149849  12.939   0.187  -1.360  0.0637 -0.6893  0.8043
  155MOL   C26249850  13.060   0.257  -1.332 -0.5644 -0.0838  0.6048
  155MOL   C26349851  13.200   0.190  -1.345 -0.3247 -0.6069  0.2674
  155MOL   C26449852  13.053   0.386  -1.286  1.0260  0.0904  0.0394
  155MOL   C26549853  12.933   0.455  -1.268 -0.9301  0.3963 -1.1144
  155MOL   H26649854  12.698   0.554  -1.268 -0.7709  0.7569 -0.8067
  155MOL   H26749855  12.604   0.421  -1.338  0.3500 -3.8373  1.1917
  155MOL   H26849856  12.716   0.202  -1.323  0.4924 -2.6675  0.5252
  155MOL   H26949857  12.956   0.084  -1.389  2.6205 -0.0795 -0.0354
  155MOL   H27049858  13.271   0.203  -1.263 -1.1708  0.3670  0.8462
  155MOL   H27149859  13.188   0.081  -1.340 -1.6759 -0.4826 -0.0849
  155MOL   H27249860  13.147   0.437  -1.271  0.9625 -0.2850  1.8297
  155MOL   H27349861  12.933   0.557  -1.232  0.7238 -0.1699  0.5490
  155MOL   C27449862  13.264   0.230  -1.474 -0.3626  0.8088  0.1718
  155MOL   C27549863  13.398   0.164  -1.495 -0.7634  0.5908 -0.4126
  155MOL   C27649864  13.412   0.056  -1.588 -0.4188  0.4750  0.6249
  155MOL   C27749865  13.540  -0.005  -1.611  0.2348 -0.4279  0.5246
  155MOL   C27849866  13.647   0.044  -1.530 -0.0910  0.4635 -0.1001
  155MOL   C27949867  13.781  -0.025  -1.550 -0.2743 -0.0364  0.3107
  155MOL   C28049868  13.634   0.143  -1.436  0.4098 -0.2212 -0.0801
  155MOL   C28149869  13.506   0.198  -1.416 -0.0423  0.6646 -0.0967
  155MOL   H28249870  13.193   0.204  -1.553  0.8484  1.7661 -1.2719
  155MOL   H28349871  13.275   0.338  -1.475  2.4650  0.5494  0.5991
  155MOL   H28449872  13.324   0.016  -1.637 -1.0107  1.9026  0.4755
  155MOL   H28549873  13.554  -0.088  -1.679 -1.6547  0.4040 -0.9250
  155MOL   H28649874  13.833  -0.049  -1.457  0.7035 -2.4383 -0.8259
  155MOL   H28749875  13.769  -0.127  -1.585 -0.5170  0.3507 -0.7456
  155MOL   H28849876  13.721   0.173  -1.380  0.0770 -0.9341  0.8216
  155MOL   H28949877  13.498   0.276  -1.341 -1.3143  0.7172 -0.2826
  155MOL   C29049878  13.871   0.057  -1.645 -0.4223  0.0597  0.3641
  155MOL   C29149879  14.002  -0.008  -1.685 -0.6559 -0.2918  0.4195
  155MOL   C29249880  14.120   0.048  -1.648 -0.5690  0.0038  0.0786
  155MOL   C29349881  14.244  -0.004  -1.685 -0.5427  0.2983 -0.0605
  155MOL   C29449882  14.240  -0.133  -1.745  0.5897  0.3606 -0.0728
  155MOL   C29549883  14.369  -0.205  -1.778  0.3897 -0.0308 -0.2701
  155MOL   C29649884  14.112  -0.202  -1.765 -0.3343 -0.3076 -0.0240
  155MOL   C29749885  13.993  -0.133  -1.751  0.4654  0.3285  0.0729
  155MOL   H29849886  13.890   0.155  -1.601 -1.7146 -0.0207  1.1420
  155MOL   H29949887  13.817   0.074  -1.738  0.0904 -0.6182 -0.0578
  155MOL   H30049888  14.117   0.140  -1.591  1.2872  0.3045 -0.2667
  155MOL   H30149889  14.339   0.038  -1.654 -0.2547  0.0392 -0.5820
  155MOL   H30249890  14.428  -0.197  -1.688 -0.9351  0.7266  0.5493
  155MOL   H30349891  14.362  -0.312  -1.796  0.8064 -0.4102  1.7958
  155MOL   H30449892  14.103  -0.297  -1.814  0.9404 -1.1733  1.3701
  155MOL   H30549893  13.899  -0.175  -1.783  2.2943 -2.9011 -1.3300
  155MOL   C30649894  14.446  -0.136  -1.898  0.1027 -0.5414  0.2110
  155MOL   C30749895  14.583  -0.204  -1.915 -0.2198  0.4903  0.5275
  155MOL   C30849896  14.596  -0.303  -2.010  0.2260 -0.1630 -0.1050
  155MOL   C30949897  14.725  -0.360  -2.014  0.2307  0.6723 -0.6602
  155MOL   C31049898  14.832  -0.317  -1.937 -1.1141  0.2316 -0.3033
  155MOL   C31149899  14.963  -0.399  -1.946  0.3349  0.0269 -0.0722
  155MOL   C31249900  14.811  -0.205  -1.856 -0.2142 -0.3050  0.5374
  155MOL   C31349901  14.685  -0.151  -1.847  0.0169 -0.1729 -0.2228
  155MOL   H31449902  14.459  -0.030  -1.877 -1.2313 -0.5072  0.8924
  155MOL   H31549903  14.384  -0.140  -1.987 -0.7150 -1.4580  0.8202
  155MOL   H31649904  14.507  -0.326  -2.067 -0.8630 -1.6061  2.0994
  155MOL   H31749905  14.735  -0.440  -2.086  0.1423  0.6515 -0.6492
  155MOL   H31849906  14.966  -0.485  -1.879 -0.0747  0.3480  0.3603
  155MOL   H31949907  14.994  -0.427  -2.047  0.2933  0.1236 -0.1115
  155MOL   H32049908  14.899  -0.159  -1.814 -0.6870 -1.2011  2.5630
  155MOL   H32149909  14.666  -0.072  -1.775 -2.0170 -1.9344  1.2131
  155MOL   H32249910  15.044  -0.333  -1.914  0.1866  0.6515 -0.9703
   7.93549   7.93549   7.93549
