;
; Gromacs include topology (itp) file.
; For Molecular Group XYZ
; Force field scheme: opls2005
; Produced from DL_FIELD v4.11
;


[ moleculetype ]
; name    nrexcl
XYZ    3

[ atoms ]
; nr   type   resnr   residu    atom    cgnr    charge    mass
    1        CT    1  MOL      C1     1   0.1400000   12.0115
    2        OS    1  MOL      O2     2  -0.4000000   15.9994
    3        CT    1  MOL      C3     3   0.1400000   12.0115
    4        CT    1  MOL      C4     4  -0.1200000   12.0115
    5        CT    1  MOL      C5     5  -0.1800000   12.0115
    6        CT    1  MOL      C6     6  -0.1200000   12.0115
    7        HC    1  MOL      H7     7   0.0300000    1.0080
    8        HC    1  MOL      H8     8   0.0300000    1.0080
    9        HC    1  MOL      H9     9   0.0300000    1.0080
   10        HC    1  MOL     H10    10   0.0600000    1.0080
   11        HC    1  MOL     H11    11   0.0600000    1.0080
   12        HC    1  MOL     H12    12   0.0600000    1.0080
   13        HC    1  MOL     H13    13   0.0600000    1.0080
   14        HC    1  MOL     H14    14   0.0600000    1.0080
   15        HC    1  MOL     H15    15   0.0600000    1.0080
   16        HC    1  MOL     H16    16   0.0600000    1.0080
   17        HC    1  MOL     H17    17   0.0300000    1.0080
   18        CT    1  MOL     C18    18   0.1700000   12.0115
   19        OS    1  MOL     O19    19  -0.4000000   15.9994
   20        CT    1  MOL     C20    20   0.1400000   12.0115
   21        CT    1  MOL     C21    21  -0.1200000   12.0115
   22        CT    1  MOL     C22    22  -0.1800000   12.0115
   23        CT    1  MOL     C23    23  -0.1200000   12.0115
   24        HC    1  MOL     H24    24   0.0300000    1.0080
   25        HC    1  MOL     H25    25   0.0300000    1.0080
   26        HC    1  MOL     H26    26   0.0300000    1.0080
   27        HC    1  MOL     H27    27   0.0600000    1.0080
   28        HC    1  MOL     H28    28   0.0600000    1.0080
   29        HC    1  MOL     H29    29   0.0600000    1.0080
   30        HC    1  MOL     H30    30   0.0600000    1.0080
   31        HC    1  MOL     H31    31   0.0600000    1.0080
   32        HC    1  MOL     H32    32   0.0600000    1.0080
   33        HC    1  MOL     H33    33   0.0600000    1.0080
   34        CT    1  MOL     C34    34   0.1700000   12.0115
   35        OS    1  MOL     O35    35  -0.4000000   15.9994
   36        CT    1  MOL     C36    36   0.1400000   12.0115
   37        CT    1  MOL     C37    37  -0.1200000   12.0115
   38        CT    1  MOL     C38    38  -0.1800000   12.0115
   39        CT    1  MOL     C39    39  -0.1200000   12.0115
   40        HC    1  MOL     H40    40   0.0300000    1.0080
   41        HC    1  MOL     H41    41   0.0300000    1.0080
   42        HC    1  MOL     H42    42   0.0300000    1.0080
   43        HC    1  MOL     H43    43   0.0600000    1.0080
   44        HC    1  MOL     H44    44   0.0600000    1.0080
   45        HC    1  MOL     H45    45   0.0600000    1.0080
   46        HC    1  MOL     H46    46   0.0600000    1.0080
   47        HC    1  MOL     H47    47   0.0600000    1.0080
   48        HC    1  MOL     H48    48   0.0600000    1.0080
   49        HC    1  MOL     H49    49   0.0600000    1.0080
   50        CT    1  MOL     C50    50   0.1700000   12.0115
   51        OS    1  MOL     O51    51  -0.4000000   15.9994
   52        CT    1  MOL     C52    52   0.1400000   12.0115
   53        CT    1  MOL     C53    53  -0.1200000   12.0115
   54        CT    1  MOL     C54    54  -0.1800000   12.0115
   55        CT    1  MOL     C55    55  -0.1200000   12.0115
   56        HC    1  MOL     H56    56   0.0300000    1.0080
   57        HC    1  MOL     H57    57   0.0300000    1.0080
   58        HC    1  MOL     H58    58   0.0300000    1.0080
   59        HC    1  MOL     H59    59   0.0600000    1.0080
   60        HC    1  MOL     H60    60   0.0600000    1.0080
   61        HC    1  MOL     H61    61   0.0600000    1.0080
   62        HC    1  MOL     H62    62   0.0600000    1.0080
   63        HC    1  MOL     H63    63   0.0600000    1.0080
   64        HC    1  MOL     H64    64   0.0600000    1.0080
   65        HC    1  MOL     H65    65   0.0600000    1.0080
   66        CT    1  MOL     C66    66   0.1700000   12.0115
   67        OS    1  MOL     O67    67  -0.4000000   15.9994
   68        CT    1  MOL     C68    68   0.1400000   12.0115
   69        CT    1  MOL     C69    69  -0.1200000   12.0115
   70        CT    1  MOL     C70    70  -0.1800000   12.0115
   71        CT    1  MOL     C71    71  -0.1200000   12.0115
   72        HC    1  MOL     H72    72   0.0300000    1.0080
   73        HC    1  MOL     H73    73   0.0300000    1.0080
   74        HC    1  MOL     H74    74   0.0300000    1.0080
   75        HC    1  MOL     H75    75   0.0600000    1.0080
   76        HC    1  MOL     H76    76   0.0600000    1.0080
   77        HC    1  MOL     H77    77   0.0600000    1.0080
   78        HC    1  MOL     H78    78   0.0600000    1.0080
   79        HC    1  MOL     H79    79   0.0600000    1.0080
   80        HC    1  MOL     H80    80   0.0600000    1.0080
   81        HC    1  MOL     H81    81   0.0600000    1.0080
   82        CT    1  MOL     C82    82   0.1700000   12.0115
   83        OS    1  MOL     O83    83  -0.4000000   15.9994
   84        CT    1  MOL     C84    84   0.1400000   12.0115
   85        CT    1  MOL     C85    85  -0.1200000   12.0115
   86        CT    1  MOL     C86    86  -0.1800000   12.0115
   87        CT    1  MOL     C87    87  -0.1200000   12.0115
   88        HC    1  MOL     H88    88   0.0300000    1.0080
   89        HC    1  MOL     H89    89   0.0300000    1.0080
   90        HC    1  MOL     H90    90   0.0300000    1.0080
   91        HC    1  MOL     H91    91   0.0600000    1.0080
   92        HC    1  MOL     H92    92   0.0600000    1.0080
   93        HC    1  MOL     H93    93   0.0600000    1.0080
   94        HC    1  MOL     H94    94   0.0600000    1.0080
   95        HC    1  MOL     H95    95   0.0600000    1.0080
   96        HC    1  MOL     H96    96   0.0600000    1.0080
   97        HC    1  MOL     H97    97   0.0600000    1.0080
   98        CT    1  MOL     C98    98   0.1700000   12.0115
   99        OS    1  MOL     O99    99  -0.4000000   15.9994
  100        CT    1  MOL    C100   100   0.1400000   12.0115
  101        CT    1  MOL    C101   101  -0.1200000   12.0115
  102        CT    1  MOL    C102   102  -0.1800000   12.0115
  103        CT    1  MOL    C103   103  -0.1200000   12.0115
  104        HC    1  MOL    H104   104   0.0300000    1.0080
  105        HC    1  MOL    H105   105   0.0300000    1.0080
  106        HC    1  MOL    H106   106   0.0300000    1.0080
  107        HC    1  MOL    H107   107   0.0600000    1.0080
  108        HC    1  MOL    H108   108   0.0600000    1.0080
  109        HC    1  MOL    H109   109   0.0600000    1.0080
  110        HC    1  MOL    H110   110   0.0600000    1.0080
  111        HC    1  MOL    H111   111   0.0600000    1.0080
  112        HC    1  MOL    H112   112   0.0600000    1.0080
  113        HC    1  MOL    H113   113   0.0600000    1.0080
  114        CT    1  MOL    C114   114   0.1700000   12.0115
  115        OS    1  MOL    O115   115  -0.4000000   15.9994
  116        CT    1  MOL    C116   116   0.1400000   12.0115
  117        CT    1  MOL    C117   117  -0.1200000   12.0115
  118        CT    1  MOL    C118   118  -0.1800000   12.0115
  119        CT    1  MOL    C119   119  -0.1200000   12.0115
  120        HC    1  MOL    H120   120   0.0300000    1.0080
  121        HC    1  MOL    H121   121   0.0300000    1.0080
  122        HC    1  MOL    H122   122   0.0300000    1.0080
  123        HC    1  MOL    H123   123   0.0600000    1.0080
  124        HC    1  MOL    H124   124   0.0600000    1.0080
  125        HC    1  MOL    H125   125   0.0600000    1.0080
  126        HC    1  MOL    H126   126   0.0600000    1.0080
  127        HC    1  MOL    H127   127   0.0600000    1.0080
  128        HC    1  MOL    H128   128   0.0600000    1.0080
  129        HC    1  MOL    H129   129   0.0600000    1.0080
  130        CT    1  MOL    C130   130   0.1700000   12.0115
  131        OS    1  MOL    O131   131  -0.4000000   15.9994
  132        CT    1  MOL    C132   132   0.1400000   12.0115
  133        CT    1  MOL    C133   133  -0.1200000   12.0115
  134        CT    1  MOL    C134   134  -0.1800000   12.0115
  135        CT    1  MOL    C135   135  -0.1200000   12.0115
  136        HC    1  MOL    H136   136   0.0300000    1.0080
  137        HC    1  MOL    H137   137   0.0300000    1.0080
  138        HC    1  MOL    H138   138   0.0300000    1.0080
  139        HC    1  MOL    H139   139   0.0600000    1.0080
  140        HC    1  MOL    H140   140   0.0600000    1.0080
  141        HC    1  MOL    H141   141   0.0600000    1.0080
  142        HC    1  MOL    H142   142   0.0600000    1.0080
  143        HC    1  MOL    H143   143   0.0600000    1.0080
  144        HC    1  MOL    H144   144   0.0600000    1.0080
  145        HC    1  MOL    H145   145   0.0600000    1.0080
  146        CT    1  MOL    C146   146   0.1700000   12.0115
  147        OS    1  MOL    O147   147  -0.4000000   15.9994
  148        CT    1  MOL    C148   148   0.1400000   12.0115
  149        CT    1  MOL    C149   149  -0.1200000   12.0115
  150        CT    1  MOL    C150   150  -0.1800000   12.0115
  151        CT    1  MOL    C151   151  -0.1200000   12.0115
  152        HC    1  MOL    H152   152   0.0300000    1.0080
  153        HC    1  MOL    H153   153   0.0300000    1.0080
  154        HC    1  MOL    H154   154   0.0300000    1.0080
  155        HC    1  MOL    H155   155   0.0600000    1.0080
  156        HC    1  MOL    H156   156   0.0600000    1.0080
  157        HC    1  MOL    H157   157   0.0600000    1.0080
  158        HC    1  MOL    H158   158   0.0600000    1.0080
  159        HC    1  MOL    H159   159   0.0600000    1.0080
  160        HC    1  MOL    H160   160   0.0600000    1.0080
  161        HC    1  MOL    H161   161   0.0600000    1.0080
  162        CT    1  MOL    C162   162   0.1700000   12.0115
  163        OS    1  MOL    O163   163  -0.4000000   15.9994
  164        CT    1  MOL    C164   164   0.1400000   12.0115
  165        CT    1  MOL    C165   165  -0.1200000   12.0115
  166        CT    1  MOL    C166   166  -0.1800000   12.0115
  167        CT    1  MOL    C167   167  -0.1200000   12.0115
  168        HC    1  MOL    H168   168   0.0300000    1.0080
  169        HC    1  MOL    H169   169   0.0300000    1.0080
  170        HC    1  MOL    H170   170   0.0300000    1.0080
  171        HC    1  MOL    H171   171   0.0600000    1.0080
  172        HC    1  MOL    H172   172   0.0600000    1.0080
  173        HC    1  MOL    H173   173   0.0600000    1.0080
  174        HC    1  MOL    H174   174   0.0600000    1.0080
  175        HC    1  MOL    H175   175   0.0600000    1.0080
  176        HC    1  MOL    H176   176   0.0600000    1.0080
  177        HC    1  MOL    H177   177   0.0600000    1.0080
  178        CT    1  MOL    C178   178   0.1700000   12.0115
  179        OS    1  MOL    O179   179  -0.4000000   15.9994
  180        CT    1  MOL    C180   180   0.1400000   12.0115
  181        CT    1  MOL    C181   181  -0.1200000   12.0115
  182        CT    1  MOL    C182   182  -0.1800000   12.0115
  183        CT    1  MOL    C183   183  -0.1200000   12.0115
  184        HC    1  MOL    H184   184   0.0300000    1.0080
  185        HC    1  MOL    H185   185   0.0300000    1.0080
  186        HC    1  MOL    H186   186   0.0300000    1.0080
  187        HC    1  MOL    H187   187   0.0600000    1.0080
  188        HC    1  MOL    H188   188   0.0600000    1.0080
  189        HC    1  MOL    H189   189   0.0600000    1.0080
  190        HC    1  MOL    H190   190   0.0600000    1.0080
  191        HC    1  MOL    H191   191   0.0600000    1.0080
  192        HC    1  MOL    H192   192   0.0600000    1.0080
  193        HC    1  MOL    H193   193   0.0600000    1.0080
  194        CT    1  MOL    C194   194   0.1700000   12.0115
  195        OS    1  MOL    O195   195  -0.4000000   15.9994
  196        CT    1  MOL    C196   196   0.1400000   12.0115
  197        CT    1  MOL    C197   197  -0.1200000   12.0115
  198        CT    1  MOL    C198   198  -0.1800000   12.0115
  199        CT    1  MOL    C199   199  -0.1200000   12.0115
  200        HC    1  MOL    H200   200   0.0300000    1.0080
  201        HC    1  MOL    H201   201   0.0300000    1.0080
  202        HC    1  MOL    H202   202   0.0300000    1.0080
  203        HC    1  MOL    H203   203   0.0600000    1.0080
  204        HC    1  MOL    H204   204   0.0600000    1.0080
  205        HC    1  MOL    H205   205   0.0600000    1.0080
  206        HC    1  MOL    H206   206   0.0600000    1.0080
  207        HC    1  MOL    H207   207   0.0600000    1.0080
  208        HC    1  MOL    H208   208   0.0600000    1.0080
  209        HC    1  MOL    H209   209   0.0600000    1.0080
  210        CT    1  MOL    C210   210   0.1700000   12.0115
  211        OS    1  MOL    O211   211  -0.4000000   15.9994
  212        CT    1  MOL    C212   212   0.1400000   12.0115
  213        CT    1  MOL    C213   213  -0.1200000   12.0115
  214        CT    1  MOL    C214   214  -0.1800000   12.0115
  215        CT    1  MOL    C215   215  -0.1200000   12.0115
  216        HC    1  MOL    H216   216   0.0300000    1.0080
  217        HC    1  MOL    H217   217   0.0300000    1.0080
  218        HC    1  MOL    H218   218   0.0300000    1.0080
  219        HC    1  MOL    H219   219   0.0600000    1.0080
  220        HC    1  MOL    H220   220   0.0600000    1.0080
  221        HC    1  MOL    H221   221   0.0600000    1.0080
  222        HC    1  MOL    H222   222   0.0600000    1.0080
  223        HC    1  MOL    H223   223   0.0600000    1.0080
  224        HC    1  MOL    H224   224   0.0600000    1.0080
  225        HC    1  MOL    H225   225   0.0600000    1.0080
  226        CT    1  MOL    C226   226   0.1700000   12.0115
  227        OS    1  MOL    O227   227  -0.4000000   15.9994
  228        CT    1  MOL    C228   228   0.1400000   12.0115
  229        CT    1  MOL    C229   229  -0.1200000   12.0115
  230        CT    1  MOL    C230   230  -0.1800000   12.0115
  231        CT    1  MOL    C231   231  -0.1200000   12.0115
  232        HC    1  MOL    H232   232   0.0300000    1.0080
  233        HC    1  MOL    H233   233   0.0300000    1.0080
  234        HC    1  MOL    H234   234   0.0300000    1.0080
  235        HC    1  MOL    H235   235   0.0600000    1.0080
  236        HC    1  MOL    H236   236   0.0600000    1.0080
  237        HC    1  MOL    H237   237   0.0600000    1.0080
  238        HC    1  MOL    H238   238   0.0600000    1.0080
  239        HC    1  MOL    H239   239   0.0600000    1.0080
  240        HC    1  MOL    H240   240   0.0600000    1.0080
  241        HC    1  MOL    H241   241   0.0600000    1.0080
  242        CT    1  MOL    C242   242   0.1700000   12.0115
  243        OS    1  MOL    O243   243  -0.4000000   15.9994
  244        CT    1  MOL    C244   244   0.1400000   12.0115
  245        CT    1  MOL    C245   245  -0.1200000   12.0115
  246        CT    1  MOL    C246   246  -0.1800000   12.0115
  247        CT    1  MOL    C247   247  -0.1200000   12.0115
  248        HC    1  MOL    H248   248   0.0300000    1.0080
  249        HC    1  MOL    H249   249   0.0300000    1.0080
  250        HC    1  MOL    H250   250   0.0300000    1.0080
  251        HC    1  MOL    H251   251   0.0600000    1.0080
  252        HC    1  MOL    H252   252   0.0600000    1.0080
  253        HC    1  MOL    H253   253   0.0600000    1.0080
  254        HC    1  MOL    H254   254   0.0600000    1.0080
  255        HC    1  MOL    H255   255   0.0600000    1.0080
  256        HC    1  MOL    H256   256   0.0600000    1.0080
  257        HC    1  MOL    H257   257   0.0600000    1.0080
  258        CT    1  MOL    C258   258   0.1700000   12.0115
  259        OS    1  MOL    O259   259  -0.4000000   15.9994
  260        CT    1  MOL    C260   260   0.1400000   12.0115
  261        CT    1  MOL    C261   261  -0.1200000   12.0115
  262        CT    1  MOL    C262   262  -0.1800000   12.0115
  263        CT    1  MOL    C263   263  -0.1200000   12.0115
  264        HC    1  MOL    H264   264   0.0300000    1.0080
  265        HC    1  MOL    H265   265   0.0300000    1.0080
  266        HC    1  MOL    H266   266   0.0300000    1.0080
  267        HC    1  MOL    H267   267   0.0600000    1.0080
  268        HC    1  MOL    H268   268   0.0600000    1.0080
  269        HC    1  MOL    H269   269   0.0600000    1.0080
  270        HC    1  MOL    H270   270   0.0600000    1.0080
  271        HC    1  MOL    H271   271   0.0600000    1.0080
  272        HC    1  MOL    H272   272   0.0600000    1.0080
  273        HC    1  MOL    H273   273   0.0600000    1.0080
  274        CT    1  MOL    C274   274   0.1700000   12.0115
  275        OS    1  MOL    O275   275  -0.4000000   15.9994
  276        CT    1  MOL    C276   276   0.1400000   12.0115
  277        CT    1  MOL    C277   277  -0.1200000   12.0115
  278        CT    1  MOL    C278   278  -0.1800000   12.0115
  279        CT    1  MOL    C279   279  -0.1200000   12.0115
  280        HC    1  MOL    H280   280   0.0300000    1.0080
  281        HC    1  MOL    H281   281   0.0300000    1.0080
  282        HC    1  MOL    H282   282   0.0300000    1.0080
  283        HC    1  MOL    H283   283   0.0600000    1.0080
  284        HC    1  MOL    H284   284   0.0600000    1.0080
  285        HC    1  MOL    H285   285   0.0600000    1.0080
  286        HC    1  MOL    H286   286   0.0600000    1.0080
  287        HC    1  MOL    H287   287   0.0600000    1.0080
  288        HC    1  MOL    H288   288   0.0600000    1.0080
  289        HC    1  MOL    H289   289   0.0600000    1.0080
  290        CT    1  MOL    C290   290   0.1700000   12.0115
  291        OS    1  MOL    O291   291  -0.4000000   15.9994
  292        CT    1  MOL    C292   292   0.1400000   12.0115
  293        CT    1  MOL    C293   293  -0.1200000   12.0115
  294        CT    1  MOL    C294   294  -0.1800000   12.0115
  295        CT    1  MOL    C295   295  -0.1200000   12.0115
  296        HC    1  MOL    H296   296   0.0300000    1.0080
  297        HC    1  MOL    H297   297   0.0300000    1.0080
  298        HC    1  MOL    H298   298   0.0300000    1.0080
  299        HC    1  MOL    H299   299   0.0600000    1.0080
  300        HC    1  MOL    H300   300   0.0600000    1.0080
  301        HC    1  MOL    H301   301   0.0600000    1.0080
  302        HC    1  MOL    H302   302   0.0600000    1.0080
  303        HC    1  MOL    H303   303   0.0600000    1.0080
  304        HC    1  MOL    H304   304   0.0600000    1.0080
  305        HC    1  MOL    H305   305   0.0600000    1.0080
  306        CT    1  MOL    C306   306   0.1700000   12.0115
  307        OS    1  MOL    O307   307  -0.4000000   15.9994
  308        CT    1  MOL    C308   308   0.1400000   12.0115
  309        CT    1  MOL    C309   309  -0.1200000   12.0115
  310        CT    1  MOL    C310   310  -0.1800000   12.0115
  311        CT    1  MOL    C311   311  -0.1800000   12.0115
  312        HC    1  MOL    H312   312   0.0300000    1.0080
  313        HC    1  MOL    H313   313   0.0300000    1.0080
  314        HC    1  MOL    H314   314   0.0300000    1.0080
  315        HC    1  MOL    H315   315   0.0600000    1.0080
  316        HC    1  MOL    H316   316   0.0600000    1.0080
  317        HC    1  MOL    H317   317   0.0600000    1.0080
  318        HC    1  MOL    H318   318   0.0600000    1.0080
  319        HC    1  MOL    H319   319   0.0600000    1.0080
  320        HC    1  MOL    H320   320   0.0600000    1.0080
  321        HC    1  MOL    H321   321   0.0600000    1.0080
  322        HC    1  MOL    H322   322   0.0600000    1.0080

[ bonds ]
      1      2   1      0.1410 267776.0000
      1      6   1      0.1529 224262.4000
      1      7   1      0.1090 284512.0000
      1     17   1      0.1090 284512.0000
      2      3   1      0.1410 267776.0000
      3      4   1      0.1529 224262.4000
      3      8   1      0.1090 284512.0000
      3      9   1      0.1090 284512.0000
      4      5   1      0.1529 224262.4000
      4     10   1      0.1090 284512.0000
      4     11   1      0.1090 284512.0000
      5     12   1      0.1090 284512.0000
      5     13   1      0.1090 284512.0000
      5     14   1      0.1090 284512.0000
      6     15   1      0.1090 284512.0000
      6     16   1      0.1090 284512.0000
      6     18   1      0.1529 224262.4000
     18     19   1      0.1410 267776.0000
     18     23   1      0.1529 224262.4000
     18     24   1      0.1090 284512.0000
     19     20   1      0.1410 267776.0000
     20     21   1      0.1529 224262.4000
     20     25   1      0.1090 284512.0000
     20     26   1      0.1090 284512.0000
     21     22   1      0.1529 224262.4000
     21     27   1      0.1090 284512.0000
     21     28   1      0.1090 284512.0000
     22     29   1      0.1090 284512.0000
     22     30   1      0.1090 284512.0000
     22     31   1      0.1090 284512.0000
     23     32   1      0.1090 284512.0000
     23     33   1      0.1090 284512.0000
     23     34   1      0.1529 224262.4000
     34     35   1      0.1410 267776.0000
     34     39   1      0.1529 224262.4000
     34     40   1      0.1090 284512.0000
     35     36   1      0.1410 267776.0000
     36     37   1      0.1529 224262.4000
     36     41   1      0.1090 284512.0000
     36     42   1      0.1090 284512.0000
     37     38   1      0.1529 224262.4000
     37     43   1      0.1090 284512.0000
     37     44   1      0.1090 284512.0000
     38     45   1      0.1090 284512.0000
     38     46   1      0.1090 284512.0000
     38     47   1      0.1090 284512.0000
     39     48   1      0.1090 284512.0000
     39     49   1      0.1090 284512.0000
     39     50   1      0.1529 224262.4000
     50     51   1      0.1410 267776.0000
     50     55   1      0.1529 224262.4000
     50     56   1      0.1090 284512.0000
     51     52   1      0.1410 267776.0000
     52     53   1      0.1529 224262.4000
     52     57   1      0.1090 284512.0000
     52     58   1      0.1090 284512.0000
     53     54   1      0.1529 224262.4000
     53     59   1      0.1090 284512.0000
     53     60   1      0.1090 284512.0000
     54     61   1      0.1090 284512.0000
     54     62   1      0.1090 284512.0000
     54     63   1      0.1090 284512.0000
     55     64   1      0.1090 284512.0000
     55     65   1      0.1090 284512.0000
     55     66   1      0.1529 224262.4000
     66     67   1      0.1410 267776.0000
     66     71   1      0.1529 224262.4000
     66     72   1      0.1090 284512.0000
     67     68   1      0.1410 267776.0000
     68     69   1      0.1529 224262.4000
     68     73   1      0.1090 284512.0000
     68     74   1      0.1090 284512.0000
     69     70   1      0.1529 224262.4000
     69     75   1      0.1090 284512.0000
     69     76   1      0.1090 284512.0000
     70     77   1      0.1090 284512.0000
     70     78   1      0.1090 284512.0000
     70     79   1      0.1090 284512.0000
     71     80   1      0.1090 284512.0000
     71     81   1      0.1090 284512.0000
     71     82   1      0.1529 224262.4000
     82     83   1      0.1410 267776.0000
     82     87   1      0.1529 224262.4000
     82     88   1      0.1090 284512.0000
     83     84   1      0.1410 267776.0000
     84     85   1      0.1529 224262.4000
     84     89   1      0.1090 284512.0000
     84     90   1      0.1090 284512.0000
     85     86   1      0.1529 224262.4000
     85     91   1      0.1090 284512.0000
     85     92   1      0.1090 284512.0000
     86     93   1      0.1090 284512.0000
     86     94   1      0.1090 284512.0000
     86     95   1      0.1090 284512.0000
     87     96   1      0.1090 284512.0000
     87     97   1      0.1090 284512.0000
     87     98   1      0.1529 224262.4000
     98     99   1      0.1410 267776.0000
     98    103   1      0.1529 224262.4000
     98    104   1      0.1090 284512.0000
     99    100   1      0.1410 267776.0000
    100    101   1      0.1529 224262.4000
    100    105   1      0.1090 284512.0000
    100    106   1      0.1090 284512.0000
    101    102   1      0.1529 224262.4000
    101    107   1      0.1090 284512.0000
    101    108   1      0.1090 284512.0000
    102    109   1      0.1090 284512.0000
    102    110   1      0.1090 284512.0000
    102    111   1      0.1090 284512.0000
    103    112   1      0.1090 284512.0000
    103    113   1      0.1090 284512.0000
    103    114   1      0.1529 224262.4000
    114    115   1      0.1410 267776.0000
    114    119   1      0.1529 224262.4000
    114    120   1      0.1090 284512.0000
    115    116   1      0.1410 267776.0000
    116    117   1      0.1529 224262.4000
    116    121   1      0.1090 284512.0000
    116    122   1      0.1090 284512.0000
    117    118   1      0.1529 224262.4000
    117    123   1      0.1090 284512.0000
    117    124   1      0.1090 284512.0000
    118    125   1      0.1090 284512.0000
    118    126   1      0.1090 284512.0000
    118    127   1      0.1090 284512.0000
    119    128   1      0.1090 284512.0000
    119    129   1      0.1090 284512.0000
    119    130   1      0.1529 224262.4000
    130    131   1      0.1410 267776.0000
    130    135   1      0.1529 224262.4000
    130    136   1      0.1090 284512.0000
    131    132   1      0.1410 267776.0000
    132    133   1      0.1529 224262.4000
    132    137   1      0.1090 284512.0000
    132    138   1      0.1090 284512.0000
    133    134   1      0.1529 224262.4000
    133    139   1      0.1090 284512.0000
    133    140   1      0.1090 284512.0000
    134    141   1      0.1090 284512.0000
    134    142   1      0.1090 284512.0000
    134    143   1      0.1090 284512.0000
    135    144   1      0.1090 284512.0000
    135    145   1      0.1090 284512.0000
    135    146   1      0.1529 224262.4000
    146    147   1      0.1410 267776.0000
    146    151   1      0.1529 224262.4000
    146    152   1      0.1090 284512.0000
    147    148   1      0.1410 267776.0000
    148    149   1      0.1529 224262.4000
    148    153   1      0.1090 284512.0000
    148    154   1      0.1090 284512.0000
    149    150   1      0.1529 224262.4000
    149    155   1      0.1090 284512.0000
    149    156   1      0.1090 284512.0000
    150    157   1      0.1090 284512.0000
    150    158   1      0.1090 284512.0000
    150    159   1      0.1090 284512.0000
    151    160   1      0.1090 284512.0000
    151    161   1      0.1090 284512.0000
    151    162   1      0.1529 224262.4000
    162    163   1      0.1410 267776.0000
    162    167   1      0.1529 224262.4000
    162    168   1      0.1090 284512.0000
    163    164   1      0.1410 267776.0000
    164    165   1      0.1529 224262.4000
    164    169   1      0.1090 284512.0000
    164    170   1      0.1090 284512.0000
    165    166   1      0.1529 224262.4000
    165    171   1      0.1090 284512.0000
    165    172   1      0.1090 284512.0000
    166    173   1      0.1090 284512.0000
    166    174   1      0.1090 284512.0000
    166    175   1      0.1090 284512.0000
    167    176   1      0.1090 284512.0000
    167    177   1      0.1090 284512.0000
    167    178   1      0.1529 224262.4000
    178    179   1      0.1410 267776.0000
    178    183   1      0.1529 224262.4000
    178    184   1      0.1090 284512.0000
    179    180   1      0.1410 267776.0000
    180    181   1      0.1529 224262.4000
    180    185   1      0.1090 284512.0000
    180    186   1      0.1090 284512.0000
    181    182   1      0.1529 224262.4000
    181    187   1      0.1090 284512.0000
    181    188   1      0.1090 284512.0000
    182    189   1      0.1090 284512.0000
    182    190   1      0.1090 284512.0000
    182    191   1      0.1090 284512.0000
    183    192   1      0.1090 284512.0000
    183    193   1      0.1090 284512.0000
    183    194   1      0.1529 224262.4000
    194    195   1      0.1410 267776.0000
    194    199   1      0.1529 224262.4000
    194    200   1      0.1090 284512.0000
    195    196   1      0.1410 267776.0000
    196    197   1      0.1529 224262.4000
    196    201   1      0.1090 284512.0000
    196    202   1      0.1090 284512.0000
    197    198   1      0.1529 224262.4000
    197    203   1      0.1090 284512.0000
    197    204   1      0.1090 284512.0000
    198    205   1      0.1090 284512.0000
    198    206   1      0.1090 284512.0000
    198    207   1      0.1090 284512.0000
    199    208   1      0.1090 284512.0000
    199    209   1      0.1090 284512.0000
    199    210   1      0.1529 224262.4000
    210    211   1      0.1410 267776.0000
    210    215   1      0.1529 224262.4000
    210    216   1      0.1090 284512.0000
    211    212   1      0.1410 267776.0000
    212    213   1      0.1529 224262.4000
    212    217   1      0.1090 284512.0000
    212    218   1      0.1090 284512.0000
    213    214   1      0.1529 224262.4000
    213    219   1      0.1090 284512.0000
    213    220   1      0.1090 284512.0000
    214    221   1      0.1090 284512.0000
    214    222   1      0.1090 284512.0000
    214    223   1      0.1090 284512.0000
    215    224   1      0.1090 284512.0000
    215    225   1      0.1090 284512.0000
    215    226   1      0.1529 224262.4000
    226    227   1      0.1410 267776.0000
    226    231   1      0.1529 224262.4000
    226    232   1      0.1090 284512.0000
    227    228   1      0.1410 267776.0000
    228    229   1      0.1529 224262.4000
    228    233   1      0.1090 284512.0000
    228    234   1      0.1090 284512.0000
    229    230   1      0.1529 224262.4000
    229    235   1      0.1090 284512.0000
    229    236   1      0.1090 284512.0000
    230    237   1      0.1090 284512.0000
    230    238   1      0.1090 284512.0000
    230    239   1      0.1090 284512.0000
    231    240   1      0.1090 284512.0000
    231    241   1      0.1090 284512.0000
    231    242   1      0.1529 224262.4000
    242    243   1      0.1410 267776.0000
    242    247   1      0.1529 224262.4000
    242    248   1      0.1090 284512.0000
    243    244   1      0.1410 267776.0000
    244    245   1      0.1529 224262.4000
    244    249   1      0.1090 284512.0000
    244    250   1      0.1090 284512.0000
    245    246   1      0.1529 224262.4000
    245    251   1      0.1090 284512.0000
    245    252   1      0.1090 284512.0000
    246    253   1      0.1090 284512.0000
    246    254   1      0.1090 284512.0000
    246    255   1      0.1090 284512.0000
    247    256   1      0.1090 284512.0000
    247    257   1      0.1090 284512.0000
    247    258   1      0.1529 224262.4000
    258    259   1      0.1410 267776.0000
    258    263   1      0.1529 224262.4000
    258    264   1      0.1090 284512.0000
    259    260   1      0.1410 267776.0000
    260    261   1      0.1529 224262.4000
    260    265   1      0.1090 284512.0000
    260    266   1      0.1090 284512.0000
    261    262   1      0.1529 224262.4000
    261    267   1      0.1090 284512.0000
    261    268   1      0.1090 284512.0000
    262    269   1      0.1090 284512.0000
    262    270   1      0.1090 284512.0000
    262    271   1      0.1090 284512.0000
    263    272   1      0.1090 284512.0000
    263    273   1      0.1090 284512.0000
    263    274   1      0.1529 224262.4000
    274    275   1      0.1410 267776.0000
    274    279   1      0.1529 224262.4000
    274    280   1      0.1090 284512.0000
    275    276   1      0.1410 267776.0000
    276    277   1      0.1529 224262.4000
    276    281   1      0.1090 284512.0000
    276    282   1      0.1090 284512.0000
    277    278   1      0.1529 224262.4000
    277    283   1      0.1090 284512.0000
    277    284   1      0.1090 284512.0000
    278    285   1      0.1090 284512.0000
    278    286   1      0.1090 284512.0000
    278    287   1      0.1090 284512.0000
    279    288   1      0.1090 284512.0000
    279    289   1      0.1090 284512.0000
    279    290   1      0.1529 224262.4000
    290    291   1      0.1410 267776.0000
    290    295   1      0.1529 224262.4000
    290    296   1      0.1090 284512.0000
    291    292   1      0.1410 267776.0000
    292    293   1      0.1529 224262.4000
    292    297   1      0.1090 284512.0000
    292    298   1      0.1090 284512.0000
    293    294   1      0.1529 224262.4000
    293    299   1      0.1090 284512.0000
    293    300   1      0.1090 284512.0000
    294    301   1      0.1090 284512.0000
    294    302   1      0.1090 284512.0000
    294    303   1      0.1090 284512.0000
    295    304   1      0.1090 284512.0000
    295    305   1      0.1090 284512.0000
    295    306   1      0.1529 224262.4000
    306    307   1      0.1410 267776.0000
    306    311   1      0.1529 224262.4000
    306    312   1      0.1090 284512.0000
    307    308   1      0.1410 267776.0000
    308    309   1      0.1529 224262.4000
    308    313   1      0.1090 284512.0000
    308    314   1      0.1090 284512.0000
    309    310   1      0.1529 224262.4000
    309    315   1      0.1090 284512.0000
    309    316   1      0.1090 284512.0000
    310    317   1      0.1090 284512.0000
    310    318   1      0.1090 284512.0000
    310    319   1      0.1090 284512.0000
    311    320   1      0.1090 284512.0000
    311    321   1      0.1090 284512.0000
    311    322   1      0.1090 284512.0000

[ pairs ]
; ai   aj   funct   fudge_QQ  charge_i   charge_j   c6    c12
      6      3   2   0.50000    -0.1200000    0.1400000   1.015252e-03  1.866303e-06
      7      3   2   0.50000     0.0300000    0.1400000   2.494471e-04  1.671101e-07
     17      3   2   0.50000     0.0300000    0.1400000   2.494471e-04  1.671101e-07
      2     15   2   0.50000    -0.4000000    0.0600000   2.066619e-04  7.875431e-08
      2     16   2   0.50000    -0.4000000    0.0600000   2.066619e-04  7.875431e-08
      2     18   2   0.50000    -0.4000000    0.1700000   8.411158e-04  8.795366e-07
      7     15   2   0.50000     0.0300000    0.0600000   6.128906e-05  1.496315e-08
      7     16   2   0.50000     0.0300000    0.0600000   6.128906e-05  1.496315e-08
      7     18   2   0.50000     0.0300000    0.1700000   2.494471e-04  1.671101e-07
     17     15   2   0.50000     0.0300000    0.0600000   6.128906e-05  1.496315e-08
     17     16   2   0.50000     0.0300000    0.0600000   6.128906e-05  1.496315e-08
     17     18   2   0.50000     0.0300000    0.1700000   2.494471e-04  1.671101e-07
      1      4   2   0.50000     0.1400000   -0.1200000   1.015252e-03  1.866303e-06
      1      8   2   0.50000     0.1400000    0.0300000   2.494471e-04  1.671101e-07
      1      9   2   0.50000     0.1400000    0.0300000   2.494471e-04  1.671101e-07
      2      5   2   0.50000    -0.4000000   -0.1800000   8.411158e-04  8.795366e-07
      2     10   2   0.50000    -0.4000000    0.0600000   2.066619e-04  7.875431e-08
      2     11   2   0.50000    -0.4000000    0.0600000   2.066619e-04  7.875431e-08
      8      5   2   0.50000     0.0300000   -0.1800000   2.494471e-04  1.671101e-07
      8     10   2   0.50000     0.0300000    0.0600000   6.128906e-05  1.496315e-08
      8     11   2   0.50000     0.0300000    0.0600000   6.128906e-05  1.496315e-08
      9      5   2   0.50000     0.0300000   -0.1800000   2.494471e-04  1.671101e-07
      9     10   2   0.50000     0.0300000    0.0600000   6.128906e-05  1.496315e-08
      9     11   2   0.50000     0.0300000    0.0600000   6.128906e-05  1.496315e-08
      3     12   2   0.50000     0.1400000    0.0600000   2.494471e-04  1.671101e-07
      3     13   2   0.50000     0.1400000    0.0600000   2.494471e-04  1.671101e-07
      3     14   2   0.50000     0.1400000    0.0600000   2.494471e-04  1.671101e-07
     10     12   2   0.50000     0.0600000    0.0600000   6.128906e-05  1.496315e-08
     10     13   2   0.50000     0.0600000    0.0600000   6.128906e-05  1.496315e-08
     10     14   2   0.50000     0.0600000    0.0600000   6.128906e-05  1.496315e-08
     11     12   2   0.50000     0.0600000    0.0600000   6.128906e-05  1.496315e-08
     11     13   2   0.50000     0.0600000    0.0600000   6.128906e-05  1.496315e-08
     11     14   2   0.50000     0.0600000    0.0600000   6.128906e-05  1.496315e-08
      1     19   2   0.50000     0.1400000   -0.4000000   8.411158e-04  8.795366e-07
      1     23   2   0.50000     0.1400000   -0.1200000   1.015252e-03  1.866303e-06
      1     24   2   0.50000     0.1400000    0.0300000   2.494471e-04  1.671101e-07
     15     19   2   0.50000     0.0600000   -0.4000000   2.066619e-04  7.875431e-08
     15     23   2   0.50000     0.0600000   -0.1200000   2.494471e-04  1.671101e-07
     15     24   2   0.50000     0.0600000    0.0300000   6.128906e-05  1.496315e-08
     16     19   2   0.50000     0.0600000   -0.4000000   2.066619e-04  7.875431e-08
     16     23   2   0.50000     0.0600000   -0.1200000   2.494471e-04  1.671101e-07
     16     24   2   0.50000     0.0600000    0.0300000   6.128906e-05  1.496315e-08
      6     20   2   0.50000    -0.1200000    0.1400000   1.015252e-03  1.866303e-06
     23     20   2   0.50000    -0.1200000    0.1400000   1.015252e-03  1.866303e-06
     24     20   2   0.50000     0.0300000    0.1400000   2.494471e-04  1.671101e-07
      6     32   2   0.50000    -0.1200000    0.0600000   2.494471e-04  1.671101e-07
      6     33   2   0.50000    -0.1200000    0.0600000   2.494471e-04  1.671101e-07
      6     34   2   0.50000    -0.1200000    0.1700000   1.015252e-03  1.866303e-06
     19     32   2   0.50000    -0.4000000    0.0600000   2.066619e-04  7.875431e-08
     19     33   2   0.50000    -0.4000000    0.0600000   2.066619e-04  7.875431e-08
     19     34   2   0.50000    -0.4000000    0.1700000   8.411158e-04  8.795366e-07
     24     32   2   0.50000     0.0300000    0.0600000   6.128906e-05  1.496315e-08
     24     33   2   0.50000     0.0300000    0.0600000   6.128906e-05  1.496315e-08
     24     34   2   0.50000     0.0300000    0.1700000   2.494471e-04  1.671101e-07
     18     21   2   0.50000     0.1700000   -0.1200000   1.015252e-03  1.866303e-06
     18     25   2   0.50000     0.1700000    0.0300000   2.494471e-04  1.671101e-07
     18     26   2   0.50000     0.1700000    0.0300000   2.494471e-04  1.671101e-07
     19     22   2   0.50000    -0.4000000   -0.1800000   8.411158e-04  8.795366e-07
     19     27   2   0.50000    -0.4000000    0.0600000   2.066619e-04  7.875431e-08
     19     28   2   0.50000    -0.4000000    0.0600000   2.066619e-04  7.875431e-08
     25     22   2   0.50000     0.0300000   -0.1800000   2.494471e-04  1.671101e-07
     25     27   2   0.50000     0.0300000    0.0600000   6.128906e-05  1.496315e-08
     25     28   2   0.50000     0.0300000    0.0600000   6.128906e-05  1.496315e-08
     26     22   2   0.50000     0.0300000   -0.1800000   2.494471e-04  1.671101e-07
     26     27   2   0.50000     0.0300000    0.0600000   6.128906e-05  1.496315e-08
     26     28   2   0.50000     0.0300000    0.0600000   6.128906e-05  1.496315e-08
     20     29   2   0.50000     0.1400000    0.0600000   2.494471e-04  1.671101e-07
     20     30   2   0.50000     0.1400000    0.0600000   2.494471e-04  1.671101e-07
     20     31   2   0.50000     0.1400000    0.0600000   2.494471e-04  1.671101e-07
     27     29   2   0.50000     0.0600000    0.0600000   6.128906e-05  1.496315e-08
     27     30   2   0.50000     0.0600000    0.0600000   6.128906e-05  1.496315e-08
     27     31   2   0.50000     0.0600000    0.0600000   6.128906e-05  1.496315e-08
     28     29   2   0.50000     0.0600000    0.0600000   6.128906e-05  1.496315e-08
     28     30   2   0.50000     0.0600000    0.0600000   6.128906e-05  1.496315e-08
     28     31   2   0.50000     0.0600000    0.0600000   6.128906e-05  1.496315e-08
     18     35   2   0.50000     0.1700000   -0.4000000   8.411158e-04  8.795366e-07
     18     39   2   0.50000     0.1700000   -0.1200000   1.015252e-03  1.866303e-06
     18     40   2   0.50000     0.1700000    0.0300000   2.494471e-04  1.671101e-07
     32     35   2   0.50000     0.0600000   -0.4000000   2.066619e-04  7.875431e-08
     32     39   2   0.50000     0.0600000   -0.1200000   2.494471e-04  1.671101e-07
     32     40   2   0.50000     0.0600000    0.0300000   6.128906e-05  1.496315e-08
     33     35   2   0.50000     0.0600000   -0.4000000   2.066619e-04  7.875431e-08
     33     39   2   0.50000     0.0600000   -0.1200000   2.494471e-04  1.671101e-07
     33     40   2   0.50000     0.0600000    0.0300000   6.128906e-05  1.496315e-08
     23     36   2   0.50000    -0.1200000    0.1400000   1.015252e-03  1.866303e-06
     39     36   2   0.50000    -0.1200000    0.1400000   1.015252e-03  1.866303e-06
     40     36   2   0.50000     0.0300000    0.1400000   2.494471e-04  1.671101e-07
     23     48   2   0.50000    -0.1200000    0.0600000   2.494471e-04  1.671101e-07
     23     49   2   0.50000    -0.1200000    0.0600000   2.494471e-04  1.671101e-07
     23     50   2   0.50000    -0.1200000    0.1700000   1.015252e-03  1.866303e-06
     35     48   2   0.50000    -0.4000000    0.0600000   2.066619e-04  7.875431e-08
     35     49   2   0.50000    -0.4000000    0.0600000   2.066619e-04  7.875431e-08
     35     50   2   0.50000    -0.4000000    0.1700000   8.411158e-04  8.795366e-07
     40     48   2   0.50000     0.0300000    0.0600000   6.128906e-05  1.496315e-08
     40     49   2   0.50000     0.0300000    0.0600000   6.128906e-05  1.496315e-08
     40     50   2   0.50000     0.0300000    0.1700000   2.494471e-04  1.671101e-07
     34     37   2   0.50000     0.1700000   -0.1200000   1.015252e-03  1.866303e-06
     34     41   2   0.50000     0.1700000    0.0300000   2.494471e-04  1.671101e-07
     34     42   2   0.50000     0.1700000    0.0300000   2.494471e-04  1.671101e-07
     35     38   2   0.50000    -0.4000000   -0.1800000   8.411158e-04  8.795366e-07
     35     43   2   0.50000    -0.4000000    0.0600000   2.066619e-04  7.875431e-08
     35     44   2   0.50000    -0.4000000    0.0600000   2.066619e-04  7.875431e-08
     41     38   2   0.50000     0.0300000   -0.1800000   2.494471e-04  1.671101e-07
     41     43   2   0.50000     0.0300000    0.0600000   6.128906e-05  1.496315e-08
     41     44   2   0.50000     0.0300000    0.0600000   6.128906e-05  1.496315e-08
     42     38   2   0.50000     0.0300000   -0.1800000   2.494471e-04  1.671101e-07
     42     43   2   0.50000     0.0300000    0.0600000   6.128906e-05  1.496315e-08
     42     44   2   0.50000     0.0300000    0.0600000   6.128906e-05  1.496315e-08
     36     45   2   0.50000     0.1400000    0.0600000   2.494471e-04  1.671101e-07
     36     46   2   0.50000     0.1400000    0.0600000   2.494471e-04  1.671101e-07
     36     47   2   0.50000     0.1400000    0.0600000   2.494471e-04  1.671101e-07
     43     45   2   0.50000     0.0600000    0.0600000   6.128906e-05  1.496315e-08
     43     46   2   0.50000     0.0600000    0.0600000   6.128906e-05  1.496315e-08
     43     47   2   0.50000     0.0600000    0.0600000   6.128906e-05  1.496315e-08
     44     45   2   0.50000     0.0600000    0.0600000   6.128906e-05  1.496315e-08
     44     46   2   0.50000     0.0600000    0.0600000   6.128906e-05  1.496315e-08
     44     47   2   0.50000     0.0600000    0.0600000   6.128906e-05  1.496315e-08
     34     51   2   0.50000     0.1700000   -0.4000000   8.411158e-04  8.795366e-07
     34     55   2   0.50000     0.1700000   -0.1200000   1.015252e-03  1.866303e-06
     34     56   2   0.50000     0.1700000    0.0300000   2.494471e-04  1.671101e-07
     48     51   2   0.50000     0.0600000   -0.4000000   2.066619e-04  7.875431e-08
     48     55   2   0.50000     0.0600000   -0.1200000   2.494471e-04  1.671101e-07
     48     56   2   0.50000     0.0600000    0.0300000   6.128906e-05  1.496315e-08
     49     51   2   0.50000     0.0600000   -0.4000000   2.066619e-04  7.875431e-08
     49     55   2   0.50000     0.0600000   -0.1200000   2.494471e-04  1.671101e-07
     49     56   2   0.50000     0.0600000    0.0300000   6.128906e-05  1.496315e-08
     39     52   2   0.50000    -0.1200000    0.1400000   1.015252e-03  1.866303e-06
     55     52   2   0.50000    -0.1200000    0.1400000   1.015252e-03  1.866303e-06
     56     52   2   0.50000     0.0300000    0.1400000   2.494471e-04  1.671101e-07
     39     64   2   0.50000    -0.1200000    0.0600000   2.494471e-04  1.671101e-07
     39     65   2   0.50000    -0.1200000    0.0600000   2.494471e-04  1.671101e-07
     39     66   2   0.50000    -0.1200000    0.1700000   1.015252e-03  1.866303e-06
     51     64   2   0.50000    -0.4000000    0.0600000   2.066619e-04  7.875431e-08
     51     65   2   0.50000    -0.4000000    0.0600000   2.066619e-04  7.875431e-08
     51     66   2   0.50000    -0.4000000    0.1700000   8.411158e-04  8.795366e-07
     56     64   2   0.50000     0.0300000    0.0600000   6.128906e-05  1.496315e-08
     56     65   2   0.50000     0.0300000    0.0600000   6.128906e-05  1.496315e-08
     56     66   2   0.50000     0.0300000    0.1700000   2.494471e-04  1.671101e-07
     50     53   2   0.50000     0.1700000   -0.1200000   1.015252e-03  1.866303e-06
     50     57   2   0.50000     0.1700000    0.0300000   2.494471e-04  1.671101e-07
     50     58   2   0.50000     0.1700000    0.0300000   2.494471e-04  1.671101e-07
     51     54   2   0.50000    -0.4000000   -0.1800000   8.411158e-04  8.795366e-07
     51     59   2   0.50000    -0.4000000    0.0600000   2.066619e-04  7.875431e-08
     51     60   2   0.50000    -0.4000000    0.0600000   2.066619e-04  7.875431e-08
     57     54   2   0.50000     0.0300000   -0.1800000   2.494471e-04  1.671101e-07
     57     59   2   0.50000     0.0300000    0.0600000   6.128906e-05  1.496315e-08
     57     60   2   0.50000     0.0300000    0.0600000   6.128906e-05  1.496315e-08
     58     54   2   0.50000     0.0300000   -0.1800000   2.494471e-04  1.671101e-07
     58     59   2   0.50000     0.0300000    0.0600000   6.128906e-05  1.496315e-08
     58     60   2   0.50000     0.0300000    0.0600000   6.128906e-05  1.496315e-08
     52     61   2   0.50000     0.1400000    0.0600000   2.494471e-04  1.671101e-07
     52     62   2   0.50000     0.1400000    0.0600000   2.494471e-04  1.671101e-07
     52     63   2   0.50000     0.1400000    0.0600000   2.494471e-04  1.671101e-07
     59     61   2   0.50000     0.0600000    0.0600000   6.128906e-05  1.496315e-08
     59     62   2   0.50000     0.0600000    0.0600000   6.128906e-05  1.496315e-08
     59     63   2   0.50000     0.0600000    0.0600000   6.128906e-05  1.496315e-08
     60     61   2   0.50000     0.0600000    0.0600000   6.128906e-05  1.496315e-08
     60     62   2   0.50000     0.0600000    0.0600000   6.128906e-05  1.496315e-08
     60     63   2   0.50000     0.0600000    0.0600000   6.128906e-05  1.496315e-08
     50     67   2   0.50000     0.1700000   -0.4000000   8.411158e-04  8.795366e-07
     50     71   2   0.50000     0.1700000   -0.1200000   1.015252e-03  1.866303e-06
     50     72   2   0.50000     0.1700000    0.0300000   2.494471e-04  1.671101e-07
     64     67   2   0.50000     0.0600000   -0.4000000   2.066619e-04  7.875431e-08
     64     71   2   0.50000     0.0600000   -0.1200000   2.494471e-04  1.671101e-07
     64     72   2   0.50000     0.0600000    0.0300000   6.128906e-05  1.496315e-08
     65     67   2   0.50000     0.0600000   -0.4000000   2.066619e-04  7.875431e-08
     65     71   2   0.50000     0.0600000   -0.1200000   2.494471e-04  1.671101e-07
     65     72   2   0.50000     0.0600000    0.0300000   6.128906e-05  1.496315e-08
     55     68   2   0.50000    -0.1200000    0.1400000   1.015252e-03  1.866303e-06
     71     68   2   0.50000    -0.1200000    0.1400000   1.015252e-03  1.866303e-06
     72     68   2   0.50000     0.0300000    0.1400000   2.494471e-04  1.671101e-07
     55     80   2   0.50000    -0.1200000    0.0600000   2.494471e-04  1.671101e-07
     55     81   2   0.50000    -0.1200000    0.0600000   2.494471e-04  1.671101e-07
     55     82   2   0.50000    -0.1200000    0.1700000   1.015252e-03  1.866303e-06
     67     80   2   0.50000    -0.4000000    0.0600000   2.066619e-04  7.875431e-08
     67     81   2   0.50000    -0.4000000    0.0600000   2.066619e-04  7.875431e-08
     67     82   2   0.50000    -0.4000000    0.1700000   8.411158e-04  8.795366e-07
     72     80   2   0.50000     0.0300000    0.0600000   6.128906e-05  1.496315e-08
     72     81   2   0.50000     0.0300000    0.0600000   6.128906e-05  1.496315e-08
     72     82   2   0.50000     0.0300000    0.1700000   2.494471e-04  1.671101e-07
     66     69   2   0.50000     0.1700000   -0.1200000   1.015252e-03  1.866303e-06
     66     73   2   0.50000     0.1700000    0.0300000   2.494471e-04  1.671101e-07
     66     74   2   0.50000     0.1700000    0.0300000   2.494471e-04  1.671101e-07
     67     70   2   0.50000    -0.4000000   -0.1800000   8.411158e-04  8.795366e-07
     67     75   2   0.50000    -0.4000000    0.0600000   2.066619e-04  7.875431e-08
     67     76   2   0.50000    -0.4000000    0.0600000   2.066619e-04  7.875431e-08
     73     70   2   0.50000     0.0300000   -0.1800000   2.494471e-04  1.671101e-07
     73     75   2   0.50000     0.0300000    0.0600000   6.128906e-05  1.496315e-08
     73     76   2   0.50000     0.0300000    0.0600000   6.128906e-05  1.496315e-08
     74     70   2   0.50000     0.0300000   -0.1800000   2.494471e-04  1.671101e-07
     74     75   2   0.50000     0.0300000    0.0600000   6.128906e-05  1.496315e-08
     74     76   2   0.50000     0.0300000    0.0600000   6.128906e-05  1.496315e-08
     68     77   2   0.50000     0.1400000    0.0600000   2.494471e-04  1.671101e-07
     68     78   2   0.50000     0.1400000    0.0600000   2.494471e-04  1.671101e-07
     68     79   2   0.50000     0.1400000    0.0600000   2.494471e-04  1.671101e-07
     75     77   2   0.50000     0.0600000    0.0600000   6.128906e-05  1.496315e-08
     75     78   2   0.50000     0.0600000    0.0600000   6.128906e-05  1.496315e-08
     75     79   2   0.50000     0.0600000    0.0600000   6.128906e-05  1.496315e-08
     76     77   2   0.50000     0.0600000    0.0600000   6.128906e-05  1.496315e-08
     76     78   2   0.50000     0.0600000    0.0600000   6.128906e-05  1.496315e-08
     76     79   2   0.50000     0.0600000    0.0600000   6.128906e-05  1.496315e-08
     66     83   2   0.50000     0.1700000   -0.4000000   8.411158e-04  8.795366e-07
     66     87   2   0.50000     0.1700000   -0.1200000   1.015252e-03  1.866303e-06
     66     88   2   0.50000     0.1700000    0.0300000   2.494471e-04  1.671101e-07
     80     83   2   0.50000     0.0600000   -0.4000000   2.066619e-04  7.875431e-08
     80     87   2   0.50000     0.0600000   -0.1200000   2.494471e-04  1.671101e-07
     80     88   2   0.50000     0.0600000    0.0300000   6.128906e-05  1.496315e-08
     81     83   2   0.50000     0.0600000   -0.4000000   2.066619e-04  7.875431e-08
     81     87   2   0.50000     0.0600000   -0.1200000   2.494471e-04  1.671101e-07
     81     88   2   0.50000     0.0600000    0.0300000   6.128906e-05  1.496315e-08
     71     84   2   0.50000    -0.1200000    0.1400000   1.015252e-03  1.866303e-06
     87     84   2   0.50000    -0.1200000    0.1400000   1.015252e-03  1.866303e-06
     88     84   2   0.50000     0.0300000    0.1400000   2.494471e-04  1.671101e-07
     71     96   2   0.50000    -0.1200000    0.0600000   2.494471e-04  1.671101e-07
     71     97   2   0.50000    -0.1200000    0.0600000   2.494471e-04  1.671101e-07
     71     98   2   0.50000    -0.1200000    0.1700000   1.015252e-03  1.866303e-06
     83     96   2   0.50000    -0.4000000    0.0600000   2.066619e-04  7.875431e-08
     83     97   2   0.50000    -0.4000000    0.0600000   2.066619e-04  7.875431e-08
     83     98   2   0.50000    -0.4000000    0.1700000   8.411158e-04  8.795366e-07
     88     96   2   0.50000     0.0300000    0.0600000   6.128906e-05  1.496315e-08
     88     97   2   0.50000     0.0300000    0.0600000   6.128906e-05  1.496315e-08
     88     98   2   0.50000     0.0300000    0.1700000   2.494471e-04  1.671101e-07
     82     85   2   0.50000     0.1700000   -0.1200000   1.015252e-03  1.866303e-06
     82     89   2   0.50000     0.1700000    0.0300000   2.494471e-04  1.671101e-07
     82     90   2   0.50000     0.1700000    0.0300000   2.494471e-04  1.671101e-07
     83     86   2   0.50000    -0.4000000   -0.1800000   8.411158e-04  8.795366e-07
     83     91   2   0.50000    -0.4000000    0.0600000   2.066619e-04  7.875431e-08
     83     92   2   0.50000    -0.4000000    0.0600000   2.066619e-04  7.875431e-08
     89     86   2   0.50000     0.0300000   -0.1800000   2.494471e-04  1.671101e-07
     89     91   2   0.50000     0.0300000    0.0600000   6.128906e-05  1.496315e-08
     89     92   2   0.50000     0.0300000    0.0600000   6.128906e-05  1.496315e-08
     90     86   2   0.50000     0.0300000   -0.1800000   2.494471e-04  1.671101e-07
     90     91   2   0.50000     0.0300000    0.0600000   6.128906e-05  1.496315e-08
     90     92   2   0.50000     0.0300000    0.0600000   6.128906e-05  1.496315e-08
     84     93   2   0.50000     0.1400000    0.0600000   2.494471e-04  1.671101e-07
     84     94   2   0.50000     0.1400000    0.0600000   2.494471e-04  1.671101e-07
     84     95   2   0.50000     0.1400000    0.0600000   2.494471e-04  1.671101e-07
     91     93   2   0.50000     0.0600000    0.0600000   6.128906e-05  1.496315e-08
     91     94   2   0.50000     0.0600000    0.0600000   6.128906e-05  1.496315e-08
     91     95   2   0.50000     0.0600000    0.0600000   6.128906e-05  1.496315e-08
     92     93   2   0.50000     0.0600000    0.0600000   6.128906e-05  1.496315e-08
     92     94   2   0.50000     0.0600000    0.0600000   6.128906e-05  1.496315e-08
     92     95   2   0.50000     0.0600000    0.0600000   6.128906e-05  1.496315e-08
     82     99   2   0.50000     0.1700000   -0.4000000   8.411158e-04  8.795366e-07
     82    103   2   0.50000     0.1700000   -0.1200000   1.015252e-03  1.866303e-06
     82    104   2   0.50000     0.1700000    0.0300000   2.494471e-04  1.671101e-07
     96     99   2   0.50000     0.0600000   -0.4000000   2.066619e-04  7.875431e-08
     96    103   2   0.50000     0.0600000   -0.1200000   2.494471e-04  1.671101e-07
     96    104   2   0.50000     0.0600000    0.0300000   6.128906e-05  1.496315e-08
     97     99   2   0.50000     0.0600000   -0.4000000   2.066619e-04  7.875431e-08
     97    103   2   0.50000     0.0600000   -0.1200000   2.494471e-04  1.671101e-07
     97    104   2   0.50000     0.0600000    0.0300000   6.128906e-05  1.496315e-08
     87    100   2   0.50000    -0.1200000    0.1400000   1.015252e-03  1.866303e-06
    103    100   2   0.50000    -0.1200000    0.1400000   1.015252e-03  1.866303e-06
    104    100   2   0.50000     0.0300000    0.1400000   2.494471e-04  1.671101e-07
     87    112   2   0.50000    -0.1200000    0.0600000   2.494471e-04  1.671101e-07
     87    113   2   0.50000    -0.1200000    0.0600000   2.494471e-04  1.671101e-07
     87    114   2   0.50000    -0.1200000    0.1700000   1.015252e-03  1.866303e-06
     99    112   2   0.50000    -0.4000000    0.0600000   2.066619e-04  7.875431e-08
     99    113   2   0.50000    -0.4000000    0.0600000   2.066619e-04  7.875431e-08
     99    114   2   0.50000    -0.4000000    0.1700000   8.411158e-04  8.795366e-07
    104    112   2   0.50000     0.0300000    0.0600000   6.128906e-05  1.496315e-08
    104    113   2   0.50000     0.0300000    0.0600000   6.128906e-05  1.496315e-08
    104    114   2   0.50000     0.0300000    0.1700000   2.494471e-04  1.671101e-07
     98    101   2   0.50000     0.1700000   -0.1200000   1.015252e-03  1.866303e-06
     98    105   2   0.50000     0.1700000    0.0300000   2.494471e-04  1.671101e-07
     98    106   2   0.50000     0.1700000    0.0300000   2.494471e-04  1.671101e-07
     99    102   2   0.50000    -0.4000000   -0.1800000   8.411158e-04  8.795366e-07
     99    107   2   0.50000    -0.4000000    0.0600000   2.066619e-04  7.875431e-08
     99    108   2   0.50000    -0.4000000    0.0600000   2.066619e-04  7.875431e-08
    105    102   2   0.50000     0.0300000   -0.1800000   2.494471e-04  1.671101e-07
    105    107   2   0.50000     0.0300000    0.0600000   6.128906e-05  1.496315e-08
    105    108   2   0.50000     0.0300000    0.0600000   6.128906e-05  1.496315e-08
    106    102   2   0.50000     0.0300000   -0.1800000   2.494471e-04  1.671101e-07
    106    107   2   0.50000     0.0300000    0.0600000   6.128906e-05  1.496315e-08
    106    108   2   0.50000     0.0300000    0.0600000   6.128906e-05  1.496315e-08
    100    109   2   0.50000     0.1400000    0.0600000   2.494471e-04  1.671101e-07
    100    110   2   0.50000     0.1400000    0.0600000   2.494471e-04  1.671101e-07
    100    111   2   0.50000     0.1400000    0.0600000   2.494471e-04  1.671101e-07
    107    109   2   0.50000     0.0600000    0.0600000   6.128906e-05  1.496315e-08
    107    110   2   0.50000     0.0600000    0.0600000   6.128906e-05  1.496315e-08
    107    111   2   0.50000     0.0600000    0.0600000   6.128906e-05  1.496315e-08
    108    109   2   0.50000     0.0600000    0.0600000   6.128906e-05  1.496315e-08
    108    110   2   0.50000     0.0600000    0.0600000   6.128906e-05  1.496315e-08
    108    111   2   0.50000     0.0600000    0.0600000   6.128906e-05  1.496315e-08
     98    115   2   0.50000     0.1700000   -0.4000000   8.411158e-04  8.795366e-07
     98    119   2   0.50000     0.1700000   -0.1200000   1.015252e-03  1.866303e-06
     98    120   2   0.50000     0.1700000    0.0300000   2.494471e-04  1.671101e-07
    112    115   2   0.50000     0.0600000   -0.4000000   2.066619e-04  7.875431e-08
    112    119   2   0.50000     0.0600000   -0.1200000   2.494471e-04  1.671101e-07
    112    120   2   0.50000     0.0600000    0.0300000   6.128906e-05  1.496315e-08
    113    115   2   0.50000     0.0600000   -0.4000000   2.066619e-04  7.875431e-08
    113    119   2   0.50000     0.0600000   -0.1200000   2.494471e-04  1.671101e-07
    113    120   2   0.50000     0.0600000    0.0300000   6.128906e-05  1.496315e-08
    103    116   2   0.50000    -0.1200000    0.1400000   1.015252e-03  1.866303e-06
    119    116   2   0.50000    -0.1200000    0.1400000   1.015252e-03  1.866303e-06
    120    116   2   0.50000     0.0300000    0.1400000   2.494471e-04  1.671101e-07
    103    128   2   0.50000    -0.1200000    0.0600000   2.494471e-04  1.671101e-07
    103    129   2   0.50000    -0.1200000    0.0600000   2.494471e-04  1.671101e-07
    103    130   2   0.50000    -0.1200000    0.1700000   1.015252e-03  1.866303e-06
    115    128   2   0.50000    -0.4000000    0.0600000   2.066619e-04  7.875431e-08
    115    129   2   0.50000    -0.4000000    0.0600000   2.066619e-04  7.875431e-08
    115    130   2   0.50000    -0.4000000    0.1700000   8.411158e-04  8.795366e-07
    120    128   2   0.50000     0.0300000    0.0600000   6.128906e-05  1.496315e-08
    120    129   2   0.50000     0.0300000    0.0600000   6.128906e-05  1.496315e-08
    120    130   2   0.50000     0.0300000    0.1700000   2.494471e-04  1.671101e-07
    114    117   2   0.50000     0.1700000   -0.1200000   1.015252e-03  1.866303e-06
    114    121   2   0.50000     0.1700000    0.0300000   2.494471e-04  1.671101e-07
    114    122   2   0.50000     0.1700000    0.0300000   2.494471e-04  1.671101e-07
    115    118   2   0.50000    -0.4000000   -0.1800000   8.411158e-04  8.795366e-07
    115    123   2   0.50000    -0.4000000    0.0600000   2.066619e-04  7.875431e-08
    115    124   2   0.50000    -0.4000000    0.0600000   2.066619e-04  7.875431e-08
    121    118   2   0.50000     0.0300000   -0.1800000   2.494471e-04  1.671101e-07
    121    123   2   0.50000     0.0300000    0.0600000   6.128906e-05  1.496315e-08
    121    124   2   0.50000     0.0300000    0.0600000   6.128906e-05  1.496315e-08
    122    118   2   0.50000     0.0300000   -0.1800000   2.494471e-04  1.671101e-07
    122    123   2   0.50000     0.0300000    0.0600000   6.128906e-05  1.496315e-08
    122    124   2   0.50000     0.0300000    0.0600000   6.128906e-05  1.496315e-08
    116    125   2   0.50000     0.1400000    0.0600000   2.494471e-04  1.671101e-07
    116    126   2   0.50000     0.1400000    0.0600000   2.494471e-04  1.671101e-07
    116    127   2   0.50000     0.1400000    0.0600000   2.494471e-04  1.671101e-07
    123    125   2   0.50000     0.0600000    0.0600000   6.128906e-05  1.496315e-08
    123    126   2   0.50000     0.0600000    0.0600000   6.128906e-05  1.496315e-08
    123    127   2   0.50000     0.0600000    0.0600000   6.128906e-05  1.496315e-08
    124    125   2   0.50000     0.0600000    0.0600000   6.128906e-05  1.496315e-08
    124    126   2   0.50000     0.0600000    0.0600000   6.128906e-05  1.496315e-08
    124    127   2   0.50000     0.0600000    0.0600000   6.128906e-05  1.496315e-08
    114    131   2   0.50000     0.1700000   -0.4000000   8.411158e-04  8.795366e-07
    114    135   2   0.50000     0.1700000   -0.1200000   1.015252e-03  1.866303e-06
    114    136   2   0.50000     0.1700000    0.0300000   2.494471e-04  1.671101e-07
    128    131   2   0.50000     0.0600000   -0.4000000   2.066619e-04  7.875431e-08
    128    135   2   0.50000     0.0600000   -0.1200000   2.494471e-04  1.671101e-07
    128    136   2   0.50000     0.0600000    0.0300000   6.128906e-05  1.496315e-08
    129    131   2   0.50000     0.0600000   -0.4000000   2.066619e-04  7.875431e-08
    129    135   2   0.50000     0.0600000   -0.1200000   2.494471e-04  1.671101e-07
    129    136   2   0.50000     0.0600000    0.0300000   6.128906e-05  1.496315e-08
    119    132   2   0.50000    -0.1200000    0.1400000   1.015252e-03  1.866303e-06
    135    132   2   0.50000    -0.1200000    0.1400000   1.015252e-03  1.866303e-06
    136    132   2   0.50000     0.0300000    0.1400000   2.494471e-04  1.671101e-07
    119    144   2   0.50000    -0.1200000    0.0600000   2.494471e-04  1.671101e-07
    119    145   2   0.50000    -0.1200000    0.0600000   2.494471e-04  1.671101e-07
    119    146   2   0.50000    -0.1200000    0.1700000   1.015252e-03  1.866303e-06
    131    144   2   0.50000    -0.4000000    0.0600000   2.066619e-04  7.875431e-08
    131    145   2   0.50000    -0.4000000    0.0600000   2.066619e-04  7.875431e-08
    131    146   2   0.50000    -0.4000000    0.1700000   8.411158e-04  8.795366e-07
    136    144   2   0.50000     0.0300000    0.0600000   6.128906e-05  1.496315e-08
    136    145   2   0.50000     0.0300000    0.0600000   6.128906e-05  1.496315e-08
    136    146   2   0.50000     0.0300000    0.1700000   2.494471e-04  1.671101e-07
    130    133   2   0.50000     0.1700000   -0.1200000   1.015252e-03  1.866303e-06
    130    137   2   0.50000     0.1700000    0.0300000   2.494471e-04  1.671101e-07
    130    138   2   0.50000     0.1700000    0.0300000   2.494471e-04  1.671101e-07
    131    134   2   0.50000    -0.4000000   -0.1800000   8.411158e-04  8.795366e-07
    131    139   2   0.50000    -0.4000000    0.0600000   2.066619e-04  7.875431e-08
    131    140   2   0.50000    -0.4000000    0.0600000   2.066619e-04  7.875431e-08
    137    134   2   0.50000     0.0300000   -0.1800000   2.494471e-04  1.671101e-07
    137    139   2   0.50000     0.0300000    0.0600000   6.128906e-05  1.496315e-08
    137    140   2   0.50000     0.0300000    0.0600000   6.128906e-05  1.496315e-08
    138    134   2   0.50000     0.0300000   -0.1800000   2.494471e-04  1.671101e-07
    138    139   2   0.50000     0.0300000    0.0600000   6.128906e-05  1.496315e-08
    138    140   2   0.50000     0.0300000    0.0600000   6.128906e-05  1.496315e-08
    132    141   2   0.50000     0.1400000    0.0600000   2.494471e-04  1.671101e-07
    132    142   2   0.50000     0.1400000    0.0600000   2.494471e-04  1.671101e-07
    132    143   2   0.50000     0.1400000    0.0600000   2.494471e-04  1.671101e-07
    139    141   2   0.50000     0.0600000    0.0600000   6.128906e-05  1.496315e-08
    139    142   2   0.50000     0.0600000    0.0600000   6.128906e-05  1.496315e-08
    139    143   2   0.50000     0.0600000    0.0600000   6.128906e-05  1.496315e-08
    140    141   2   0.50000     0.0600000    0.0600000   6.128906e-05  1.496315e-08
    140    142   2   0.50000     0.0600000    0.0600000   6.128906e-05  1.496315e-08
    140    143   2   0.50000     0.0600000    0.0600000   6.128906e-05  1.496315e-08
    130    147   2   0.50000     0.1700000   -0.4000000   8.411158e-04  8.795366e-07
    130    151   2   0.50000     0.1700000   -0.1200000   1.015252e-03  1.866303e-06
    130    152   2   0.50000     0.1700000    0.0300000   2.494471e-04  1.671101e-07
    144    147   2   0.50000     0.0600000   -0.4000000   2.066619e-04  7.875431e-08
    144    151   2   0.50000     0.0600000   -0.1200000   2.494471e-04  1.671101e-07
    144    152   2   0.50000     0.0600000    0.0300000   6.128906e-05  1.496315e-08
    145    147   2   0.50000     0.0600000   -0.4000000   2.066619e-04  7.875431e-08
    145    151   2   0.50000     0.0600000   -0.1200000   2.494471e-04  1.671101e-07
    145    152   2   0.50000     0.0600000    0.0300000   6.128906e-05  1.496315e-08
    135    148   2   0.50000    -0.1200000    0.1400000   1.015252e-03  1.866303e-06
    151    148   2   0.50000    -0.1200000    0.1400000   1.015252e-03  1.866303e-06
    152    148   2   0.50000     0.0300000    0.1400000   2.494471e-04  1.671101e-07
    135    160   2   0.50000    -0.1200000    0.0600000   2.494471e-04  1.671101e-07
    135    161   2   0.50000    -0.1200000    0.0600000   2.494471e-04  1.671101e-07
    135    162   2   0.50000    -0.1200000    0.1700000   1.015252e-03  1.866303e-06
    147    160   2   0.50000    -0.4000000    0.0600000   2.066619e-04  7.875431e-08
    147    161   2   0.50000    -0.4000000    0.0600000   2.066619e-04  7.875431e-08
    147    162   2   0.50000    -0.4000000    0.1700000   8.411158e-04  8.795366e-07
    152    160   2   0.50000     0.0300000    0.0600000   6.128906e-05  1.496315e-08
    152    161   2   0.50000     0.0300000    0.0600000   6.128906e-05  1.496315e-08
    152    162   2   0.50000     0.0300000    0.1700000   2.494471e-04  1.671101e-07
    146    149   2   0.50000     0.1700000   -0.1200000   1.015252e-03  1.866303e-06
    146    153   2   0.50000     0.1700000    0.0300000   2.494471e-04  1.671101e-07
    146    154   2   0.50000     0.1700000    0.0300000   2.494471e-04  1.671101e-07
    147    150   2   0.50000    -0.4000000   -0.1800000   8.411158e-04  8.795366e-07
    147    155   2   0.50000    -0.4000000    0.0600000   2.066619e-04  7.875431e-08
    147    156   2   0.50000    -0.4000000    0.0600000   2.066619e-04  7.875431e-08
    153    150   2   0.50000     0.0300000   -0.1800000   2.494471e-04  1.671101e-07
    153    155   2   0.50000     0.0300000    0.0600000   6.128906e-05  1.496315e-08
    153    156   2   0.50000     0.0300000    0.0600000   6.128906e-05  1.496315e-08
    154    150   2   0.50000     0.0300000   -0.1800000   2.494471e-04  1.671101e-07
    154    155   2   0.50000     0.0300000    0.0600000   6.128906e-05  1.496315e-08
    154    156   2   0.50000     0.0300000    0.0600000   6.128906e-05  1.496315e-08
    148    157   2   0.50000     0.1400000    0.0600000   2.494471e-04  1.671101e-07
    148    158   2   0.50000     0.1400000    0.0600000   2.494471e-04  1.671101e-07
    148    159   2   0.50000     0.1400000    0.0600000   2.494471e-04  1.671101e-07
    155    157   2   0.50000     0.0600000    0.0600000   6.128906e-05  1.496315e-08
    155    158   2   0.50000     0.0600000    0.0600000   6.128906e-05  1.496315e-08
    155    159   2   0.50000     0.0600000    0.0600000   6.128906e-05  1.496315e-08
    156    157   2   0.50000     0.0600000    0.0600000   6.128906e-05  1.496315e-08
    156    158   2   0.50000     0.0600000    0.0600000   6.128906e-05  1.496315e-08
    156    159   2   0.50000     0.0600000    0.0600000   6.128906e-05  1.496315e-08
    146    163   2   0.50000     0.1700000   -0.4000000   8.411158e-04  8.795366e-07
    146    167   2   0.50000     0.1700000   -0.1200000   1.015252e-03  1.866303e-06
    146    168   2   0.50000     0.1700000    0.0300000   2.494471e-04  1.671101e-07
    160    163   2   0.50000     0.0600000   -0.4000000   2.066619e-04  7.875431e-08
    160    167   2   0.50000     0.0600000   -0.1200000   2.494471e-04  1.671101e-07
    160    168   2   0.50000     0.0600000    0.0300000   6.128906e-05  1.496315e-08
    161    163   2   0.50000     0.0600000   -0.4000000   2.066619e-04  7.875431e-08
    161    167   2   0.50000     0.0600000   -0.1200000   2.494471e-04  1.671101e-07
    161    168   2   0.50000     0.0600000    0.0300000   6.128906e-05  1.496315e-08
    151    164   2   0.50000    -0.1200000    0.1400000   1.015252e-03  1.866303e-06
    167    164   2   0.50000    -0.1200000    0.1400000   1.015252e-03  1.866303e-06
    168    164   2   0.50000     0.0300000    0.1400000   2.494471e-04  1.671101e-07
    151    176   2   0.50000    -0.1200000    0.0600000   2.494471e-04  1.671101e-07
    151    177   2   0.50000    -0.1200000    0.0600000   2.494471e-04  1.671101e-07
    151    178   2   0.50000    -0.1200000    0.1700000   1.015252e-03  1.866303e-06
    163    176   2   0.50000    -0.4000000    0.0600000   2.066619e-04  7.875431e-08
    163    177   2   0.50000    -0.4000000    0.0600000   2.066619e-04  7.875431e-08
    163    178   2   0.50000    -0.4000000    0.1700000   8.411158e-04  8.795366e-07
    168    176   2   0.50000     0.0300000    0.0600000   6.128906e-05  1.496315e-08
    168    177   2   0.50000     0.0300000    0.0600000   6.128906e-05  1.496315e-08
    168    178   2   0.50000     0.0300000    0.1700000   2.494471e-04  1.671101e-07
    162    165   2   0.50000     0.1700000   -0.1200000   1.015252e-03  1.866303e-06
    162    169   2   0.50000     0.1700000    0.0300000   2.494471e-04  1.671101e-07
    162    170   2   0.50000     0.1700000    0.0300000   2.494471e-04  1.671101e-07
    163    166   2   0.50000    -0.4000000   -0.1800000   8.411158e-04  8.795366e-07
    163    171   2   0.50000    -0.4000000    0.0600000   2.066619e-04  7.875431e-08
    163    172   2   0.50000    -0.4000000    0.0600000   2.066619e-04  7.875431e-08
    169    166   2   0.50000     0.0300000   -0.1800000   2.494471e-04  1.671101e-07
    169    171   2   0.50000     0.0300000    0.0600000   6.128906e-05  1.496315e-08
    169    172   2   0.50000     0.0300000    0.0600000   6.128906e-05  1.496315e-08
    170    166   2   0.50000     0.0300000   -0.1800000   2.494471e-04  1.671101e-07
    170    171   2   0.50000     0.0300000    0.0600000   6.128906e-05  1.496315e-08
    170    172   2   0.50000     0.0300000    0.0600000   6.128906e-05  1.496315e-08
    164    173   2   0.50000     0.1400000    0.0600000   2.494471e-04  1.671101e-07
    164    174   2   0.50000     0.1400000    0.0600000   2.494471e-04  1.671101e-07
    164    175   2   0.50000     0.1400000    0.0600000   2.494471e-04  1.671101e-07
    171    173   2   0.50000     0.0600000    0.0600000   6.128906e-05  1.496315e-08
    171    174   2   0.50000     0.0600000    0.0600000   6.128906e-05  1.496315e-08
    171    175   2   0.50000     0.0600000    0.0600000   6.128906e-05  1.496315e-08
    172    173   2   0.50000     0.0600000    0.0600000   6.128906e-05  1.496315e-08
    172    174   2   0.50000     0.0600000    0.0600000   6.128906e-05  1.496315e-08
    172    175   2   0.50000     0.0600000    0.0600000   6.128906e-05  1.496315e-08
    162    179   2   0.50000     0.1700000   -0.4000000   8.411158e-04  8.795366e-07
    162    183   2   0.50000     0.1700000   -0.1200000   1.015252e-03  1.866303e-06
    162    184   2   0.50000     0.1700000    0.0300000   2.494471e-04  1.671101e-07
    176    179   2   0.50000     0.0600000   -0.4000000   2.066619e-04  7.875431e-08
    176    183   2   0.50000     0.0600000   -0.1200000   2.494471e-04  1.671101e-07
    176    184   2   0.50000     0.0600000    0.0300000   6.128906e-05  1.496315e-08
    177    179   2   0.50000     0.0600000   -0.4000000   2.066619e-04  7.875431e-08
    177    183   2   0.50000     0.0600000   -0.1200000   2.494471e-04  1.671101e-07
    177    184   2   0.50000     0.0600000    0.0300000   6.128906e-05  1.496315e-08
    167    180   2   0.50000    -0.1200000    0.1400000   1.015252e-03  1.866303e-06
    183    180   2   0.50000    -0.1200000    0.1400000   1.015252e-03  1.866303e-06
    184    180   2   0.50000     0.0300000    0.1400000   2.494471e-04  1.671101e-07
    167    192   2   0.50000    -0.1200000    0.0600000   2.494471e-04  1.671101e-07
    167    193   2   0.50000    -0.1200000    0.0600000   2.494471e-04  1.671101e-07
    167    194   2   0.50000    -0.1200000    0.1700000   1.015252e-03  1.866303e-06
    179    192   2   0.50000    -0.4000000    0.0600000   2.066619e-04  7.875431e-08
    179    193   2   0.50000    -0.4000000    0.0600000   2.066619e-04  7.875431e-08
    179    194   2   0.50000    -0.4000000    0.1700000   8.411158e-04  8.795366e-07
    184    192   2   0.50000     0.0300000    0.0600000   6.128906e-05  1.496315e-08
    184    193   2   0.50000     0.0300000    0.0600000   6.128906e-05  1.496315e-08
    184    194   2   0.50000     0.0300000    0.1700000   2.494471e-04  1.671101e-07
    178    181   2   0.50000     0.1700000   -0.1200000   1.015252e-03  1.866303e-06
    178    185   2   0.50000     0.1700000    0.0300000   2.494471e-04  1.671101e-07
    178    186   2   0.50000     0.1700000    0.0300000   2.494471e-04  1.671101e-07
    179    182   2   0.50000    -0.4000000   -0.1800000   8.411158e-04  8.795366e-07
    179    187   2   0.50000    -0.4000000    0.0600000   2.066619e-04  7.875431e-08
    179    188   2   0.50000    -0.4000000    0.0600000   2.066619e-04  7.875431e-08
    185    182   2   0.50000     0.0300000   -0.1800000   2.494471e-04  1.671101e-07
    185    187   2   0.50000     0.0300000    0.0600000   6.128906e-05  1.496315e-08
    185    188   2   0.50000     0.0300000    0.0600000   6.128906e-05  1.496315e-08
    186    182   2   0.50000     0.0300000   -0.1800000   2.494471e-04  1.671101e-07
    186    187   2   0.50000     0.0300000    0.0600000   6.128906e-05  1.496315e-08
    186    188   2   0.50000     0.0300000    0.0600000   6.128906e-05  1.496315e-08
    180    189   2   0.50000     0.1400000    0.0600000   2.494471e-04  1.671101e-07
    180    190   2   0.50000     0.1400000    0.0600000   2.494471e-04  1.671101e-07
    180    191   2   0.50000     0.1400000    0.0600000   2.494471e-04  1.671101e-07
    187    189   2   0.50000     0.0600000    0.0600000   6.128906e-05  1.496315e-08
    187    190   2   0.50000     0.0600000    0.0600000   6.128906e-05  1.496315e-08
    187    191   2   0.50000     0.0600000    0.0600000   6.128906e-05  1.496315e-08
    188    189   2   0.50000     0.0600000    0.0600000   6.128906e-05  1.496315e-08
    188    190   2   0.50000     0.0600000    0.0600000   6.128906e-05  1.496315e-08
    188    191   2   0.50000     0.0600000    0.0600000   6.128906e-05  1.496315e-08
    178    195   2   0.50000     0.1700000   -0.4000000   8.411158e-04  8.795366e-07
    178    199   2   0.50000     0.1700000   -0.1200000   1.015252e-03  1.866303e-06
    178    200   2   0.50000     0.1700000    0.0300000   2.494471e-04  1.671101e-07
    192    195   2   0.50000     0.0600000   -0.4000000   2.066619e-04  7.875431e-08
    192    199   2   0.50000     0.0600000   -0.1200000   2.494471e-04  1.671101e-07
    192    200   2   0.50000     0.0600000    0.0300000   6.128906e-05  1.496315e-08
    193    195   2   0.50000     0.0600000   -0.4000000   2.066619e-04  7.875431e-08
    193    199   2   0.50000     0.0600000   -0.1200000   2.494471e-04  1.671101e-07
    193    200   2   0.50000     0.0600000    0.0300000   6.128906e-05  1.496315e-08
    183    196   2   0.50000    -0.1200000    0.1400000   1.015252e-03  1.866303e-06
    199    196   2   0.50000    -0.1200000    0.1400000   1.015252e-03  1.866303e-06
    200    196   2   0.50000     0.0300000    0.1400000   2.494471e-04  1.671101e-07
    183    208   2   0.50000    -0.1200000    0.0600000   2.494471e-04  1.671101e-07
    183    209   2   0.50000    -0.1200000    0.0600000   2.494471e-04  1.671101e-07
    183    210   2   0.50000    -0.1200000    0.1700000   1.015252e-03  1.866303e-06
    195    208   2   0.50000    -0.4000000    0.0600000   2.066619e-04  7.875431e-08
    195    209   2   0.50000    -0.4000000    0.0600000   2.066619e-04  7.875431e-08
    195    210   2   0.50000    -0.4000000    0.1700000   8.411158e-04  8.795366e-07
    200    208   2   0.50000     0.0300000    0.0600000   6.128906e-05  1.496315e-08
    200    209   2   0.50000     0.0300000    0.0600000   6.128906e-05  1.496315e-08
    200    210   2   0.50000     0.0300000    0.1700000   2.494471e-04  1.671101e-07
    194    197   2   0.50000     0.1700000   -0.1200000   1.015252e-03  1.866303e-06
    194    201   2   0.50000     0.1700000    0.0300000   2.494471e-04  1.671101e-07
    194    202   2   0.50000     0.1700000    0.0300000   2.494471e-04  1.671101e-07
    195    198   2   0.50000    -0.4000000   -0.1800000   8.411158e-04  8.795366e-07
    195    203   2   0.50000    -0.4000000    0.0600000   2.066619e-04  7.875431e-08
    195    204   2   0.50000    -0.4000000    0.0600000   2.066619e-04  7.875431e-08
    201    198   2   0.50000     0.0300000   -0.1800000   2.494471e-04  1.671101e-07
    201    203   2   0.50000     0.0300000    0.0600000   6.128906e-05  1.496315e-08
    201    204   2   0.50000     0.0300000    0.0600000   6.128906e-05  1.496315e-08
    202    198   2   0.50000     0.0300000   -0.1800000   2.494471e-04  1.671101e-07
    202    203   2   0.50000     0.0300000    0.0600000   6.128906e-05  1.496315e-08
    202    204   2   0.50000     0.0300000    0.0600000   6.128906e-05  1.496315e-08
    196    205   2   0.50000     0.1400000    0.0600000   2.494471e-04  1.671101e-07
    196    206   2   0.50000     0.1400000    0.0600000   2.494471e-04  1.671101e-07
    196    207   2   0.50000     0.1400000    0.0600000   2.494471e-04  1.671101e-07
    203    205   2   0.50000     0.0600000    0.0600000   6.128906e-05  1.496315e-08
    203    206   2   0.50000     0.0600000    0.0600000   6.128906e-05  1.496315e-08
    203    207   2   0.50000     0.0600000    0.0600000   6.128906e-05  1.496315e-08
    204    205   2   0.50000     0.0600000    0.0600000   6.128906e-05  1.496315e-08
    204    206   2   0.50000     0.0600000    0.0600000   6.128906e-05  1.496315e-08
    204    207   2   0.50000     0.0600000    0.0600000   6.128906e-05  1.496315e-08
    194    211   2   0.50000     0.1700000   -0.4000000   8.411158e-04  8.795366e-07
    194    215   2   0.50000     0.1700000   -0.1200000   1.015252e-03  1.866303e-06
    194    216   2   0.50000     0.1700000    0.0300000   2.494471e-04  1.671101e-07
    208    211   2   0.50000     0.0600000   -0.4000000   2.066619e-04  7.875431e-08
    208    215   2   0.50000     0.0600000   -0.1200000   2.494471e-04  1.671101e-07
    208    216   2   0.50000     0.0600000    0.0300000   6.128906e-05  1.496315e-08
    209    211   2   0.50000     0.0600000   -0.4000000   2.066619e-04  7.875431e-08
    209    215   2   0.50000     0.0600000   -0.1200000   2.494471e-04  1.671101e-07
    209    216   2   0.50000     0.0600000    0.0300000   6.128906e-05  1.496315e-08
    199    212   2   0.50000    -0.1200000    0.1400000   1.015252e-03  1.866303e-06
    215    212   2   0.50000    -0.1200000    0.1400000   1.015252e-03  1.866303e-06
    216    212   2   0.50000     0.0300000    0.1400000   2.494471e-04  1.671101e-07
    199    224   2   0.50000    -0.1200000    0.0600000   2.494471e-04  1.671101e-07
    199    225   2   0.50000    -0.1200000    0.0600000   2.494471e-04  1.671101e-07
    199    226   2   0.50000    -0.1200000    0.1700000   1.015252e-03  1.866303e-06
    211    224   2   0.50000    -0.4000000    0.0600000   2.066619e-04  7.875431e-08
    211    225   2   0.50000    -0.4000000    0.0600000   2.066619e-04  7.875431e-08
    211    226   2   0.50000    -0.4000000    0.1700000   8.411158e-04  8.795366e-07
    216    224   2   0.50000     0.0300000    0.0600000   6.128906e-05  1.496315e-08
    216    225   2   0.50000     0.0300000    0.0600000   6.128906e-05  1.496315e-08
    216    226   2   0.50000     0.0300000    0.1700000   2.494471e-04  1.671101e-07
    210    213   2   0.50000     0.1700000   -0.1200000   1.015252e-03  1.866303e-06
    210    217   2   0.50000     0.1700000    0.0300000   2.494471e-04  1.671101e-07
    210    218   2   0.50000     0.1700000    0.0300000   2.494471e-04  1.671101e-07
    211    214   2   0.50000    -0.4000000   -0.1800000   8.411158e-04  8.795366e-07
    211    219   2   0.50000    -0.4000000    0.0600000   2.066619e-04  7.875431e-08
    211    220   2   0.50000    -0.4000000    0.0600000   2.066619e-04  7.875431e-08
    217    214   2   0.50000     0.0300000   -0.1800000   2.494471e-04  1.671101e-07
    217    219   2   0.50000     0.0300000    0.0600000   6.128906e-05  1.496315e-08
    217    220   2   0.50000     0.0300000    0.0600000   6.128906e-05  1.496315e-08
    218    214   2   0.50000     0.0300000   -0.1800000   2.494471e-04  1.671101e-07
    218    219   2   0.50000     0.0300000    0.0600000   6.128906e-05  1.496315e-08
    218    220   2   0.50000     0.0300000    0.0600000   6.128906e-05  1.496315e-08
    212    221   2   0.50000     0.1400000    0.0600000   2.494471e-04  1.671101e-07
    212    222   2   0.50000     0.1400000    0.0600000   2.494471e-04  1.671101e-07
    212    223   2   0.50000     0.1400000    0.0600000   2.494471e-04  1.671101e-07
    219    221   2   0.50000     0.0600000    0.0600000   6.128906e-05  1.496315e-08
    219    222   2   0.50000     0.0600000    0.0600000   6.128906e-05  1.496315e-08
    219    223   2   0.50000     0.0600000    0.0600000   6.128906e-05  1.496315e-08
    220    221   2   0.50000     0.0600000    0.0600000   6.128906e-05  1.496315e-08
    220    222   2   0.50000     0.0600000    0.0600000   6.128906e-05  1.496315e-08
    220    223   2   0.50000     0.0600000    0.0600000   6.128906e-05  1.496315e-08
    210    227   2   0.50000     0.1700000   -0.4000000   8.411158e-04  8.795366e-07
    210    231   2   0.50000     0.1700000   -0.1200000   1.015252e-03  1.866303e-06
    210    232   2   0.50000     0.1700000    0.0300000   2.494471e-04  1.671101e-07
    224    227   2   0.50000     0.0600000   -0.4000000   2.066619e-04  7.875431e-08
    224    231   2   0.50000     0.0600000   -0.1200000   2.494471e-04  1.671101e-07
    224    232   2   0.50000     0.0600000    0.0300000   6.128906e-05  1.496315e-08
    225    227   2   0.50000     0.0600000   -0.4000000   2.066619e-04  7.875431e-08
    225    231   2   0.50000     0.0600000   -0.1200000   2.494471e-04  1.671101e-07
    225    232   2   0.50000     0.0600000    0.0300000   6.128906e-05  1.496315e-08
    215    228   2   0.50000    -0.1200000    0.1400000   1.015252e-03  1.866303e-06
    231    228   2   0.50000    -0.1200000    0.1400000   1.015252e-03  1.866303e-06
    232    228   2   0.50000     0.0300000    0.1400000   2.494471e-04  1.671101e-07
    215    240   2   0.50000    -0.1200000    0.0600000   2.494471e-04  1.671101e-07
    215    241   2   0.50000    -0.1200000    0.0600000   2.494471e-04  1.671101e-07
    215    242   2   0.50000    -0.1200000    0.1700000   1.015252e-03  1.866303e-06
    227    240   2   0.50000    -0.4000000    0.0600000   2.066619e-04  7.875431e-08
    227    241   2   0.50000    -0.4000000    0.0600000   2.066619e-04  7.875431e-08
    227    242   2   0.50000    -0.4000000    0.1700000   8.411158e-04  8.795366e-07
    232    240   2   0.50000     0.0300000    0.0600000   6.128906e-05  1.496315e-08
    232    241   2   0.50000     0.0300000    0.0600000   6.128906e-05  1.496315e-08
    232    242   2   0.50000     0.0300000    0.1700000   2.494471e-04  1.671101e-07
    226    229   2   0.50000     0.1700000   -0.1200000   1.015252e-03  1.866303e-06
    226    233   2   0.50000     0.1700000    0.0300000   2.494471e-04  1.671101e-07
    226    234   2   0.50000     0.1700000    0.0300000   2.494471e-04  1.671101e-07
    227    230   2   0.50000    -0.4000000   -0.1800000   8.411158e-04  8.795366e-07
    227    235   2   0.50000    -0.4000000    0.0600000   2.066619e-04  7.875431e-08
    227    236   2   0.50000    -0.4000000    0.0600000   2.066619e-04  7.875431e-08
    233    230   2   0.50000     0.0300000   -0.1800000   2.494471e-04  1.671101e-07
    233    235   2   0.50000     0.0300000    0.0600000   6.128906e-05  1.496315e-08
    233    236   2   0.50000     0.0300000    0.0600000   6.128906e-05  1.496315e-08
    234    230   2   0.50000     0.0300000   -0.1800000   2.494471e-04  1.671101e-07
    234    235   2   0.50000     0.0300000    0.0600000   6.128906e-05  1.496315e-08
    234    236   2   0.50000     0.0300000    0.0600000   6.128906e-05  1.496315e-08
    228    237   2   0.50000     0.1400000    0.0600000   2.494471e-04  1.671101e-07
    228    238   2   0.50000     0.1400000    0.0600000   2.494471e-04  1.671101e-07
    228    239   2   0.50000     0.1400000    0.0600000   2.494471e-04  1.671101e-07
    235    237   2   0.50000     0.0600000    0.0600000   6.128906e-05  1.496315e-08
    235    238   2   0.50000     0.0600000    0.0600000   6.128906e-05  1.496315e-08
    235    239   2   0.50000     0.0600000    0.0600000   6.128906e-05  1.496315e-08
    236    237   2   0.50000     0.0600000    0.0600000   6.128906e-05  1.496315e-08
    236    238   2   0.50000     0.0600000    0.0600000   6.128906e-05  1.496315e-08
    236    239   2   0.50000     0.0600000    0.0600000   6.128906e-05  1.496315e-08
    226    243   2   0.50000     0.1700000   -0.4000000   8.411158e-04  8.795366e-07
    226    247   2   0.50000     0.1700000   -0.1200000   1.015252e-03  1.866303e-06
    226    248   2   0.50000     0.1700000    0.0300000   2.494471e-04  1.671101e-07
    240    243   2   0.50000     0.0600000   -0.4000000   2.066619e-04  7.875431e-08
    240    247   2   0.50000     0.0600000   -0.1200000   2.494471e-04  1.671101e-07
    240    248   2   0.50000     0.0600000    0.0300000   6.128906e-05  1.496315e-08
    241    243   2   0.50000     0.0600000   -0.4000000   2.066619e-04  7.875431e-08
    241    247   2   0.50000     0.0600000   -0.1200000   2.494471e-04  1.671101e-07
    241    248   2   0.50000     0.0600000    0.0300000   6.128906e-05  1.496315e-08
    231    244   2   0.50000    -0.1200000    0.1400000   1.015252e-03  1.866303e-06
    247    244   2   0.50000    -0.1200000    0.1400000   1.015252e-03  1.866303e-06
    248    244   2   0.50000     0.0300000    0.1400000   2.494471e-04  1.671101e-07
    231    256   2   0.50000    -0.1200000    0.0600000   2.494471e-04  1.671101e-07
    231    257   2   0.50000    -0.1200000    0.0600000   2.494471e-04  1.671101e-07
    231    258   2   0.50000    -0.1200000    0.1700000   1.015252e-03  1.866303e-06
    243    256   2   0.50000    -0.4000000    0.0600000   2.066619e-04  7.875431e-08
    243    257   2   0.50000    -0.4000000    0.0600000   2.066619e-04  7.875431e-08
    243    258   2   0.50000    -0.4000000    0.1700000   8.411158e-04  8.795366e-07
    248    256   2   0.50000     0.0300000    0.0600000   6.128906e-05  1.496315e-08
    248    257   2   0.50000     0.0300000    0.0600000   6.128906e-05  1.496315e-08
    248    258   2   0.50000     0.0300000    0.1700000   2.494471e-04  1.671101e-07
    242    245   2   0.50000     0.1700000   -0.1200000   1.015252e-03  1.866303e-06
    242    249   2   0.50000     0.1700000    0.0300000   2.494471e-04  1.671101e-07
    242    250   2   0.50000     0.1700000    0.0300000   2.494471e-04  1.671101e-07
    243    246   2   0.50000    -0.4000000   -0.1800000   8.411158e-04  8.795366e-07
    243    251   2   0.50000    -0.4000000    0.0600000   2.066619e-04  7.875431e-08
    243    252   2   0.50000    -0.4000000    0.0600000   2.066619e-04  7.875431e-08
    249    246   2   0.50000     0.0300000   -0.1800000   2.494471e-04  1.671101e-07
    249    251   2   0.50000     0.0300000    0.0600000   6.128906e-05  1.496315e-08
    249    252   2   0.50000     0.0300000    0.0600000   6.128906e-05  1.496315e-08
    250    246   2   0.50000     0.0300000   -0.1800000   2.494471e-04  1.671101e-07
    250    251   2   0.50000     0.0300000    0.0600000   6.128906e-05  1.496315e-08
    250    252   2   0.50000     0.0300000    0.0600000   6.128906e-05  1.496315e-08
    244    253   2   0.50000     0.1400000    0.0600000   2.494471e-04  1.671101e-07
    244    254   2   0.50000     0.1400000    0.0600000   2.494471e-04  1.671101e-07
    244    255   2   0.50000     0.1400000    0.0600000   2.494471e-04  1.671101e-07
    251    253   2   0.50000     0.0600000    0.0600000   6.128906e-05  1.496315e-08
    251    254   2   0.50000     0.0600000    0.0600000   6.128906e-05  1.496315e-08
    251    255   2   0.50000     0.0600000    0.0600000   6.128906e-05  1.496315e-08
    252    253   2   0.50000     0.0600000    0.0600000   6.128906e-05  1.496315e-08
    252    254   2   0.50000     0.0600000    0.0600000   6.128906e-05  1.496315e-08
    252    255   2   0.50000     0.0600000    0.0600000   6.128906e-05  1.496315e-08
    242    259   2   0.50000     0.1700000   -0.4000000   8.411158e-04  8.795366e-07
    242    263   2   0.50000     0.1700000   -0.1200000   1.015252e-03  1.866303e-06
    242    264   2   0.50000     0.1700000    0.0300000   2.494471e-04  1.671101e-07
    256    259   2   0.50000     0.0600000   -0.4000000   2.066619e-04  7.875431e-08
    256    263   2   0.50000     0.0600000   -0.1200000   2.494471e-04  1.671101e-07
    256    264   2   0.50000     0.0600000    0.0300000   6.128906e-05  1.496315e-08
    257    259   2   0.50000     0.0600000   -0.4000000   2.066619e-04  7.875431e-08
    257    263   2   0.50000     0.0600000   -0.1200000   2.494471e-04  1.671101e-07
    257    264   2   0.50000     0.0600000    0.0300000   6.128906e-05  1.496315e-08
    247    260   2   0.50000    -0.1200000    0.1400000   1.015252e-03  1.866303e-06
    263    260   2   0.50000    -0.1200000    0.1400000   1.015252e-03  1.866303e-06
    264    260   2   0.50000     0.0300000    0.1400000   2.494471e-04  1.671101e-07
    247    272   2   0.50000    -0.1200000    0.0600000   2.494471e-04  1.671101e-07
    247    273   2   0.50000    -0.1200000    0.0600000   2.494471e-04  1.671101e-07
    247    274   2   0.50000    -0.1200000    0.1700000   1.015252e-03  1.866303e-06
    259    272   2   0.50000    -0.4000000    0.0600000   2.066619e-04  7.875431e-08
    259    273   2   0.50000    -0.4000000    0.0600000   2.066619e-04  7.875431e-08
    259    274   2   0.50000    -0.4000000    0.1700000   8.411158e-04  8.795366e-07
    264    272   2   0.50000     0.0300000    0.0600000   6.128906e-05  1.496315e-08
    264    273   2   0.50000     0.0300000    0.0600000   6.128906e-05  1.496315e-08
    264    274   2   0.50000     0.0300000    0.1700000   2.494471e-04  1.671101e-07
    258    261   2   0.50000     0.1700000   -0.1200000   1.015252e-03  1.866303e-06
    258    265   2   0.50000     0.1700000    0.0300000   2.494471e-04  1.671101e-07
    258    266   2   0.50000     0.1700000    0.0300000   2.494471e-04  1.671101e-07
    259    262   2   0.50000    -0.4000000   -0.1800000   8.411158e-04  8.795366e-07
    259    267   2   0.50000    -0.4000000    0.0600000   2.066619e-04  7.875431e-08
    259    268   2   0.50000    -0.4000000    0.0600000   2.066619e-04  7.875431e-08
    265    262   2   0.50000     0.0300000   -0.1800000   2.494471e-04  1.671101e-07
    265    267   2   0.50000     0.0300000    0.0600000   6.128906e-05  1.496315e-08
    265    268   2   0.50000     0.0300000    0.0600000   6.128906e-05  1.496315e-08
    266    262   2   0.50000     0.0300000   -0.1800000   2.494471e-04  1.671101e-07
    266    267   2   0.50000     0.0300000    0.0600000   6.128906e-05  1.496315e-08
    266    268   2   0.50000     0.0300000    0.0600000   6.128906e-05  1.496315e-08
    260    269   2   0.50000     0.1400000    0.0600000   2.494471e-04  1.671101e-07
    260    270   2   0.50000     0.1400000    0.0600000   2.494471e-04  1.671101e-07
    260    271   2   0.50000     0.1400000    0.0600000   2.494471e-04  1.671101e-07
    267    269   2   0.50000     0.0600000    0.0600000   6.128906e-05  1.496315e-08
    267    270   2   0.50000     0.0600000    0.0600000   6.128906e-05  1.496315e-08
    267    271   2   0.50000     0.0600000    0.0600000   6.128906e-05  1.496315e-08
    268    269   2   0.50000     0.0600000    0.0600000   6.128906e-05  1.496315e-08
    268    270   2   0.50000     0.0600000    0.0600000   6.128906e-05  1.496315e-08
    268    271   2   0.50000     0.0600000    0.0600000   6.128906e-05  1.496315e-08
    258    275   2   0.50000     0.1700000   -0.4000000   8.411158e-04  8.795366e-07
    258    279   2   0.50000     0.1700000   -0.1200000   1.015252e-03  1.866303e-06
    258    280   2   0.50000     0.1700000    0.0300000   2.494471e-04  1.671101e-07
    272    275   2   0.50000     0.0600000   -0.4000000   2.066619e-04  7.875431e-08
    272    279   2   0.50000     0.0600000   -0.1200000   2.494471e-04  1.671101e-07
    272    280   2   0.50000     0.0600000    0.0300000   6.128906e-05  1.496315e-08
    273    275   2   0.50000     0.0600000   -0.4000000   2.066619e-04  7.875431e-08
    273    279   2   0.50000     0.0600000   -0.1200000   2.494471e-04  1.671101e-07
    273    280   2   0.50000     0.0600000    0.0300000   6.128906e-05  1.496315e-08
    263    276   2   0.50000    -0.1200000    0.1400000   1.015252e-03  1.866303e-06
    279    276   2   0.50000    -0.1200000    0.1400000   1.015252e-03  1.866303e-06
    280    276   2   0.50000     0.0300000    0.1400000   2.494471e-04  1.671101e-07
    263    288   2   0.50000    -0.1200000    0.0600000   2.494471e-04  1.671101e-07
    263    289   2   0.50000    -0.1200000    0.0600000   2.494471e-04  1.671101e-07
    263    290   2   0.50000    -0.1200000    0.1700000   1.015252e-03  1.866303e-06
    275    288   2   0.50000    -0.4000000    0.0600000   2.066619e-04  7.875431e-08
    275    289   2   0.50000    -0.4000000    0.0600000   2.066619e-04  7.875431e-08
    275    290   2   0.50000    -0.4000000    0.1700000   8.411158e-04  8.795366e-07
    280    288   2   0.50000     0.0300000    0.0600000   6.128906e-05  1.496315e-08
    280    289   2   0.50000     0.0300000    0.0600000   6.128906e-05  1.496315e-08
    280    290   2   0.50000     0.0300000    0.1700000   2.494471e-04  1.671101e-07
    274    277   2   0.50000     0.1700000   -0.1200000   1.015252e-03  1.866303e-06
    274    281   2   0.50000     0.1700000    0.0300000   2.494471e-04  1.671101e-07
    274    282   2   0.50000     0.1700000    0.0300000   2.494471e-04  1.671101e-07
    275    278   2   0.50000    -0.4000000   -0.1800000   8.411158e-04  8.795366e-07
    275    283   2   0.50000    -0.4000000    0.0600000   2.066619e-04  7.875431e-08
    275    284   2   0.50000    -0.4000000    0.0600000   2.066619e-04  7.875431e-08
    281    278   2   0.50000     0.0300000   -0.1800000   2.494471e-04  1.671101e-07
    281    283   2   0.50000     0.0300000    0.0600000   6.128906e-05  1.496315e-08
    281    284   2   0.50000     0.0300000    0.0600000   6.128906e-05  1.496315e-08
    282    278   2   0.50000     0.0300000   -0.1800000   2.494471e-04  1.671101e-07
    282    283   2   0.50000     0.0300000    0.0600000   6.128906e-05  1.496315e-08
    282    284   2   0.50000     0.0300000    0.0600000   6.128906e-05  1.496315e-08
    276    285   2   0.50000     0.1400000    0.0600000   2.494471e-04  1.671101e-07
    276    286   2   0.50000     0.1400000    0.0600000   2.494471e-04  1.671101e-07
    276    287   2   0.50000     0.1400000    0.0600000   2.494471e-04  1.671101e-07
    283    285   2   0.50000     0.0600000    0.0600000   6.128906e-05  1.496315e-08
    283    286   2   0.50000     0.0600000    0.0600000   6.128906e-05  1.496315e-08
    283    287   2   0.50000     0.0600000    0.0600000   6.128906e-05  1.496315e-08
    284    285   2   0.50000     0.0600000    0.0600000   6.128906e-05  1.496315e-08
    284    286   2   0.50000     0.0600000    0.0600000   6.128906e-05  1.496315e-08
    284    287   2   0.50000     0.0600000    0.0600000   6.128906e-05  1.496315e-08
    274    291   2   0.50000     0.1700000   -0.4000000   8.411158e-04  8.795366e-07
    274    295   2   0.50000     0.1700000   -0.1200000   1.015252e-03  1.866303e-06
    274    296   2   0.50000     0.1700000    0.0300000   2.494471e-04  1.671101e-07
    288    291   2   0.50000     0.0600000   -0.4000000   2.066619e-04  7.875431e-08
    288    295   2   0.50000     0.0600000   -0.1200000   2.494471e-04  1.671101e-07
    288    296   2   0.50000     0.0600000    0.0300000   6.128906e-05  1.496315e-08
    289    291   2   0.50000     0.0600000   -0.4000000   2.066619e-04  7.875431e-08
    289    295   2   0.50000     0.0600000   -0.1200000   2.494471e-04  1.671101e-07
    289    296   2   0.50000     0.0600000    0.0300000   6.128906e-05  1.496315e-08
    279    292   2   0.50000    -0.1200000    0.1400000   1.015252e-03  1.866303e-06
    295    292   2   0.50000    -0.1200000    0.1400000   1.015252e-03  1.866303e-06
    296    292   2   0.50000     0.0300000    0.1400000   2.494471e-04  1.671101e-07
    279    304   2   0.50000    -0.1200000    0.0600000   2.494471e-04  1.671101e-07
    279    305   2   0.50000    -0.1200000    0.0600000   2.494471e-04  1.671101e-07
    279    306   2   0.50000    -0.1200000    0.1700000   1.015252e-03  1.866303e-06
    291    304   2   0.50000    -0.4000000    0.0600000   2.066619e-04  7.875431e-08
    291    305   2   0.50000    -0.4000000    0.0600000   2.066619e-04  7.875431e-08
    291    306   2   0.50000    -0.4000000    0.1700000   8.411158e-04  8.795366e-07
    296    304   2   0.50000     0.0300000    0.0600000   6.128906e-05  1.496315e-08
    296    305   2   0.50000     0.0300000    0.0600000   6.128906e-05  1.496315e-08
    296    306   2   0.50000     0.0300000    0.1700000   2.494471e-04  1.671101e-07
    290    293   2   0.50000     0.1700000   -0.1200000   1.015252e-03  1.866303e-06
    290    297   2   0.50000     0.1700000    0.0300000   2.494471e-04  1.671101e-07
    290    298   2   0.50000     0.1700000    0.0300000   2.494471e-04  1.671101e-07
    291    294   2   0.50000    -0.4000000   -0.1800000   8.411158e-04  8.795366e-07
    291    299   2   0.50000    -0.4000000    0.0600000   2.066619e-04  7.875431e-08
    291    300   2   0.50000    -0.4000000    0.0600000   2.066619e-04  7.875431e-08
    297    294   2   0.50000     0.0300000   -0.1800000   2.494471e-04  1.671101e-07
    297    299   2   0.50000     0.0300000    0.0600000   6.128906e-05  1.496315e-08
    297    300   2   0.50000     0.0300000    0.0600000   6.128906e-05  1.496315e-08
    298    294   2   0.50000     0.0300000   -0.1800000   2.494471e-04  1.671101e-07
    298    299   2   0.50000     0.0300000    0.0600000   6.128906e-05  1.496315e-08
    298    300   2   0.50000     0.0300000    0.0600000   6.128906e-05  1.496315e-08
    292    301   2   0.50000     0.1400000    0.0600000   2.494471e-04  1.671101e-07
    292    302   2   0.50000     0.1400000    0.0600000   2.494471e-04  1.671101e-07
    292    303   2   0.50000     0.1400000    0.0600000   2.494471e-04  1.671101e-07
    299    301   2   0.50000     0.0600000    0.0600000   6.128906e-05  1.496315e-08
    299    302   2   0.50000     0.0600000    0.0600000   6.128906e-05  1.496315e-08
    299    303   2   0.50000     0.0600000    0.0600000   6.128906e-05  1.496315e-08
    300    301   2   0.50000     0.0600000    0.0600000   6.128906e-05  1.496315e-08
    300    302   2   0.50000     0.0600000    0.0600000   6.128906e-05  1.496315e-08
    300    303   2   0.50000     0.0600000    0.0600000   6.128906e-05  1.496315e-08
    290    307   2   0.50000     0.1700000   -0.4000000   8.411158e-04  8.795366e-07
    290    311   2   0.50000     0.1700000   -0.1800000   1.015252e-03  1.866303e-06
    290    312   2   0.50000     0.1700000    0.0300000   2.494471e-04  1.671101e-07
    304    307   2   0.50000     0.0600000   -0.4000000   2.066619e-04  7.875431e-08
    304    311   2   0.50000     0.0600000   -0.1800000   2.494471e-04  1.671101e-07
    304    312   2   0.50000     0.0600000    0.0300000   6.128906e-05  1.496315e-08
    305    307   2   0.50000     0.0600000   -0.4000000   2.066619e-04  7.875431e-08
    305    311   2   0.50000     0.0600000   -0.1800000   2.494471e-04  1.671101e-07
    305    312   2   0.50000     0.0600000    0.0300000   6.128906e-05  1.496315e-08
    295    308   2   0.50000    -0.1200000    0.1400000   1.015252e-03  1.866303e-06
    311    308   2   0.50000    -0.1800000    0.1400000   1.015252e-03  1.866303e-06
    312    308   2   0.50000     0.0300000    0.1400000   2.494471e-04  1.671101e-07
    295    320   2   0.50000    -0.1200000    0.0600000   2.494471e-04  1.671101e-07
    295    321   2   0.50000    -0.1200000    0.0600000   2.494471e-04  1.671101e-07
    295    322   2   0.50000    -0.1200000    0.0600000   2.494471e-04  1.671101e-07
    307    320   2   0.50000    -0.4000000    0.0600000   2.066619e-04  7.875431e-08
    307    321   2   0.50000    -0.4000000    0.0600000   2.066619e-04  7.875431e-08
    307    322   2   0.50000    -0.4000000    0.0600000   2.066619e-04  7.875431e-08
    312    320   2   0.50000     0.0300000    0.0600000   6.128906e-05  1.496315e-08
    312    321   2   0.50000     0.0300000    0.0600000   6.128906e-05  1.496315e-08
    312    322   2   0.50000     0.0300000    0.0600000   6.128906e-05  1.496315e-08
    306    309   2   0.50000     0.1700000   -0.1200000   1.015252e-03  1.866303e-06
    306    313   2   0.50000     0.1700000    0.0300000   2.494471e-04  1.671101e-07
    306    314   2   0.50000     0.1700000    0.0300000   2.494471e-04  1.671101e-07
    307    310   2   0.50000    -0.4000000   -0.1800000   8.411158e-04  8.795366e-07
    307    315   2   0.50000    -0.4000000    0.0600000   2.066619e-04  7.875431e-08
    307    316   2   0.50000    -0.4000000    0.0600000   2.066619e-04  7.875431e-08
    313    310   2   0.50000     0.0300000   -0.1800000   2.494471e-04  1.671101e-07
    313    315   2   0.50000     0.0300000    0.0600000   6.128906e-05  1.496315e-08
    313    316   2   0.50000     0.0300000    0.0600000   6.128906e-05  1.496315e-08
    314    310   2   0.50000     0.0300000   -0.1800000   2.494471e-04  1.671101e-07
    314    315   2   0.50000     0.0300000    0.0600000   6.128906e-05  1.496315e-08
    314    316   2   0.50000     0.0300000    0.0600000   6.128906e-05  1.496315e-08
    308    317   2   0.50000     0.1400000    0.0600000   2.494471e-04  1.671101e-07
    308    318   2   0.50000     0.1400000    0.0600000   2.494471e-04  1.671101e-07
    308    319   2   0.50000     0.1400000    0.0600000   2.494471e-04  1.671101e-07
    315    317   2   0.50000     0.0600000    0.0600000   6.128906e-05  1.496315e-08
    315    318   2   0.50000     0.0600000    0.0600000   6.128906e-05  1.496315e-08
    315    319   2   0.50000     0.0600000    0.0600000   6.128906e-05  1.496315e-08
    316    317   2   0.50000     0.0600000    0.0600000   6.128906e-05  1.496315e-08
    316    318   2   0.50000     0.0600000    0.0600000   6.128906e-05  1.496315e-08
    316    319   2   0.50000     0.0600000    0.0600000   6.128906e-05  1.496315e-08

[ angles ]
; ai  aj  ak
      2      1      6   1    109.5000    418.4000
      2      1      7   1    109.5000    292.8800
      2      1     17   1    109.5000    292.8800
      6      1      7   1    110.7000    313.8000
      6      1     17   1    110.7000    313.8000
      7      1     17   1    107.8000    276.1440
      1      2      3   1    109.5000    502.0800
      2      3      4   1    109.5000    418.4000
      2      3      8   1    109.5000    292.8800
      2      3      9   1    109.5000    292.8800
      4      3      8   1    110.7000    313.8000
      4      3      9   1    110.7000    313.8000
      8      3      9   1    107.8000    276.1440
      3      4      5   1    112.7000    488.2728
      3      4     10   1    110.7000    313.8000
      3      4     11   1    110.7000    313.8000
      5      4     10   1    110.7000    313.8000
      5      4     11   1    110.7000    313.8000
     10      4     11   1    107.8000    276.1440
      4      5     12   1    110.7000    313.8000
      4      5     13   1    110.7000    313.8000
      4      5     14   1    110.7000    313.8000
     12      5     13   1    107.8000    276.1440
     12      5     14   1    107.8000    276.1440
     13      5     14   1    107.8000    276.1440
      1      6     15   1    110.7000    313.8000
      1      6     16   1    110.7000    313.8000
      1      6     18   1    112.7000    488.2728
     15      6     16   1    107.8000    276.1440
     15      6     18   1    110.7000    313.8000
     16      6     18   1    110.7000    313.8000
      6     18     19   1    109.5000    418.4000
      6     18     23   1    112.7000    488.2728
      6     18     24   1    110.7000    313.8000
     19     18     23   1    109.5000    418.4000
     19     18     24   1    109.5000    292.8800
     23     18     24   1    110.7000    313.8000
     18     19     20   1    109.5000    502.0800
     19     20     21   1    109.5000    418.4000
     19     20     25   1    109.5000    292.8800
     19     20     26   1    109.5000    292.8800
     21     20     25   1    110.7000    313.8000
     21     20     26   1    110.7000    313.8000
     25     20     26   1    107.8000    276.1440
     20     21     22   1    112.7000    488.2728
     20     21     27   1    110.7000    313.8000
     20     21     28   1    110.7000    313.8000
     22     21     27   1    110.7000    313.8000
     22     21     28   1    110.7000    313.8000
     27     21     28   1    107.8000    276.1440
     21     22     29   1    110.7000    313.8000
     21     22     30   1    110.7000    313.8000
     21     22     31   1    110.7000    313.8000
     29     22     30   1    107.8000    276.1440
     29     22     31   1    107.8000    276.1440
     30     22     31   1    107.8000    276.1440
     18     23     32   1    110.7000    313.8000
     18     23     33   1    110.7000    313.8000
     18     23     34   1    112.7000    488.2728
     32     23     33   1    107.8000    276.1440
     32     23     34   1    110.7000    313.8000
     33     23     34   1    110.7000    313.8000
     23     34     35   1    109.5000    418.4000
     23     34     39   1    112.7000    488.2728
     23     34     40   1    110.7000    313.8000
     35     34     39   1    109.5000    418.4000
     35     34     40   1    109.5000    292.8800
     39     34     40   1    110.7000    313.8000
     34     35     36   1    109.5000    502.0800
     35     36     37   1    109.5000    418.4000
     35     36     41   1    109.5000    292.8800
     35     36     42   1    109.5000    292.8800
     37     36     41   1    110.7000    313.8000
     37     36     42   1    110.7000    313.8000
     41     36     42   1    107.8000    276.1440
     36     37     38   1    112.7000    488.2728
     36     37     43   1    110.7000    313.8000
     36     37     44   1    110.7000    313.8000
     38     37     43   1    110.7000    313.8000
     38     37     44   1    110.7000    313.8000
     43     37     44   1    107.8000    276.1440
     37     38     45   1    110.7000    313.8000
     37     38     46   1    110.7000    313.8000
     37     38     47   1    110.7000    313.8000
     45     38     46   1    107.8000    276.1440
     45     38     47   1    107.8000    276.1440
     46     38     47   1    107.8000    276.1440
     34     39     48   1    110.7000    313.8000
     34     39     49   1    110.7000    313.8000
     34     39     50   1    112.7000    488.2728
     48     39     49   1    107.8000    276.1440
     48     39     50   1    110.7000    313.8000
     49     39     50   1    110.7000    313.8000
     39     50     51   1    109.5000    418.4000
     39     50     55   1    112.7000    488.2728
     39     50     56   1    110.7000    313.8000
     51     50     55   1    109.5000    418.4000
     51     50     56   1    109.5000    292.8800
     55     50     56   1    110.7000    313.8000
     50     51     52   1    109.5000    502.0800
     51     52     53   1    109.5000    418.4000
     51     52     57   1    109.5000    292.8800
     51     52     58   1    109.5000    292.8800
     53     52     57   1    110.7000    313.8000
     53     52     58   1    110.7000    313.8000
     57     52     58   1    107.8000    276.1440
     52     53     54   1    112.7000    488.2728
     52     53     59   1    110.7000    313.8000
     52     53     60   1    110.7000    313.8000
     54     53     59   1    110.7000    313.8000
     54     53     60   1    110.7000    313.8000
     59     53     60   1    107.8000    276.1440
     53     54     61   1    110.7000    313.8000
     53     54     62   1    110.7000    313.8000
     53     54     63   1    110.7000    313.8000
     61     54     62   1    107.8000    276.1440
     61     54     63   1    107.8000    276.1440
     62     54     63   1    107.8000    276.1440
     50     55     64   1    110.7000    313.8000
     50     55     65   1    110.7000    313.8000
     50     55     66   1    112.7000    488.2728
     64     55     65   1    107.8000    276.1440
     64     55     66   1    110.7000    313.8000
     65     55     66   1    110.7000    313.8000
     55     66     67   1    109.5000    418.4000
     55     66     71   1    112.7000    488.2728
     55     66     72   1    110.7000    313.8000
     67     66     71   1    109.5000    418.4000
     67     66     72   1    109.5000    292.8800
     71     66     72   1    110.7000    313.8000
     66     67     68   1    109.5000    502.0800
     67     68     69   1    109.5000    418.4000
     67     68     73   1    109.5000    292.8800
     67     68     74   1    109.5000    292.8800
     69     68     73   1    110.7000    313.8000
     69     68     74   1    110.7000    313.8000
     73     68     74   1    107.8000    276.1440
     68     69     70   1    112.7000    488.2728
     68     69     75   1    110.7000    313.8000
     68     69     76   1    110.7000    313.8000
     70     69     75   1    110.7000    313.8000
     70     69     76   1    110.7000    313.8000
     75     69     76   1    107.8000    276.1440
     69     70     77   1    110.7000    313.8000
     69     70     78   1    110.7000    313.8000
     69     70     79   1    110.7000    313.8000
     77     70     78   1    107.8000    276.1440
     77     70     79   1    107.8000    276.1440
     78     70     79   1    107.8000    276.1440
     66     71     80   1    110.7000    313.8000
     66     71     81   1    110.7000    313.8000
     66     71     82   1    112.7000    488.2728
     80     71     81   1    107.8000    276.1440
     80     71     82   1    110.7000    313.8000
     81     71     82   1    110.7000    313.8000
     71     82     83   1    109.5000    418.4000
     71     82     87   1    112.7000    488.2728
     71     82     88   1    110.7000    313.8000
     83     82     87   1    109.5000    418.4000
     83     82     88   1    109.5000    292.8800
     87     82     88   1    110.7000    313.8000
     82     83     84   1    109.5000    502.0800
     83     84     85   1    109.5000    418.4000
     83     84     89   1    109.5000    292.8800
     83     84     90   1    109.5000    292.8800
     85     84     89   1    110.7000    313.8000
     85     84     90   1    110.7000    313.8000
     89     84     90   1    107.8000    276.1440
     84     85     86   1    112.7000    488.2728
     84     85     91   1    110.7000    313.8000
     84     85     92   1    110.7000    313.8000
     86     85     91   1    110.7000    313.8000
     86     85     92   1    110.7000    313.8000
     91     85     92   1    107.8000    276.1440
     85     86     93   1    110.7000    313.8000
     85     86     94   1    110.7000    313.8000
     85     86     95   1    110.7000    313.8000
     93     86     94   1    107.8000    276.1440
     93     86     95   1    107.8000    276.1440
     94     86     95   1    107.8000    276.1440
     82     87     96   1    110.7000    313.8000
     82     87     97   1    110.7000    313.8000
     82     87     98   1    112.7000    488.2728
     96     87     97   1    107.8000    276.1440
     96     87     98   1    110.7000    313.8000
     97     87     98   1    110.7000    313.8000
     87     98     99   1    109.5000    418.4000
     87     98    103   1    112.7000    488.2728
     87     98    104   1    110.7000    313.8000
     99     98    103   1    109.5000    418.4000
     99     98    104   1    109.5000    292.8800
    103     98    104   1    110.7000    313.8000
     98     99    100   1    109.5000    502.0800
     99    100    101   1    109.5000    418.4000
     99    100    105   1    109.5000    292.8800
     99    100    106   1    109.5000    292.8800
    101    100    105   1    110.7000    313.8000
    101    100    106   1    110.7000    313.8000
    105    100    106   1    107.8000    276.1440
    100    101    102   1    112.7000    488.2728
    100    101    107   1    110.7000    313.8000
    100    101    108   1    110.7000    313.8000
    102    101    107   1    110.7000    313.8000
    102    101    108   1    110.7000    313.8000
    107    101    108   1    107.8000    276.1440
    101    102    109   1    110.7000    313.8000
    101    102    110   1    110.7000    313.8000
    101    102    111   1    110.7000    313.8000
    109    102    110   1    107.8000    276.1440
    109    102    111   1    107.8000    276.1440
    110    102    111   1    107.8000    276.1440
     98    103    112   1    110.7000    313.8000
     98    103    113   1    110.7000    313.8000
     98    103    114   1    112.7000    488.2728
    112    103    113   1    107.8000    276.1440
    112    103    114   1    110.7000    313.8000
    113    103    114   1    110.7000    313.8000
    103    114    115   1    109.5000    418.4000
    103    114    119   1    112.7000    488.2728
    103    114    120   1    110.7000    313.8000
    115    114    119   1    109.5000    418.4000
    115    114    120   1    109.5000    292.8800
    119    114    120   1    110.7000    313.8000
    114    115    116   1    109.5000    502.0800
    115    116    117   1    109.5000    418.4000
    115    116    121   1    109.5000    292.8800
    115    116    122   1    109.5000    292.8800
    117    116    121   1    110.7000    313.8000
    117    116    122   1    110.7000    313.8000
    121    116    122   1    107.8000    276.1440
    116    117    118   1    112.7000    488.2728
    116    117    123   1    110.7000    313.8000
    116    117    124   1    110.7000    313.8000
    118    117    123   1    110.7000    313.8000
    118    117    124   1    110.7000    313.8000
    123    117    124   1    107.8000    276.1440
    117    118    125   1    110.7000    313.8000
    117    118    126   1    110.7000    313.8000
    117    118    127   1    110.7000    313.8000
    125    118    126   1    107.8000    276.1440
    125    118    127   1    107.8000    276.1440
    126    118    127   1    107.8000    276.1440
    114    119    128   1    110.7000    313.8000
    114    119    129   1    110.7000    313.8000
    114    119    130   1    112.7000    488.2728
    128    119    129   1    107.8000    276.1440
    128    119    130   1    110.7000    313.8000
    129    119    130   1    110.7000    313.8000
    119    130    131   1    109.5000    418.4000
    119    130    135   1    112.7000    488.2728
    119    130    136   1    110.7000    313.8000
    131    130    135   1    109.5000    418.4000
    131    130    136   1    109.5000    292.8800
    135    130    136   1    110.7000    313.8000
    130    131    132   1    109.5000    502.0800
    131    132    133   1    109.5000    418.4000
    131    132    137   1    109.5000    292.8800
    131    132    138   1    109.5000    292.8800
    133    132    137   1    110.7000    313.8000
    133    132    138   1    110.7000    313.8000
    137    132    138   1    107.8000    276.1440
    132    133    134   1    112.7000    488.2728
    132    133    139   1    110.7000    313.8000
    132    133    140   1    110.7000    313.8000
    134    133    139   1    110.7000    313.8000
    134    133    140   1    110.7000    313.8000
    139    133    140   1    107.8000    276.1440
    133    134    141   1    110.7000    313.8000
    133    134    142   1    110.7000    313.8000
    133    134    143   1    110.7000    313.8000
    141    134    142   1    107.8000    276.1440
    141    134    143   1    107.8000    276.1440
    142    134    143   1    107.8000    276.1440
    130    135    144   1    110.7000    313.8000
    130    135    145   1    110.7000    313.8000
    130    135    146   1    112.7000    488.2728
    144    135    145   1    107.8000    276.1440
    144    135    146   1    110.7000    313.8000
    145    135    146   1    110.7000    313.8000
    135    146    147   1    109.5000    418.4000
    135    146    151   1    112.7000    488.2728
    135    146    152   1    110.7000    313.8000
    147    146    151   1    109.5000    418.4000
    147    146    152   1    109.5000    292.8800
    151    146    152   1    110.7000    313.8000
    146    147    148   1    109.5000    502.0800
    147    148    149   1    109.5000    418.4000
    147    148    153   1    109.5000    292.8800
    147    148    154   1    109.5000    292.8800
    149    148    153   1    110.7000    313.8000
    149    148    154   1    110.7000    313.8000
    153    148    154   1    107.8000    276.1440
    148    149    150   1    112.7000    488.2728
    148    149    155   1    110.7000    313.8000
    148    149    156   1    110.7000    313.8000
    150    149    155   1    110.7000    313.8000
    150    149    156   1    110.7000    313.8000
    155    149    156   1    107.8000    276.1440
    149    150    157   1    110.7000    313.8000
    149    150    158   1    110.7000    313.8000
    149    150    159   1    110.7000    313.8000
    157    150    158   1    107.8000    276.1440
    157    150    159   1    107.8000    276.1440
    158    150    159   1    107.8000    276.1440
    146    151    160   1    110.7000    313.8000
    146    151    161   1    110.7000    313.8000
    146    151    162   1    112.7000    488.2728
    160    151    161   1    107.8000    276.1440
    160    151    162   1    110.7000    313.8000
    161    151    162   1    110.7000    313.8000
    151    162    163   1    109.5000    418.4000
    151    162    167   1    112.7000    488.2728
    151    162    168   1    110.7000    313.8000
    163    162    167   1    109.5000    418.4000
    163    162    168   1    109.5000    292.8800
    167    162    168   1    110.7000    313.8000
    162    163    164   1    109.5000    502.0800
    163    164    165   1    109.5000    418.4000
    163    164    169   1    109.5000    292.8800
    163    164    170   1    109.5000    292.8800
    165    164    169   1    110.7000    313.8000
    165    164    170   1    110.7000    313.8000
    169    164    170   1    107.8000    276.1440
    164    165    166   1    112.7000    488.2728
    164    165    171   1    110.7000    313.8000
    164    165    172   1    110.7000    313.8000
    166    165    171   1    110.7000    313.8000
    166    165    172   1    110.7000    313.8000
    171    165    172   1    107.8000    276.1440
    165    166    173   1    110.7000    313.8000
    165    166    174   1    110.7000    313.8000
    165    166    175   1    110.7000    313.8000
    173    166    174   1    107.8000    276.1440
    173    166    175   1    107.8000    276.1440
    174    166    175   1    107.8000    276.1440
    162    167    176   1    110.7000    313.8000
    162    167    177   1    110.7000    313.8000
    162    167    178   1    112.7000    488.2728
    176    167    177   1    107.8000    276.1440
    176    167    178   1    110.7000    313.8000
    177    167    178   1    110.7000    313.8000
    167    178    179   1    109.5000    418.4000
    167    178    183   1    112.7000    488.2728
    167    178    184   1    110.7000    313.8000
    179    178    183   1    109.5000    418.4000
    179    178    184   1    109.5000    292.8800
    183    178    184   1    110.7000    313.8000
    178    179    180   1    109.5000    502.0800
    179    180    181   1    109.5000    418.4000
    179    180    185   1    109.5000    292.8800
    179    180    186   1    109.5000    292.8800
    181    180    185   1    110.7000    313.8000
    181    180    186   1    110.7000    313.8000
    185    180    186   1    107.8000    276.1440
    180    181    182   1    112.7000    488.2728
    180    181    187   1    110.7000    313.8000
    180    181    188   1    110.7000    313.8000
    182    181    187   1    110.7000    313.8000
    182    181    188   1    110.7000    313.8000
    187    181    188   1    107.8000    276.1440
    181    182    189   1    110.7000    313.8000
    181    182    190   1    110.7000    313.8000
    181    182    191   1    110.7000    313.8000
    189    182    190   1    107.8000    276.1440
    189    182    191   1    107.8000    276.1440
    190    182    191   1    107.8000    276.1440
    178    183    192   1    110.7000    313.8000
    178    183    193   1    110.7000    313.8000
    178    183    194   1    112.7000    488.2728
    192    183    193   1    107.8000    276.1440
    192    183    194   1    110.7000    313.8000
    193    183    194   1    110.7000    313.8000
    183    194    195   1    109.5000    418.4000
    183    194    199   1    112.7000    488.2728
    183    194    200   1    110.7000    313.8000
    195    194    199   1    109.5000    418.4000
    195    194    200   1    109.5000    292.8800
    199    194    200   1    110.7000    313.8000
    194    195    196   1    109.5000    502.0800
    195    196    197   1    109.5000    418.4000
    195    196    201   1    109.5000    292.8800
    195    196    202   1    109.5000    292.8800
    197    196    201   1    110.7000    313.8000
    197    196    202   1    110.7000    313.8000
    201    196    202   1    107.8000    276.1440
    196    197    198   1    112.7000    488.2728
    196    197    203   1    110.7000    313.8000
    196    197    204   1    110.7000    313.8000
    198    197    203   1    110.7000    313.8000
    198    197    204   1    110.7000    313.8000
    203    197    204   1    107.8000    276.1440
    197    198    205   1    110.7000    313.8000
    197    198    206   1    110.7000    313.8000
    197    198    207   1    110.7000    313.8000
    205    198    206   1    107.8000    276.1440
    205    198    207   1    107.8000    276.1440
    206    198    207   1    107.8000    276.1440
    194    199    208   1    110.7000    313.8000
    194    199    209   1    110.7000    313.8000
    194    199    210   1    112.7000    488.2728
    208    199    209   1    107.8000    276.1440
    208    199    210   1    110.7000    313.8000
    209    199    210   1    110.7000    313.8000
    199    210    211   1    109.5000    418.4000
    199    210    215   1    112.7000    488.2728
    199    210    216   1    110.7000    313.8000
    211    210    215   1    109.5000    418.4000
    211    210    216   1    109.5000    292.8800
    215    210    216   1    110.7000    313.8000
    210    211    212   1    109.5000    502.0800
    211    212    213   1    109.5000    418.4000
    211    212    217   1    109.5000    292.8800
    211    212    218   1    109.5000    292.8800
    213    212    217   1    110.7000    313.8000
    213    212    218   1    110.7000    313.8000
    217    212    218   1    107.8000    276.1440
    212    213    214   1    112.7000    488.2728
    212    213    219   1    110.7000    313.8000
    212    213    220   1    110.7000    313.8000
    214    213    219   1    110.7000    313.8000
    214    213    220   1    110.7000    313.8000
    219    213    220   1    107.8000    276.1440
    213    214    221   1    110.7000    313.8000
    213    214    222   1    110.7000    313.8000
    213    214    223   1    110.7000    313.8000
    221    214    222   1    107.8000    276.1440
    221    214    223   1    107.8000    276.1440
    222    214    223   1    107.8000    276.1440
    210    215    224   1    110.7000    313.8000
    210    215    225   1    110.7000    313.8000
    210    215    226   1    112.7000    488.2728
    224    215    225   1    107.8000    276.1440
    224    215    226   1    110.7000    313.8000
    225    215    226   1    110.7000    313.8000
    215    226    227   1    109.5000    418.4000
    215    226    231   1    112.7000    488.2728
    215    226    232   1    110.7000    313.8000
    227    226    231   1    109.5000    418.4000
    227    226    232   1    109.5000    292.8800
    231    226    232   1    110.7000    313.8000
    226    227    228   1    109.5000    502.0800
    227    228    229   1    109.5000    418.4000
    227    228    233   1    109.5000    292.8800
    227    228    234   1    109.5000    292.8800
    229    228    233   1    110.7000    313.8000
    229    228    234   1    110.7000    313.8000
    233    228    234   1    107.8000    276.1440
    228    229    230   1    112.7000    488.2728
    228    229    235   1    110.7000    313.8000
    228    229    236   1    110.7000    313.8000
    230    229    235   1    110.7000    313.8000
    230    229    236   1    110.7000    313.8000
    235    229    236   1    107.8000    276.1440
    229    230    237   1    110.7000    313.8000
    229    230    238   1    110.7000    313.8000
    229    230    239   1    110.7000    313.8000
    237    230    238   1    107.8000    276.1440
    237    230    239   1    107.8000    276.1440
    238    230    239   1    107.8000    276.1440
    226    231    240   1    110.7000    313.8000
    226    231    241   1    110.7000    313.8000
    226    231    242   1    112.7000    488.2728
    240    231    241   1    107.8000    276.1440
    240    231    242   1    110.7000    313.8000
    241    231    242   1    110.7000    313.8000
    231    242    243   1    109.5000    418.4000
    231    242    247   1    112.7000    488.2728
    231    242    248   1    110.7000    313.8000
    243    242    247   1    109.5000    418.4000
    243    242    248   1    109.5000    292.8800
    247    242    248   1    110.7000    313.8000
    242    243    244   1    109.5000    502.0800
    243    244    245   1    109.5000    418.4000
    243    244    249   1    109.5000    292.8800
    243    244    250   1    109.5000    292.8800
    245    244    249   1    110.7000    313.8000
    245    244    250   1    110.7000    313.8000
    249    244    250   1    107.8000    276.1440
    244    245    246   1    112.7000    488.2728
    244    245    251   1    110.7000    313.8000
    244    245    252   1    110.7000    313.8000
    246    245    251   1    110.7000    313.8000
    246    245    252   1    110.7000    313.8000
    251    245    252   1    107.8000    276.1440
    245    246    253   1    110.7000    313.8000
    245    246    254   1    110.7000    313.8000
    245    246    255   1    110.7000    313.8000
    253    246    254   1    107.8000    276.1440
    253    246    255   1    107.8000    276.1440
    254    246    255   1    107.8000    276.1440
    242    247    256   1    110.7000    313.8000
    242    247    257   1    110.7000    313.8000
    242    247    258   1    112.7000    488.2728
    256    247    257   1    107.8000    276.1440
    256    247    258   1    110.7000    313.8000
    257    247    258   1    110.7000    313.8000
    247    258    259   1    109.5000    418.4000
    247    258    263   1    112.7000    488.2728
    247    258    264   1    110.7000    313.8000
    259    258    263   1    109.5000    418.4000
    259    258    264   1    109.5000    292.8800
    263    258    264   1    110.7000    313.8000
    258    259    260   1    109.5000    502.0800
    259    260    261   1    109.5000    418.4000
    259    260    265   1    109.5000    292.8800
    259    260    266   1    109.5000    292.8800
    261    260    265   1    110.7000    313.8000
    261    260    266   1    110.7000    313.8000
    265    260    266   1    107.8000    276.1440
    260    261    262   1    112.7000    488.2728
    260    261    267   1    110.7000    313.8000
    260    261    268   1    110.7000    313.8000
    262    261    267   1    110.7000    313.8000
    262    261    268   1    110.7000    313.8000
    267    261    268   1    107.8000    276.1440
    261    262    269   1    110.7000    313.8000
    261    262    270   1    110.7000    313.8000
    261    262    271   1    110.7000    313.8000
    269    262    270   1    107.8000    276.1440
    269    262    271   1    107.8000    276.1440
    270    262    271   1    107.8000    276.1440
    258    263    272   1    110.7000    313.8000
    258    263    273   1    110.7000    313.8000
    258    263    274   1    112.7000    488.2728
    272    263    273   1    107.8000    276.1440
    272    263    274   1    110.7000    313.8000
    273    263    274   1    110.7000    313.8000
    263    274    275   1    109.5000    418.4000
    263    274    279   1    112.7000    488.2728
    263    274    280   1    110.7000    313.8000
    275    274    279   1    109.5000    418.4000
    275    274    280   1    109.5000    292.8800
    279    274    280   1    110.7000    313.8000
    274    275    276   1    109.5000    502.0800
    275    276    277   1    109.5000    418.4000
    275    276    281   1    109.5000    292.8800
    275    276    282   1    109.5000    292.8800
    277    276    281   1    110.7000    313.8000
    277    276    282   1    110.7000    313.8000
    281    276    282   1    107.8000    276.1440
    276    277    278   1    112.7000    488.2728
    276    277    283   1    110.7000    313.8000
    276    277    284   1    110.7000    313.8000
    278    277    283   1    110.7000    313.8000
    278    277    284   1    110.7000    313.8000
    283    277    284   1    107.8000    276.1440
    277    278    285   1    110.7000    313.8000
    277    278    286   1    110.7000    313.8000
    277    278    287   1    110.7000    313.8000
    285    278    286   1    107.8000    276.1440
    285    278    287   1    107.8000    276.1440
    286    278    287   1    107.8000    276.1440
    274    279    288   1    110.7000    313.8000
    274    279    289   1    110.7000    313.8000
    274    279    290   1    112.7000    488.2728
    288    279    289   1    107.8000    276.1440
    288    279    290   1    110.7000    313.8000
    289    279    290   1    110.7000    313.8000
    279    290    291   1    109.5000    418.4000
    279    290    295   1    112.7000    488.2728
    279    290    296   1    110.7000    313.8000
    291    290    295   1    109.5000    418.4000
    291    290    296   1    109.5000    292.8800
    295    290    296   1    110.7000    313.8000
    290    291    292   1    109.5000    502.0800
    291    292    293   1    109.5000    418.4000
    291    292    297   1    109.5000    292.8800
    291    292    298   1    109.5000    292.8800
    293    292    297   1    110.7000    313.8000
    293    292    298   1    110.7000    313.8000
    297    292    298   1    107.8000    276.1440
    292    293    294   1    112.7000    488.2728
    292    293    299   1    110.7000    313.8000
    292    293    300   1    110.7000    313.8000
    294    293    299   1    110.7000    313.8000
    294    293    300   1    110.7000    313.8000
    299    293    300   1    107.8000    276.1440
    293    294    301   1    110.7000    313.8000
    293    294    302   1    110.7000    313.8000
    293    294    303   1    110.7000    313.8000
    301    294    302   1    107.8000    276.1440
    301    294    303   1    107.8000    276.1440
    302    294    303   1    107.8000    276.1440
    290    295    304   1    110.7000    313.8000
    290    295    305   1    110.7000    313.8000
    290    295    306   1    112.7000    488.2728
    304    295    305   1    107.8000    276.1440
    304    295    306   1    110.7000    313.8000
    305    295    306   1    110.7000    313.8000
    295    306    307   1    109.5000    418.4000
    295    306    311   1    112.7000    488.2728
    295    306    312   1    110.7000    313.8000
    307    306    311   1    109.5000    418.4000
    307    306    312   1    109.5000    292.8800
    311    306    312   1    110.7000    313.8000
    306    307    308   1    109.5000    502.0800
    307    308    309   1    109.5000    418.4000
    307    308    313   1    109.5000    292.8800
    307    308    314   1    109.5000    292.8800
    309    308    313   1    110.7000    313.8000
    309    308    314   1    110.7000    313.8000
    313    308    314   1    107.8000    276.1440
    308    309    310   1    112.7000    488.2728
    308    309    315   1    110.7000    313.8000
    308    309    316   1    110.7000    313.8000
    310    309    315   1    110.7000    313.8000
    310    309    316   1    110.7000    313.8000
    315    309    316   1    107.8000    276.1440
    309    310    317   1    110.7000    313.8000
    309    310    318   1    110.7000    313.8000
    309    310    319   1    110.7000    313.8000
    317    310    318   1    107.8000    276.1440
    317    310    319   1    107.8000    276.1440
    318    310    319   1    107.8000    276.1440
    306    311    320   1    110.7000    313.8000
    306    311    321   1    110.7000    313.8000
    306    311    322   1    110.7000    313.8000
    320    311    321   1    107.8000    276.1440
    320    311    322   1    107.8000    276.1440
    321    311    322   1    107.8000    276.1440

[ dihedrals ]
; Proper dihedrals
      6      1      2      3   5     0.52300    -0.09205     2.34722  0.0
      7      1      2      3   5     0.00000     0.00000     3.10034  0.0
     17      1      2      3   5     0.00000     0.00000     3.10034  0.0
      2      1      6     15   5     0.00000     0.00000     1.95811  0.0
      2      1      6     16   5     0.00000     0.00000     1.95811  0.0
      2      1      6     18   5     5.25092    -2.58990     2.28446  0.0
      7      1      6     15   5     0.00000     0.00000     1.25520  0.0
      7      1      6     16   5     0.00000     0.00000     1.25520  0.0
      7      1      6     18   5     0.00000     0.00000     1.25520  0.0
     17      1      6     15   5     0.00000     0.00000     1.25520  0.0
     17      1      6     16   5     0.00000     0.00000     1.25520  0.0
     17      1      6     18   5     0.00000     0.00000     1.25520  0.0
      1      2      3      4   5     0.52300    -0.09205     2.34722  0.0
      1      2      3      8   5     0.00000     0.00000     3.10034  0.0
      1      2      3      9   5     0.00000     0.00000     3.10034  0.0
      2      3      4      5   5     5.25092    -2.58990     2.28446  0.0
      2      3      4     10   5     0.00000     0.00000     1.95811  0.0
      2      3      4     11   5     0.00000     0.00000     1.95811  0.0
      8      3      4      5   5     0.00000     0.00000     1.25520  0.0
      8      3      4     10   5     0.00000     0.00000     1.25520  0.0
      8      3      4     11   5     0.00000     0.00000     1.25520  0.0
      9      3      4      5   5     0.00000     0.00000     1.25520  0.0
      9      3      4     10   5     0.00000     0.00000     1.25520  0.0
      9      3      4     11   5     0.00000     0.00000     1.25520  0.0
      3      4      5     12   5     0.00000     0.00000     1.25520  0.0
      3      4      5     13   5     0.00000     0.00000     1.25520  0.0
      3      4      5     14   5     0.00000     0.00000     1.25520  0.0
     10      4      5     12   5     0.00000     0.00000     1.25520  0.0
     10      4      5     13   5     0.00000     0.00000     1.25520  0.0
     10      4      5     14   5     0.00000     0.00000     1.25520  0.0
     11      4      5     12   5     0.00000     0.00000     1.25520  0.0
     11      4      5     13   5     0.00000     0.00000     1.25520  0.0
     11      4      5     14   5     0.00000     0.00000     1.25520  0.0
      1      6     18     19   5     5.25092    -2.58990     2.28446  0.0
      1      6     18     23   5     4.74884    -0.63178     1.67360  0.0
      1      6     18     24   5     0.00000     0.00000     1.25520  0.0
     15      6     18     19   5     0.00000     0.00000     1.95811  0.0
     15      6     18     23   5     0.00000     0.00000     1.25520  0.0
     15      6     18     24   5     0.00000     0.00000     1.25520  0.0
     16      6     18     19   5     0.00000     0.00000     1.95811  0.0
     16      6     18     23   5     0.00000     0.00000     1.25520  0.0
     16      6     18     24   5     0.00000     0.00000     1.25520  0.0
      6     18     19     20   5     0.52300    -0.09205     2.34722  0.0
     23     18     19     20   5     0.52300    -0.09205     2.34722  0.0
     24     18     19     20   5     0.00000     0.00000     3.10034  0.0
      6     18     23     32   5     0.00000     0.00000     1.25520  0.0
      6     18     23     33   5     0.00000     0.00000     1.25520  0.0
      6     18     23     34   5     4.74884    -0.63178     1.67360  0.0
     19     18     23     32   5     0.00000     0.00000     1.95811  0.0
     19     18     23     33   5     0.00000     0.00000     1.95811  0.0
     19     18     23     34   5     5.25092    -2.58990     2.28446  0.0
     24     18     23     32   5     0.00000     0.00000     1.25520  0.0
     24     18     23     33   5     0.00000     0.00000     1.25520  0.0
     24     18     23     34   5     0.00000     0.00000     1.25520  0.0
     18     19     20     21   5     0.52300    -0.09205     2.34722  0.0
     18     19     20     25   5     0.00000     0.00000     3.10034  0.0
     18     19     20     26   5     0.00000     0.00000     3.10034  0.0
     19     20     21     22   5     5.25092    -2.58990     2.28446  0.0
     19     20     21     27   5     0.00000     0.00000     1.95811  0.0
     19     20     21     28   5     0.00000     0.00000     1.95811  0.0
     25     20     21     22   5     0.00000     0.00000     1.25520  0.0
     25     20     21     27   5     0.00000     0.00000     1.25520  0.0
     25     20     21     28   5     0.00000     0.00000     1.25520  0.0
     26     20     21     22   5     0.00000     0.00000     1.25520  0.0
     26     20     21     27   5     0.00000     0.00000     1.25520  0.0
     26     20     21     28   5     0.00000     0.00000     1.25520  0.0
     20     21     22     29   5     0.00000     0.00000     1.25520  0.0
     20     21     22     30   5     0.00000     0.00000     1.25520  0.0
     20     21     22     31   5     0.00000     0.00000     1.25520  0.0
     27     21     22     29   5     0.00000     0.00000     1.25520  0.0
     27     21     22     30   5     0.00000     0.00000     1.25520  0.0
     27     21     22     31   5     0.00000     0.00000     1.25520  0.0
     28     21     22     29   5     0.00000     0.00000     1.25520  0.0
     28     21     22     30   5     0.00000     0.00000     1.25520  0.0
     28     21     22     31   5     0.00000     0.00000     1.25520  0.0
     18     23     34     35   5     5.25092    -2.58990     2.28446  0.0
     18     23     34     39   5     4.74884    -0.63178     1.67360  0.0
     18     23     34     40   5     0.00000     0.00000     1.25520  0.0
     32     23     34     35   5     0.00000     0.00000     1.95811  0.0
     32     23     34     39   5     0.00000     0.00000     1.25520  0.0
     32     23     34     40   5     0.00000     0.00000     1.25520  0.0
     33     23     34     35   5     0.00000     0.00000     1.95811  0.0
     33     23     34     39   5     0.00000     0.00000     1.25520  0.0
     33     23     34     40   5     0.00000     0.00000     1.25520  0.0
     23     34     35     36   5     0.52300    -0.09205     2.34722  0.0
     39     34     35     36   5     0.52300    -0.09205     2.34722  0.0
     40     34     35     36   5     0.00000     0.00000     3.10034  0.0
     23     34     39     48   5     0.00000     0.00000     1.25520  0.0
     23     34     39     49   5     0.00000     0.00000     1.25520  0.0
     23     34     39     50   5     4.74884    -0.63178     1.67360  0.0
     35     34     39     48   5     0.00000     0.00000     1.95811  0.0
     35     34     39     49   5     0.00000     0.00000     1.95811  0.0
     35     34     39     50   5     5.25092    -2.58990     2.28446  0.0
     40     34     39     48   5     0.00000     0.00000     1.25520  0.0
     40     34     39     49   5     0.00000     0.00000     1.25520  0.0
     40     34     39     50   5     0.00000     0.00000     1.25520  0.0
     34     35     36     37   5     0.52300    -0.09205     2.34722  0.0
     34     35     36     41   5     0.00000     0.00000     3.10034  0.0
     34     35     36     42   5     0.00000     0.00000     3.10034  0.0
     35     36     37     38   5     5.25092    -2.58990     2.28446  0.0
     35     36     37     43   5     0.00000     0.00000     1.95811  0.0
     35     36     37     44   5     0.00000     0.00000     1.95811  0.0
     41     36     37     38   5     0.00000     0.00000     1.25520  0.0
     41     36     37     43   5     0.00000     0.00000     1.25520  0.0
     41     36     37     44   5     0.00000     0.00000     1.25520  0.0
     42     36     37     38   5     0.00000     0.00000     1.25520  0.0
     42     36     37     43   5     0.00000     0.00000     1.25520  0.0
     42     36     37     44   5     0.00000     0.00000     1.25520  0.0
     36     37     38     45   5     0.00000     0.00000     1.25520  0.0
     36     37     38     46   5     0.00000     0.00000     1.25520  0.0
     36     37     38     47   5     0.00000     0.00000     1.25520  0.0
     43     37     38     45   5     0.00000     0.00000     1.25520  0.0
     43     37     38     46   5     0.00000     0.00000     1.25520  0.0
     43     37     38     47   5     0.00000     0.00000     1.25520  0.0
     44     37     38     45   5     0.00000     0.00000     1.25520  0.0
     44     37     38     46   5     0.00000     0.00000     1.25520  0.0
     44     37     38     47   5     0.00000     0.00000     1.25520  0.0
     34     39     50     51   5     5.25092    -2.58990     2.28446  0.0
     34     39     50     55   5     4.74884    -0.63178     1.67360  0.0
     34     39     50     56   5     0.00000     0.00000     1.25520  0.0
     48     39     50     51   5     0.00000     0.00000     1.95811  0.0
     48     39     50     55   5     0.00000     0.00000     1.25520  0.0
     48     39     50     56   5     0.00000     0.00000     1.25520  0.0
     49     39     50     51   5     0.00000     0.00000     1.95811  0.0
     49     39     50     55   5     0.00000     0.00000     1.25520  0.0
     49     39     50     56   5     0.00000     0.00000     1.25520  0.0
     39     50     51     52   5     0.52300    -0.09205     2.34722  0.0
     55     50     51     52   5     0.52300    -0.09205     2.34722  0.0
     56     50     51     52   5     0.00000     0.00000     3.10034  0.0
     39     50     55     64   5     0.00000     0.00000     1.25520  0.0
     39     50     55     65   5     0.00000     0.00000     1.25520  0.0
     39     50     55     66   5     4.74884    -0.63178     1.67360  0.0
     51     50     55     64   5     0.00000     0.00000     1.95811  0.0
     51     50     55     65   5     0.00000     0.00000     1.95811  0.0
     51     50     55     66   5     5.25092    -2.58990     2.28446  0.0
     56     50     55     64   5     0.00000     0.00000     1.25520  0.0
     56     50     55     65   5     0.00000     0.00000     1.25520  0.0
     56     50     55     66   5     0.00000     0.00000     1.25520  0.0
     50     51     52     53   5     0.52300    -0.09205     2.34722  0.0
     50     51     52     57   5     0.00000     0.00000     3.10034  0.0
     50     51     52     58   5     0.00000     0.00000     3.10034  0.0
     51     52     53     54   5     5.25092    -2.58990     2.28446  0.0
     51     52     53     59   5     0.00000     0.00000     1.95811  0.0
     51     52     53     60   5     0.00000     0.00000     1.95811  0.0
     57     52     53     54   5     0.00000     0.00000     1.25520  0.0
     57     52     53     59   5     0.00000     0.00000     1.25520  0.0
     57     52     53     60   5     0.00000     0.00000     1.25520  0.0
     58     52     53     54   5     0.00000     0.00000     1.25520  0.0
     58     52     53     59   5     0.00000     0.00000     1.25520  0.0
     58     52     53     60   5     0.00000     0.00000     1.25520  0.0
     52     53     54     61   5     0.00000     0.00000     1.25520  0.0
     52     53     54     62   5     0.00000     0.00000     1.25520  0.0
     52     53     54     63   5     0.00000     0.00000     1.25520  0.0
     59     53     54     61   5     0.00000     0.00000     1.25520  0.0
     59     53     54     62   5     0.00000     0.00000     1.25520  0.0
     59     53     54     63   5     0.00000     0.00000     1.25520  0.0
     60     53     54     61   5     0.00000     0.00000     1.25520  0.0
     60     53     54     62   5     0.00000     0.00000     1.25520  0.0
     60     53     54     63   5     0.00000     0.00000     1.25520  0.0
     50     55     66     67   5     5.25092    -2.58990     2.28446  0.0
     50     55     66     71   5     4.74884    -0.63178     1.67360  0.0
     50     55     66     72   5     0.00000     0.00000     1.25520  0.0
     64     55     66     67   5     0.00000     0.00000     1.95811  0.0
     64     55     66     71   5     0.00000     0.00000     1.25520  0.0
     64     55     66     72   5     0.00000     0.00000     1.25520  0.0
     65     55     66     67   5     0.00000     0.00000     1.95811  0.0
     65     55     66     71   5     0.00000     0.00000     1.25520  0.0
     65     55     66     72   5     0.00000     0.00000     1.25520  0.0
     55     66     67     68   5     0.52300    -0.09205     2.34722  0.0
     71     66     67     68   5     0.52300    -0.09205     2.34722  0.0
     72     66     67     68   5     0.00000     0.00000     3.10034  0.0
     55     66     71     80   5     0.00000     0.00000     1.25520  0.0
     55     66     71     81   5     0.00000     0.00000     1.25520  0.0
     55     66     71     82   5     4.74884    -0.63178     1.67360  0.0
     67     66     71     80   5     0.00000     0.00000     1.95811  0.0
     67     66     71     81   5     0.00000     0.00000     1.95811  0.0
     67     66     71     82   5     5.25092    -2.58990     2.28446  0.0
     72     66     71     80   5     0.00000     0.00000     1.25520  0.0
     72     66     71     81   5     0.00000     0.00000     1.25520  0.0
     72     66     71     82   5     0.00000     0.00000     1.25520  0.0
     66     67     68     69   5     0.52300    -0.09205     2.34722  0.0
     66     67     68     73   5     0.00000     0.00000     3.10034  0.0
     66     67     68     74   5     0.00000     0.00000     3.10034  0.0
     67     68     69     70   5     5.25092    -2.58990     2.28446  0.0
     67     68     69     75   5     0.00000     0.00000     1.95811  0.0
     67     68     69     76   5     0.00000     0.00000     1.95811  0.0
     73     68     69     70   5     0.00000     0.00000     1.25520  0.0
     73     68     69     75   5     0.00000     0.00000     1.25520  0.0
     73     68     69     76   5     0.00000     0.00000     1.25520  0.0
     74     68     69     70   5     0.00000     0.00000     1.25520  0.0
     74     68     69     75   5     0.00000     0.00000     1.25520  0.0
     74     68     69     76   5     0.00000     0.00000     1.25520  0.0
     68     69     70     77   5     0.00000     0.00000     1.25520  0.0
     68     69     70     78   5     0.00000     0.00000     1.25520  0.0
     68     69     70     79   5     0.00000     0.00000     1.25520  0.0
     75     69     70     77   5     0.00000     0.00000     1.25520  0.0
     75     69     70     78   5     0.00000     0.00000     1.25520  0.0
     75     69     70     79   5     0.00000     0.00000     1.25520  0.0
     76     69     70     77   5     0.00000     0.00000     1.25520  0.0
     76     69     70     78   5     0.00000     0.00000     1.25520  0.0
     76     69     70     79   5     0.00000     0.00000     1.25520  0.0
     66     71     82     83   5     5.25092    -2.58990     2.28446  0.0
     66     71     82     87   5     4.74884    -0.63178     1.67360  0.0
     66     71     82     88   5     0.00000     0.00000     1.25520  0.0
     80     71     82     83   5     0.00000     0.00000     1.95811  0.0
     80     71     82     87   5     0.00000     0.00000     1.25520  0.0
     80     71     82     88   5     0.00000     0.00000     1.25520  0.0
     81     71     82     83   5     0.00000     0.00000     1.95811  0.0
     81     71     82     87   5     0.00000     0.00000     1.25520  0.0
     81     71     82     88   5     0.00000     0.00000     1.25520  0.0
     71     82     83     84   5     0.52300    -0.09205     2.34722  0.0
     87     82     83     84   5     0.52300    -0.09205     2.34722  0.0
     88     82     83     84   5     0.00000     0.00000     3.10034  0.0
     71     82     87     96   5     0.00000     0.00000     1.25520  0.0
     71     82     87     97   5     0.00000     0.00000     1.25520  0.0
     71     82     87     98   5     4.74884    -0.63178     1.67360  0.0
     83     82     87     96   5     0.00000     0.00000     1.95811  0.0
     83     82     87     97   5     0.00000     0.00000     1.95811  0.0
     83     82     87     98   5     5.25092    -2.58990     2.28446  0.0
     88     82     87     96   5     0.00000     0.00000     1.25520  0.0
     88     82     87     97   5     0.00000     0.00000     1.25520  0.0
     88     82     87     98   5     0.00000     0.00000     1.25520  0.0
     82     83     84     85   5     0.52300    -0.09205     2.34722  0.0
     82     83     84     89   5     0.00000     0.00000     3.10034  0.0
     82     83     84     90   5     0.00000     0.00000     3.10034  0.0
     83     84     85     86   5     5.25092    -2.58990     2.28446  0.0
     83     84     85     91   5     0.00000     0.00000     1.95811  0.0
     83     84     85     92   5     0.00000     0.00000     1.95811  0.0
     89     84     85     86   5     0.00000     0.00000     1.25520  0.0
     89     84     85     91   5     0.00000     0.00000     1.25520  0.0
     89     84     85     92   5     0.00000     0.00000     1.25520  0.0
     90     84     85     86   5     0.00000     0.00000     1.25520  0.0
     90     84     85     91   5     0.00000     0.00000     1.25520  0.0
     90     84     85     92   5     0.00000     0.00000     1.25520  0.0
     84     85     86     93   5     0.00000     0.00000     1.25520  0.0
     84     85     86     94   5     0.00000     0.00000     1.25520  0.0
     84     85     86     95   5     0.00000     0.00000     1.25520  0.0
     91     85     86     93   5     0.00000     0.00000     1.25520  0.0
     91     85     86     94   5     0.00000     0.00000     1.25520  0.0
     91     85     86     95   5     0.00000     0.00000     1.25520  0.0
     92     85     86     93   5     0.00000     0.00000     1.25520  0.0
     92     85     86     94   5     0.00000     0.00000     1.25520  0.0
     92     85     86     95   5     0.00000     0.00000     1.25520  0.0
     82     87     98     99   5     5.25092    -2.58990     2.28446  0.0
     82     87     98    103   5     4.74884    -0.63178     1.67360  0.0
     82     87     98    104   5     0.00000     0.00000     1.25520  0.0
     96     87     98     99   5     0.00000     0.00000     1.95811  0.0
     96     87     98    103   5     0.00000     0.00000     1.25520  0.0
     96     87     98    104   5     0.00000     0.00000     1.25520  0.0
     97     87     98     99   5     0.00000     0.00000     1.95811  0.0
     97     87     98    103   5     0.00000     0.00000     1.25520  0.0
     97     87     98    104   5     0.00000     0.00000     1.25520  0.0
     87     98     99    100   5     0.52300    -0.09205     2.34722  0.0
    103     98     99    100   5     0.52300    -0.09205     2.34722  0.0
    104     98     99    100   5     0.00000     0.00000     3.10034  0.0
     87     98    103    112   5     0.00000     0.00000     1.25520  0.0
     87     98    103    113   5     0.00000     0.00000     1.25520  0.0
     87     98    103    114   5     4.74884    -0.63178     1.67360  0.0
     99     98    103    112   5     0.00000     0.00000     1.95811  0.0
     99     98    103    113   5     0.00000     0.00000     1.95811  0.0
     99     98    103    114   5     5.25092    -2.58990     2.28446  0.0
    104     98    103    112   5     0.00000     0.00000     1.25520  0.0
    104     98    103    113   5     0.00000     0.00000     1.25520  0.0
    104     98    103    114   5     0.00000     0.00000     1.25520  0.0
     98     99    100    101   5     0.52300    -0.09205     2.34722  0.0
     98     99    100    105   5     0.00000     0.00000     3.10034  0.0
     98     99    100    106   5     0.00000     0.00000     3.10034  0.0
     99    100    101    102   5     5.25092    -2.58990     2.28446  0.0
     99    100    101    107   5     0.00000     0.00000     1.95811  0.0
     99    100    101    108   5     0.00000     0.00000     1.95811  0.0
    105    100    101    102   5     0.00000     0.00000     1.25520  0.0
    105    100    101    107   5     0.00000     0.00000     1.25520  0.0
    105    100    101    108   5     0.00000     0.00000     1.25520  0.0
    106    100    101    102   5     0.00000     0.00000     1.25520  0.0
    106    100    101    107   5     0.00000     0.00000     1.25520  0.0
    106    100    101    108   5     0.00000     0.00000     1.25520  0.0
    100    101    102    109   5     0.00000     0.00000     1.25520  0.0
    100    101    102    110   5     0.00000     0.00000     1.25520  0.0
    100    101    102    111   5     0.00000     0.00000     1.25520  0.0
    107    101    102    109   5     0.00000     0.00000     1.25520  0.0
    107    101    102    110   5     0.00000     0.00000     1.25520  0.0
    107    101    102    111   5     0.00000     0.00000     1.25520  0.0
    108    101    102    109   5     0.00000     0.00000     1.25520  0.0
    108    101    102    110   5     0.00000     0.00000     1.25520  0.0
    108    101    102    111   5     0.00000     0.00000     1.25520  0.0
     98    103    114    115   5     5.25092    -2.58990     2.28446  0.0
     98    103    114    119   5     4.74884    -0.63178     1.67360  0.0
     98    103    114    120   5     0.00000     0.00000     1.25520  0.0
    112    103    114    115   5     0.00000     0.00000     1.95811  0.0
    112    103    114    119   5     0.00000     0.00000     1.25520  0.0
    112    103    114    120   5     0.00000     0.00000     1.25520  0.0
    113    103    114    115   5     0.00000     0.00000     1.95811  0.0
    113    103    114    119   5     0.00000     0.00000     1.25520  0.0
    113    103    114    120   5     0.00000     0.00000     1.25520  0.0
    103    114    115    116   5     0.52300    -0.09205     2.34722  0.0
    119    114    115    116   5     0.52300    -0.09205     2.34722  0.0
    120    114    115    116   5     0.00000     0.00000     3.10034  0.0
    103    114    119    128   5     0.00000     0.00000     1.25520  0.0
    103    114    119    129   5     0.00000     0.00000     1.25520  0.0
    103    114    119    130   5     4.74884    -0.63178     1.67360  0.0
    115    114    119    128   5     0.00000     0.00000     1.95811  0.0
    115    114    119    129   5     0.00000     0.00000     1.95811  0.0
    115    114    119    130   5     5.25092    -2.58990     2.28446  0.0
    120    114    119    128   5     0.00000     0.00000     1.25520  0.0
    120    114    119    129   5     0.00000     0.00000     1.25520  0.0
    120    114    119    130   5     0.00000     0.00000     1.25520  0.0
    114    115    116    117   5     0.52300    -0.09205     2.34722  0.0
    114    115    116    121   5     0.00000     0.00000     3.10034  0.0
    114    115    116    122   5     0.00000     0.00000     3.10034  0.0
    115    116    117    118   5     5.25092    -2.58990     2.28446  0.0
    115    116    117    123   5     0.00000     0.00000     1.95811  0.0
    115    116    117    124   5     0.00000     0.00000     1.95811  0.0
    121    116    117    118   5     0.00000     0.00000     1.25520  0.0
    121    116    117    123   5     0.00000     0.00000     1.25520  0.0
    121    116    117    124   5     0.00000     0.00000     1.25520  0.0
    122    116    117    118   5     0.00000     0.00000     1.25520  0.0
    122    116    117    123   5     0.00000     0.00000     1.25520  0.0
    122    116    117    124   5     0.00000     0.00000     1.25520  0.0
    116    117    118    125   5     0.00000     0.00000     1.25520  0.0
    116    117    118    126   5     0.00000     0.00000     1.25520  0.0
    116    117    118    127   5     0.00000     0.00000     1.25520  0.0
    123    117    118    125   5     0.00000     0.00000     1.25520  0.0
    123    117    118    126   5     0.00000     0.00000     1.25520  0.0
    123    117    118    127   5     0.00000     0.00000     1.25520  0.0
    124    117    118    125   5     0.00000     0.00000     1.25520  0.0
    124    117    118    126   5     0.00000     0.00000     1.25520  0.0
    124    117    118    127   5     0.00000     0.00000     1.25520  0.0
    114    119    130    131   5     5.25092    -2.58990     2.28446  0.0
    114    119    130    135   5     4.74884    -0.63178     1.67360  0.0
    114    119    130    136   5     0.00000     0.00000     1.25520  0.0
    128    119    130    131   5     0.00000     0.00000     1.95811  0.0
    128    119    130    135   5     0.00000     0.00000     1.25520  0.0
    128    119    130    136   5     0.00000     0.00000     1.25520  0.0
    129    119    130    131   5     0.00000     0.00000     1.95811  0.0
    129    119    130    135   5     0.00000     0.00000     1.25520  0.0
    129    119    130    136   5     0.00000     0.00000     1.25520  0.0
    119    130    131    132   5     0.52300    -0.09205     2.34722  0.0
    135    130    131    132   5     0.52300    -0.09205     2.34722  0.0
    136    130    131    132   5     0.00000     0.00000     3.10034  0.0
    119    130    135    144   5     0.00000     0.00000     1.25520  0.0
    119    130    135    145   5     0.00000     0.00000     1.25520  0.0
    119    130    135    146   5     4.74884    -0.63178     1.67360  0.0
    131    130    135    144   5     0.00000     0.00000     1.95811  0.0
    131    130    135    145   5     0.00000     0.00000     1.95811  0.0
    131    130    135    146   5     5.25092    -2.58990     2.28446  0.0
    136    130    135    144   5     0.00000     0.00000     1.25520  0.0
    136    130    135    145   5     0.00000     0.00000     1.25520  0.0
    136    130    135    146   5     0.00000     0.00000     1.25520  0.0
    130    131    132    133   5     0.52300    -0.09205     2.34722  0.0
    130    131    132    137   5     0.00000     0.00000     3.10034  0.0
    130    131    132    138   5     0.00000     0.00000     3.10034  0.0
    131    132    133    134   5     5.25092    -2.58990     2.28446  0.0
    131    132    133    139   5     0.00000     0.00000     1.95811  0.0
    131    132    133    140   5     0.00000     0.00000     1.95811  0.0
    137    132    133    134   5     0.00000     0.00000     1.25520  0.0
    137    132    133    139   5     0.00000     0.00000     1.25520  0.0
    137    132    133    140   5     0.00000     0.00000     1.25520  0.0
    138    132    133    134   5     0.00000     0.00000     1.25520  0.0
    138    132    133    139   5     0.00000     0.00000     1.25520  0.0
    138    132    133    140   5     0.00000     0.00000     1.25520  0.0
    132    133    134    141   5     0.00000     0.00000     1.25520  0.0
    132    133    134    142   5     0.00000     0.00000     1.25520  0.0
    132    133    134    143   5     0.00000     0.00000     1.25520  0.0
    139    133    134    141   5     0.00000     0.00000     1.25520  0.0
    139    133    134    142   5     0.00000     0.00000     1.25520  0.0
    139    133    134    143   5     0.00000     0.00000     1.25520  0.0
    140    133    134    141   5     0.00000     0.00000     1.25520  0.0
    140    133    134    142   5     0.00000     0.00000     1.25520  0.0
    140    133    134    143   5     0.00000     0.00000     1.25520  0.0
    130    135    146    147   5     5.25092    -2.58990     2.28446  0.0
    130    135    146    151   5     4.74884    -0.63178     1.67360  0.0
    130    135    146    152   5     0.00000     0.00000     1.25520  0.0
    144    135    146    147   5     0.00000     0.00000     1.95811  0.0
    144    135    146    151   5     0.00000     0.00000     1.25520  0.0
    144    135    146    152   5     0.00000     0.00000     1.25520  0.0
    145    135    146    147   5     0.00000     0.00000     1.95811  0.0
    145    135    146    151   5     0.00000     0.00000     1.25520  0.0
    145    135    146    152   5     0.00000     0.00000     1.25520  0.0
    135    146    147    148   5     0.52300    -0.09205     2.34722  0.0
    151    146    147    148   5     0.52300    -0.09205     2.34722  0.0
    152    146    147    148   5     0.00000     0.00000     3.10034  0.0
    135    146    151    160   5     0.00000     0.00000     1.25520  0.0
    135    146    151    161   5     0.00000     0.00000     1.25520  0.0
    135    146    151    162   5     4.74884    -0.63178     1.67360  0.0
    147    146    151    160   5     0.00000     0.00000     1.95811  0.0
    147    146    151    161   5     0.00000     0.00000     1.95811  0.0
    147    146    151    162   5     5.25092    -2.58990     2.28446  0.0
    152    146    151    160   5     0.00000     0.00000     1.25520  0.0
    152    146    151    161   5     0.00000     0.00000     1.25520  0.0
    152    146    151    162   5     0.00000     0.00000     1.25520  0.0
    146    147    148    149   5     0.52300    -0.09205     2.34722  0.0
    146    147    148    153   5     0.00000     0.00000     3.10034  0.0
    146    147    148    154   5     0.00000     0.00000     3.10034  0.0
    147    148    149    150   5     5.25092    -2.58990     2.28446  0.0
    147    148    149    155   5     0.00000     0.00000     1.95811  0.0
    147    148    149    156   5     0.00000     0.00000     1.95811  0.0
    153    148    149    150   5     0.00000     0.00000     1.25520  0.0
    153    148    149    155   5     0.00000     0.00000     1.25520  0.0
    153    148    149    156   5     0.00000     0.00000     1.25520  0.0
    154    148    149    150   5     0.00000     0.00000     1.25520  0.0
    154    148    149    155   5     0.00000     0.00000     1.25520  0.0
    154    148    149    156   5     0.00000     0.00000     1.25520  0.0
    148    149    150    157   5     0.00000     0.00000     1.25520  0.0
    148    149    150    158   5     0.00000     0.00000     1.25520  0.0
    148    149    150    159   5     0.00000     0.00000     1.25520  0.0
    155    149    150    157   5     0.00000     0.00000     1.25520  0.0
    155    149    150    158   5     0.00000     0.00000     1.25520  0.0
    155    149    150    159   5     0.00000     0.00000     1.25520  0.0
    156    149    150    157   5     0.00000     0.00000     1.25520  0.0
    156    149    150    158   5     0.00000     0.00000     1.25520  0.0
    156    149    150    159   5     0.00000     0.00000     1.25520  0.0
    146    151    162    163   5     5.25092    -2.58990     2.28446  0.0
    146    151    162    167   5     4.74884    -0.63178     1.67360  0.0
    146    151    162    168   5     0.00000     0.00000     1.25520  0.0
    160    151    162    163   5     0.00000     0.00000     1.95811  0.0
    160    151    162    167   5     0.00000     0.00000     1.25520  0.0
    160    151    162    168   5     0.00000     0.00000     1.25520  0.0
    161    151    162    163   5     0.00000     0.00000     1.95811  0.0
    161    151    162    167   5     0.00000     0.00000     1.25520  0.0
    161    151    162    168   5     0.00000     0.00000     1.25520  0.0
    151    162    163    164   5     0.52300    -0.09205     2.34722  0.0
    167    162    163    164   5     0.52300    -0.09205     2.34722  0.0
    168    162    163    164   5     0.00000     0.00000     3.10034  0.0
    151    162    167    176   5     0.00000     0.00000     1.25520  0.0
    151    162    167    177   5     0.00000     0.00000     1.25520  0.0
    151    162    167    178   5     4.74884    -0.63178     1.67360  0.0
    163    162    167    176   5     0.00000     0.00000     1.95811  0.0
    163    162    167    177   5     0.00000     0.00000     1.95811  0.0
    163    162    167    178   5     5.25092    -2.58990     2.28446  0.0
    168    162    167    176   5     0.00000     0.00000     1.25520  0.0
    168    162    167    177   5     0.00000     0.00000     1.25520  0.0
    168    162    167    178   5     0.00000     0.00000     1.25520  0.0
    162    163    164    165   5     0.52300    -0.09205     2.34722  0.0
    162    163    164    169   5     0.00000     0.00000     3.10034  0.0
    162    163    164    170   5     0.00000     0.00000     3.10034  0.0
    163    164    165    166   5     5.25092    -2.58990     2.28446  0.0
    163    164    165    171   5     0.00000     0.00000     1.95811  0.0
    163    164    165    172   5     0.00000     0.00000     1.95811  0.0
    169    164    165    166   5     0.00000     0.00000     1.25520  0.0
    169    164    165    171   5     0.00000     0.00000     1.25520  0.0
    169    164    165    172   5     0.00000     0.00000     1.25520  0.0
    170    164    165    166   5     0.00000     0.00000     1.25520  0.0
    170    164    165    171   5     0.00000     0.00000     1.25520  0.0
    170    164    165    172   5     0.00000     0.00000     1.25520  0.0
    164    165    166    173   5     0.00000     0.00000     1.25520  0.0
    164    165    166    174   5     0.00000     0.00000     1.25520  0.0
    164    165    166    175   5     0.00000     0.00000     1.25520  0.0
    171    165    166    173   5     0.00000     0.00000     1.25520  0.0
    171    165    166    174   5     0.00000     0.00000     1.25520  0.0
    171    165    166    175   5     0.00000     0.00000     1.25520  0.0
    172    165    166    173   5     0.00000     0.00000     1.25520  0.0
    172    165    166    174   5     0.00000     0.00000     1.25520  0.0
    172    165    166    175   5     0.00000     0.00000     1.25520  0.0
    162    167    178    179   5     5.25092    -2.58990     2.28446  0.0
    162    167    178    183   5     4.74884    -0.63178     1.67360  0.0
    162    167    178    184   5     0.00000     0.00000     1.25520  0.0
    176    167    178    179   5     0.00000     0.00000     1.95811  0.0
    176    167    178    183   5     0.00000     0.00000     1.25520  0.0
    176    167    178    184   5     0.00000     0.00000     1.25520  0.0
    177    167    178    179   5     0.00000     0.00000     1.95811  0.0
    177    167    178    183   5     0.00000     0.00000     1.25520  0.0
    177    167    178    184   5     0.00000     0.00000     1.25520  0.0
    167    178    179    180   5     0.52300    -0.09205     2.34722  0.0
    183    178    179    180   5     0.52300    -0.09205     2.34722  0.0
    184    178    179    180   5     0.00000     0.00000     3.10034  0.0
    167    178    183    192   5     0.00000     0.00000     1.25520  0.0
    167    178    183    193   5     0.00000     0.00000     1.25520  0.0
    167    178    183    194   5     4.74884    -0.63178     1.67360  0.0
    179    178    183    192   5     0.00000     0.00000     1.95811  0.0
    179    178    183    193   5     0.00000     0.00000     1.95811  0.0
    179    178    183    194   5     5.25092    -2.58990     2.28446  0.0
    184    178    183    192   5     0.00000     0.00000     1.25520  0.0
    184    178    183    193   5     0.00000     0.00000     1.25520  0.0
    184    178    183    194   5     0.00000     0.00000     1.25520  0.0
    178    179    180    181   5     0.52300    -0.09205     2.34722  0.0
    178    179    180    185   5     0.00000     0.00000     3.10034  0.0
    178    179    180    186   5     0.00000     0.00000     3.10034  0.0
    179    180    181    182   5     5.25092    -2.58990     2.28446  0.0
    179    180    181    187   5     0.00000     0.00000     1.95811  0.0
    179    180    181    188   5     0.00000     0.00000     1.95811  0.0
    185    180    181    182   5     0.00000     0.00000     1.25520  0.0
    185    180    181    187   5     0.00000     0.00000     1.25520  0.0
    185    180    181    188   5     0.00000     0.00000     1.25520  0.0
    186    180    181    182   5     0.00000     0.00000     1.25520  0.0
    186    180    181    187   5     0.00000     0.00000     1.25520  0.0
    186    180    181    188   5     0.00000     0.00000     1.25520  0.0
    180    181    182    189   5     0.00000     0.00000     1.25520  0.0
    180    181    182    190   5     0.00000     0.00000     1.25520  0.0
    180    181    182    191   5     0.00000     0.00000     1.25520  0.0
    187    181    182    189   5     0.00000     0.00000     1.25520  0.0
    187    181    182    190   5     0.00000     0.00000     1.25520  0.0
    187    181    182    191   5     0.00000     0.00000     1.25520  0.0
    188    181    182    189   5     0.00000     0.00000     1.25520  0.0
    188    181    182    190   5     0.00000     0.00000     1.25520  0.0
    188    181    182    191   5     0.00000     0.00000     1.25520  0.0
    178    183    194    195   5     5.25092    -2.58990     2.28446  0.0
    178    183    194    199   5     4.74884    -0.63178     1.67360  0.0
    178    183    194    200   5     0.00000     0.00000     1.25520  0.0
    192    183    194    195   5     0.00000     0.00000     1.95811  0.0
    192    183    194    199   5     0.00000     0.00000     1.25520  0.0
    192    183    194    200   5     0.00000     0.00000     1.25520  0.0
    193    183    194    195   5     0.00000     0.00000     1.95811  0.0
    193    183    194    199   5     0.00000     0.00000     1.25520  0.0
    193    183    194    200   5     0.00000     0.00000     1.25520  0.0
    183    194    195    196   5     0.52300    -0.09205     2.34722  0.0
    199    194    195    196   5     0.52300    -0.09205     2.34722  0.0
    200    194    195    196   5     0.00000     0.00000     3.10034  0.0
    183    194    199    208   5     0.00000     0.00000     1.25520  0.0
    183    194    199    209   5     0.00000     0.00000     1.25520  0.0
    183    194    199    210   5     4.74884    -0.63178     1.67360  0.0
    195    194    199    208   5     0.00000     0.00000     1.95811  0.0
    195    194    199    209   5     0.00000     0.00000     1.95811  0.0
    195    194    199    210   5     5.25092    -2.58990     2.28446  0.0
    200    194    199    208   5     0.00000     0.00000     1.25520  0.0
    200    194    199    209   5     0.00000     0.00000     1.25520  0.0
    200    194    199    210   5     0.00000     0.00000     1.25520  0.0
    194    195    196    197   5     0.52300    -0.09205     2.34722  0.0
    194    195    196    201   5     0.00000     0.00000     3.10034  0.0
    194    195    196    202   5     0.00000     0.00000     3.10034  0.0
    195    196    197    198   5     5.25092    -2.58990     2.28446  0.0
    195    196    197    203   5     0.00000     0.00000     1.95811  0.0
    195    196    197    204   5     0.00000     0.00000     1.95811  0.0
    201    196    197    198   5     0.00000     0.00000     1.25520  0.0
    201    196    197    203   5     0.00000     0.00000     1.25520  0.0
    201    196    197    204   5     0.00000     0.00000     1.25520  0.0
    202    196    197    198   5     0.00000     0.00000     1.25520  0.0
    202    196    197    203   5     0.00000     0.00000     1.25520  0.0
    202    196    197    204   5     0.00000     0.00000     1.25520  0.0
    196    197    198    205   5     0.00000     0.00000     1.25520  0.0
    196    197    198    206   5     0.00000     0.00000     1.25520  0.0
    196    197    198    207   5     0.00000     0.00000     1.25520  0.0
    203    197    198    205   5     0.00000     0.00000     1.25520  0.0
    203    197    198    206   5     0.00000     0.00000     1.25520  0.0
    203    197    198    207   5     0.00000     0.00000     1.25520  0.0
    204    197    198    205   5     0.00000     0.00000     1.25520  0.0
    204    197    198    206   5     0.00000     0.00000     1.25520  0.0
    204    197    198    207   5     0.00000     0.00000     1.25520  0.0
    194    199    210    211   5     5.25092    -2.58990     2.28446  0.0
    194    199    210    215   5     4.74884    -0.63178     1.67360  0.0
    194    199    210    216   5     0.00000     0.00000     1.25520  0.0
    208    199    210    211   5     0.00000     0.00000     1.95811  0.0
    208    199    210    215   5     0.00000     0.00000     1.25520  0.0
    208    199    210    216   5     0.00000     0.00000     1.25520  0.0
    209    199    210    211   5     0.00000     0.00000     1.95811  0.0
    209    199    210    215   5     0.00000     0.00000     1.25520  0.0
    209    199    210    216   5     0.00000     0.00000     1.25520  0.0
    199    210    211    212   5     0.52300    -0.09205     2.34722  0.0
    215    210    211    212   5     0.52300    -0.09205     2.34722  0.0
    216    210    211    212   5     0.00000     0.00000     3.10034  0.0
    199    210    215    224   5     0.00000     0.00000     1.25520  0.0
    199    210    215    225   5     0.00000     0.00000     1.25520  0.0
    199    210    215    226   5     4.74884    -0.63178     1.67360  0.0
    211    210    215    224   5     0.00000     0.00000     1.95811  0.0
    211    210    215    225   5     0.00000     0.00000     1.95811  0.0
    211    210    215    226   5     5.25092    -2.58990     2.28446  0.0
    216    210    215    224   5     0.00000     0.00000     1.25520  0.0
    216    210    215    225   5     0.00000     0.00000     1.25520  0.0
    216    210    215    226   5     0.00000     0.00000     1.25520  0.0
    210    211    212    213   5     0.52300    -0.09205     2.34722  0.0
    210    211    212    217   5     0.00000     0.00000     3.10034  0.0
    210    211    212    218   5     0.00000     0.00000     3.10034  0.0
    211    212    213    214   5     5.25092    -2.58990     2.28446  0.0
    211    212    213    219   5     0.00000     0.00000     1.95811  0.0
    211    212    213    220   5     0.00000     0.00000     1.95811  0.0
    217    212    213    214   5     0.00000     0.00000     1.25520  0.0
    217    212    213    219   5     0.00000     0.00000     1.25520  0.0
    217    212    213    220   5     0.00000     0.00000     1.25520  0.0
    218    212    213    214   5     0.00000     0.00000     1.25520  0.0
    218    212    213    219   5     0.00000     0.00000     1.25520  0.0
    218    212    213    220   5     0.00000     0.00000     1.25520  0.0
    212    213    214    221   5     0.00000     0.00000     1.25520  0.0
    212    213    214    222   5     0.00000     0.00000     1.25520  0.0
    212    213    214    223   5     0.00000     0.00000     1.25520  0.0
    219    213    214    221   5     0.00000     0.00000     1.25520  0.0
    219    213    214    222   5     0.00000     0.00000     1.25520  0.0
    219    213    214    223   5     0.00000     0.00000     1.25520  0.0
    220    213    214    221   5     0.00000     0.00000     1.25520  0.0
    220    213    214    222   5     0.00000     0.00000     1.25520  0.0
    220    213    214    223   5     0.00000     0.00000     1.25520  0.0
    210    215    226    227   5     5.25092    -2.58990     2.28446  0.0
    210    215    226    231   5     4.74884    -0.63178     1.67360  0.0
    210    215    226    232   5     0.00000     0.00000     1.25520  0.0
    224    215    226    227   5     0.00000     0.00000     1.95811  0.0
    224    215    226    231   5     0.00000     0.00000     1.25520  0.0
    224    215    226    232   5     0.00000     0.00000     1.25520  0.0
    225    215    226    227   5     0.00000     0.00000     1.95811  0.0
    225    215    226    231   5     0.00000     0.00000     1.25520  0.0
    225    215    226    232   5     0.00000     0.00000     1.25520  0.0
    215    226    227    228   5     0.52300    -0.09205     2.34722  0.0
    231    226    227    228   5     0.52300    -0.09205     2.34722  0.0
    232    226    227    228   5     0.00000     0.00000     3.10034  0.0
    215    226    231    240   5     0.00000     0.00000     1.25520  0.0
    215    226    231    241   5     0.00000     0.00000     1.25520  0.0
    215    226    231    242   5     4.74884    -0.63178     1.67360  0.0
    227    226    231    240   5     0.00000     0.00000     1.95811  0.0
    227    226    231    241   5     0.00000     0.00000     1.95811  0.0
    227    226    231    242   5     5.25092    -2.58990     2.28446  0.0
    232    226    231    240   5     0.00000     0.00000     1.25520  0.0
    232    226    231    241   5     0.00000     0.00000     1.25520  0.0
    232    226    231    242   5     0.00000     0.00000     1.25520  0.0
    226    227    228    229   5     0.52300    -0.09205     2.34722  0.0
    226    227    228    233   5     0.00000     0.00000     3.10034  0.0
    226    227    228    234   5     0.00000     0.00000     3.10034  0.0
    227    228    229    230   5     5.25092    -2.58990     2.28446  0.0
    227    228    229    235   5     0.00000     0.00000     1.95811  0.0
    227    228    229    236   5     0.00000     0.00000     1.95811  0.0
    233    228    229    230   5     0.00000     0.00000     1.25520  0.0
    233    228    229    235   5     0.00000     0.00000     1.25520  0.0
    233    228    229    236   5     0.00000     0.00000     1.25520  0.0
    234    228    229    230   5     0.00000     0.00000     1.25520  0.0
    234    228    229    235   5     0.00000     0.00000     1.25520  0.0
    234    228    229    236   5     0.00000     0.00000     1.25520  0.0
    228    229    230    237   5     0.00000     0.00000     1.25520  0.0
    228    229    230    238   5     0.00000     0.00000     1.25520  0.0
    228    229    230    239   5     0.00000     0.00000     1.25520  0.0
    235    229    230    237   5     0.00000     0.00000     1.25520  0.0
    235    229    230    238   5     0.00000     0.00000     1.25520  0.0
    235    229    230    239   5     0.00000     0.00000     1.25520  0.0
    236    229    230    237   5     0.00000     0.00000     1.25520  0.0
    236    229    230    238   5     0.00000     0.00000     1.25520  0.0
    236    229    230    239   5     0.00000     0.00000     1.25520  0.0
    226    231    242    243   5     5.25092    -2.58990     2.28446  0.0
    226    231    242    247   5     4.74884    -0.63178     1.67360  0.0
    226    231    242    248   5     0.00000     0.00000     1.25520  0.0
    240    231    242    243   5     0.00000     0.00000     1.95811  0.0
    240    231    242    247   5     0.00000     0.00000     1.25520  0.0
    240    231    242    248   5     0.00000     0.00000     1.25520  0.0
    241    231    242    243   5     0.00000     0.00000     1.95811  0.0
    241    231    242    247   5     0.00000     0.00000     1.25520  0.0
    241    231    242    248   5     0.00000     0.00000     1.25520  0.0
    231    242    243    244   5     0.52300    -0.09205     2.34722  0.0
    247    242    243    244   5     0.52300    -0.09205     2.34722  0.0
    248    242    243    244   5     0.00000     0.00000     3.10034  0.0
    231    242    247    256   5     0.00000     0.00000     1.25520  0.0
    231    242    247    257   5     0.00000     0.00000     1.25520  0.0
    231    242    247    258   5     4.74884    -0.63178     1.67360  0.0
    243    242    247    256   5     0.00000     0.00000     1.95811  0.0
    243    242    247    257   5     0.00000     0.00000     1.95811  0.0
    243    242    247    258   5     5.25092    -2.58990     2.28446  0.0
    248    242    247    256   5     0.00000     0.00000     1.25520  0.0
    248    242    247    257   5     0.00000     0.00000     1.25520  0.0
    248    242    247    258   5     0.00000     0.00000     1.25520  0.0
    242    243    244    245   5     0.52300    -0.09205     2.34722  0.0
    242    243    244    249   5     0.00000     0.00000     3.10034  0.0
    242    243    244    250   5     0.00000     0.00000     3.10034  0.0
    243    244    245    246   5     5.25092    -2.58990     2.28446  0.0
    243    244    245    251   5     0.00000     0.00000     1.95811  0.0
    243    244    245    252   5     0.00000     0.00000     1.95811  0.0
    249    244    245    246   5     0.00000     0.00000     1.25520  0.0
    249    244    245    251   5     0.00000     0.00000     1.25520  0.0
    249    244    245    252   5     0.00000     0.00000     1.25520  0.0
    250    244    245    246   5     0.00000     0.00000     1.25520  0.0
    250    244    245    251   5     0.00000     0.00000     1.25520  0.0
    250    244    245    252   5     0.00000     0.00000     1.25520  0.0
    244    245    246    253   5     0.00000     0.00000     1.25520  0.0
    244    245    246    254   5     0.00000     0.00000     1.25520  0.0
    244    245    246    255   5     0.00000     0.00000     1.25520  0.0
    251    245    246    253   5     0.00000     0.00000     1.25520  0.0
    251    245    246    254   5     0.00000     0.00000     1.25520  0.0
    251    245    246    255   5     0.00000     0.00000     1.25520  0.0
    252    245    246    253   5     0.00000     0.00000     1.25520  0.0
    252    245    246    254   5     0.00000     0.00000     1.25520  0.0
    252    245    246    255   5     0.00000     0.00000     1.25520  0.0
    242    247    258    259   5     5.25092    -2.58990     2.28446  0.0
    242    247    258    263   5     4.74884    -0.63178     1.67360  0.0
    242    247    258    264   5     0.00000     0.00000     1.25520  0.0
    256    247    258    259   5     0.00000     0.00000     1.95811  0.0
    256    247    258    263   5     0.00000     0.00000     1.25520  0.0
    256    247    258    264   5     0.00000     0.00000     1.25520  0.0
    257    247    258    259   5     0.00000     0.00000     1.95811  0.0
    257    247    258    263   5     0.00000     0.00000     1.25520  0.0
    257    247    258    264   5     0.00000     0.00000     1.25520  0.0
    247    258    259    260   5     0.52300    -0.09205     2.34722  0.0
    263    258    259    260   5     0.52300    -0.09205     2.34722  0.0
    264    258    259    260   5     0.00000     0.00000     3.10034  0.0
    247    258    263    272   5     0.00000     0.00000     1.25520  0.0
    247    258    263    273   5     0.00000     0.00000     1.25520  0.0
    247    258    263    274   5     4.74884    -0.63178     1.67360  0.0
    259    258    263    272   5     0.00000     0.00000     1.95811  0.0
    259    258    263    273   5     0.00000     0.00000     1.95811  0.0
    259    258    263    274   5     5.25092    -2.58990     2.28446  0.0
    264    258    263    272   5     0.00000     0.00000     1.25520  0.0
    264    258    263    273   5     0.00000     0.00000     1.25520  0.0
    264    258    263    274   5     0.00000     0.00000     1.25520  0.0
    258    259    260    261   5     0.52300    -0.09205     2.34722  0.0
    258    259    260    265   5     0.00000     0.00000     3.10034  0.0
    258    259    260    266   5     0.00000     0.00000     3.10034  0.0
    259    260    261    262   5     5.25092    -2.58990     2.28446  0.0
    259    260    261    267   5     0.00000     0.00000     1.95811  0.0
    259    260    261    268   5     0.00000     0.00000     1.95811  0.0
    265    260    261    262   5     0.00000     0.00000     1.25520  0.0
    265    260    261    267   5     0.00000     0.00000     1.25520  0.0
    265    260    261    268   5     0.00000     0.00000     1.25520  0.0
    266    260    261    262   5     0.00000     0.00000     1.25520  0.0
    266    260    261    267   5     0.00000     0.00000     1.25520  0.0
    266    260    261    268   5     0.00000     0.00000     1.25520  0.0
    260    261    262    269   5     0.00000     0.00000     1.25520  0.0
    260    261    262    270   5     0.00000     0.00000     1.25520  0.0
    260    261    262    271   5     0.00000     0.00000     1.25520  0.0
    267    261    262    269   5     0.00000     0.00000     1.25520  0.0
    267    261    262    270   5     0.00000     0.00000     1.25520  0.0
    267    261    262    271   5     0.00000     0.00000     1.25520  0.0
    268    261    262    269   5     0.00000     0.00000     1.25520  0.0
    268    261    262    270   5     0.00000     0.00000     1.25520  0.0
    268    261    262    271   5     0.00000     0.00000     1.25520  0.0
    258    263    274    275   5     5.25092    -2.58990     2.28446  0.0
    258    263    274    279   5     4.74884    -0.63178     1.67360  0.0
    258    263    274    280   5     0.00000     0.00000     1.25520  0.0
    272    263    274    275   5     0.00000     0.00000     1.95811  0.0
    272    263    274    279   5     0.00000     0.00000     1.25520  0.0
    272    263    274    280   5     0.00000     0.00000     1.25520  0.0
    273    263    274    275   5     0.00000     0.00000     1.95811  0.0
    273    263    274    279   5     0.00000     0.00000     1.25520  0.0
    273    263    274    280   5     0.00000     0.00000     1.25520  0.0
    263    274    275    276   5     0.52300    -0.09205     2.34722  0.0
    279    274    275    276   5     0.52300    -0.09205     2.34722  0.0
    280    274    275    276   5     0.00000     0.00000     3.10034  0.0
    263    274    279    288   5     0.00000     0.00000     1.25520  0.0
    263    274    279    289   5     0.00000     0.00000     1.25520  0.0
    263    274    279    290   5     4.74884    -0.63178     1.67360  0.0
    275    274    279    288   5     0.00000     0.00000     1.95811  0.0
    275    274    279    289   5     0.00000     0.00000     1.95811  0.0
    275    274    279    290   5     5.25092    -2.58990     2.28446  0.0
    280    274    279    288   5     0.00000     0.00000     1.25520  0.0
    280    274    279    289   5     0.00000     0.00000     1.25520  0.0
    280    274    279    290   5     0.00000     0.00000     1.25520  0.0
    274    275    276    277   5     0.52300    -0.09205     2.34722  0.0
    274    275    276    281   5     0.00000     0.00000     3.10034  0.0
    274    275    276    282   5     0.00000     0.00000     3.10034  0.0
    275    276    277    278   5     5.25092    -2.58990     2.28446  0.0
    275    276    277    283   5     0.00000     0.00000     1.95811  0.0
    275    276    277    284   5     0.00000     0.00000     1.95811  0.0
    281    276    277    278   5     0.00000     0.00000     1.25520  0.0
    281    276    277    283   5     0.00000     0.00000     1.25520  0.0
    281    276    277    284   5     0.00000     0.00000     1.25520  0.0
    282    276    277    278   5     0.00000     0.00000     1.25520  0.0
    282    276    277    283   5     0.00000     0.00000     1.25520  0.0
    282    276    277    284   5     0.00000     0.00000     1.25520  0.0
    276    277    278    285   5     0.00000     0.00000     1.25520  0.0
    276    277    278    286   5     0.00000     0.00000     1.25520  0.0
    276    277    278    287   5     0.00000     0.00000     1.25520  0.0
    283    277    278    285   5     0.00000     0.00000     1.25520  0.0
    283    277    278    286   5     0.00000     0.00000     1.25520  0.0
    283    277    278    287   5     0.00000     0.00000     1.25520  0.0
    284    277    278    285   5     0.00000     0.00000     1.25520  0.0
    284    277    278    286   5     0.00000     0.00000     1.25520  0.0
    284    277    278    287   5     0.00000     0.00000     1.25520  0.0
    274    279    290    291   5     5.25092    -2.58990     2.28446  0.0
    274    279    290    295   5     4.74884    -0.63178     1.67360  0.0
    274    279    290    296   5     0.00000     0.00000     1.25520  0.0
    288    279    290    291   5     0.00000     0.00000     1.95811  0.0
    288    279    290    295   5     0.00000     0.00000     1.25520  0.0
    288    279    290    296   5     0.00000     0.00000     1.25520  0.0
    289    279    290    291   5     0.00000     0.00000     1.95811  0.0
    289    279    290    295   5     0.00000     0.00000     1.25520  0.0
    289    279    290    296   5     0.00000     0.00000     1.25520  0.0
    279    290    291    292   5     0.52300    -0.09205     2.34722  0.0
    295    290    291    292   5     0.52300    -0.09205     2.34722  0.0
    296    290    291    292   5     0.00000     0.00000     3.10034  0.0
    279    290    295    304   5     0.00000     0.00000     1.25520  0.0
    279    290    295    305   5     0.00000     0.00000     1.25520  0.0
    279    290    295    306   5     4.74884    -0.63178     1.67360  0.0
    291    290    295    304   5     0.00000     0.00000     1.95811  0.0
    291    290    295    305   5     0.00000     0.00000     1.95811  0.0
    291    290    295    306   5     5.25092    -2.58990     2.28446  0.0
    296    290    295    304   5     0.00000     0.00000     1.25520  0.0
    296    290    295    305   5     0.00000     0.00000     1.25520  0.0
    296    290    295    306   5     0.00000     0.00000     1.25520  0.0
    290    291    292    293   5     0.52300    -0.09205     2.34722  0.0
    290    291    292    297   5     0.00000     0.00000     3.10034  0.0
    290    291    292    298   5     0.00000     0.00000     3.10034  0.0
    291    292    293    294   5     5.25092    -2.58990     2.28446  0.0
    291    292    293    299   5     0.00000     0.00000     1.95811  0.0
    291    292    293    300   5     0.00000     0.00000     1.95811  0.0
    297    292    293    294   5     0.00000     0.00000     1.25520  0.0
    297    292    293    299   5     0.00000     0.00000     1.25520  0.0
    297    292    293    300   5     0.00000     0.00000     1.25520  0.0
    298    292    293    294   5     0.00000     0.00000     1.25520  0.0
    298    292    293    299   5     0.00000     0.00000     1.25520  0.0
    298    292    293    300   5     0.00000     0.00000     1.25520  0.0
    292    293    294    301   5     0.00000     0.00000     1.25520  0.0
    292    293    294    302   5     0.00000     0.00000     1.25520  0.0
    292    293    294    303   5     0.00000     0.00000     1.25520  0.0
    299    293    294    301   5     0.00000     0.00000     1.25520  0.0
    299    293    294    302   5     0.00000     0.00000     1.25520  0.0
    299    293    294    303   5     0.00000     0.00000     1.25520  0.0
    300    293    294    301   5     0.00000     0.00000     1.25520  0.0
    300    293    294    302   5     0.00000     0.00000     1.25520  0.0
    300    293    294    303   5     0.00000     0.00000     1.25520  0.0
    290    295    306    307   5     5.25092    -2.58990     2.28446  0.0
    290    295    306    311   5     4.74884    -0.63178     1.67360  0.0
    290    295    306    312   5     0.00000     0.00000     1.25520  0.0
    304    295    306    307   5     0.00000     0.00000     1.95811  0.0
    304    295    306    311   5     0.00000     0.00000     1.25520  0.0
    304    295    306    312   5     0.00000     0.00000     1.25520  0.0
    305    295    306    307   5     0.00000     0.00000     1.95811  0.0
    305    295    306    311   5     0.00000     0.00000     1.25520  0.0
    305    295    306    312   5     0.00000     0.00000     1.25520  0.0
    295    306    307    308   5     0.52300    -0.09205     2.34722  0.0
    311    306    307    308   5     0.52300    -0.09205     2.34722  0.0
    312    306    307    308   5     0.00000     0.00000     3.10034  0.0
    295    306    311    320   5     0.00000     0.00000     1.25520  0.0
    295    306    311    321   5     0.00000     0.00000     1.25520  0.0
    295    306    311    322   5     0.00000     0.00000     1.25520  0.0
    307    306    311    320   5     0.00000     0.00000     1.95811  0.0
    307    306    311    321   5     0.00000     0.00000     1.95811  0.0
    307    306    311    322   5     0.00000     0.00000     1.95811  0.0
    312    306    311    320   5     0.00000     0.00000     1.25520  0.0
    312    306    311    321   5     0.00000     0.00000     1.25520  0.0
    312    306    311    322   5     0.00000     0.00000     1.25520  0.0
    306    307    308    309   5     0.52300    -0.09205     2.34722  0.0
    306    307    308    313   5     0.00000     0.00000     3.10034  0.0
    306    307    308    314   5     0.00000     0.00000     3.10034  0.0
    307    308    309    310   5     5.25092    -2.58990     2.28446  0.0
    307    308    309    315   5     0.00000     0.00000     1.95811  0.0
    307    308    309    316   5     0.00000     0.00000     1.95811  0.0
    313    308    309    310   5     0.00000     0.00000     1.25520  0.0
    313    308    309    315   5     0.00000     0.00000     1.25520  0.0
    313    308    309    316   5     0.00000     0.00000     1.25520  0.0
    314    308    309    310   5     0.00000     0.00000     1.25520  0.0
    314    308    309    315   5     0.00000     0.00000     1.25520  0.0
    314    308    309    316   5     0.00000     0.00000     1.25520  0.0
    308    309    310    317   5     0.00000     0.00000     1.25520  0.0
    308    309    310    318   5     0.00000     0.00000     1.25520  0.0
    308    309    310    319   5     0.00000     0.00000     1.25520  0.0
    315    309    310    317   5     0.00000     0.00000     1.25520  0.0
    315    309    310    318   5     0.00000     0.00000     1.25520  0.0
    315    309    310    319   5     0.00000     0.00000     1.25520  0.0
    316    309    310    317   5     0.00000     0.00000     1.25520  0.0
    316    309    310    318   5     0.00000     0.00000     1.25520  0.0
    316    309    310    319   5     0.00000     0.00000     1.25520  0.0
